Title
55513
    1DOPE     N    1   3.887   4.156  16.322  0.0582  0.4936  0.3311
    1DOPE   HN1    2   3.911   4.144  16.423  0.0367 -0.9839  0.1843
    1DOPE   HN2    3   3.815   4.082  16.309 -0.3874  0.9453  0.2228
    1DOPE   HN3    4   3.969   4.136  16.262 -1.3585 -1.1731 -1.1652
    1DOPE   C12    5   3.835   4.289  16.296  0.3274  0.2658  0.4817
    1DOPE  H12A    6   3.766   4.318  16.378 -3.6161  0.2543 -2.5335
    1DOPE  H12B    7   3.771   4.279  16.205  2.3966 -0.9812 -0.9136
    1DOPE   C11    8   3.949   4.382  16.266 -0.2868  0.5011 -1.5259
    1DOPE  H11A    9   4.025   4.351  16.191  2.1036  2.1973  0.0648
    1DOPE  H11B   10   4.005   4.396  16.361 -2.1653 -0.9840 -0.1151
    1DOPE     P   11   3.984   4.635  16.209 -0.3284 -0.1760  0.1685
    1DOPE   O13   12   4.110   4.618  16.280 -0.3673  0.3075 -0.0848
    1DOPE   O14   13   3.910   4.760  16.233 -0.1313 -0.3009  0.1969
    1DOPE   O11   14   4.011   4.643  16.053  0.2973  0.0406  0.0743
    1DOPE   O12   15   3.891   4.509  16.233  0.1324 -0.3037  1.0939
    1DOPE    C1   16   4.100   4.557  15.984 -0.2432  0.6138  0.4765
    1DOPE    HA   17   4.162   4.498  16.055 -1.0649  1.4334  1.9148
    1DOPE    HB   18   4.148   4.621  15.907  1.5814  0.5600  1.5099
    1DOPE    C2   19   4.034   4.445  15.900  0.2507 -0.6269 -1.1295
    1DOPE    HS   20   4.012   4.359  15.965  0.7872 -0.7783 -1.1423
    1DOPE   O21   21   4.121   4.413  15.786  0.0010  0.2664  0.0008
    1DOPE   C21   22   4.105   4.297  15.728 -0.1109  0.7280  0.0381
    1DOPE   O22   23   4.039   4.199  15.769 -0.0082 -0.2478  0.3110
    1DOPE   C22   24   4.195   4.281  15.605 -0.6374 -0.2473  0.6673
    1DOPE   H2R   25   4.274   4.206  15.628  0.5639  1.2233  1.5771
    1DOPE   H2S   26   4.253   4.373  15.579  1.3100 -1.1772  1.5599
    1DOPE    C3   27   3.899   4.505  15.840  0.5293 -0.1621 -0.5443
    1DOPE    HX   28   3.935   4.590  15.778  1.9754 -0.8693 -0.6928
    1DOPE    HY   29   3.827   4.536  15.918 -0.7488 -1.1705 -1.2796
    1DOPE   O31   30   3.831   4.419  15.752  0.5479  0.1334  0.0839
    1DOPE   C31   31   3.745   4.336  15.814  0.2005 -0.4113 -0.3481
    1DOPE   O32   32   3.719   4.339  15.933  0.8530  0.1980  0.4924
    1DOPE   C32   33   3.677   4.244  15.711  0.4442  0.1521  1.1661
    1DOPE   H2X   34   3.576   4.225  15.753 -0.3528  1.1231 -0.2294
    1DOPE   H2Y   35   3.662   4.297  15.614  0.5360 -0.6358  0.7100
    1DOPE   C23   36   4.108   4.241  15.486 -0.2616  0.1588 -0.1618
    1DOPE   H3R   37   4.033   4.167  15.522  0.4321  0.0319  1.1043
    1DOPE   H3S   38   4.171   4.202  15.403  0.1673  0.1169  0.1760
    1DOPE   C24   39   4.035   4.362  15.437  0.3777 -0.0263  0.7560
    1DOPE   H4R   40   4.093   4.455  15.451  0.5131 -0.1315  0.8999
    1DOPE   H4S   41   3.941   4.364  15.496  0.4426 -1.9476  1.0065
    1DOPE   C25   42   4.010   4.363  15.286  0.5276  0.1831  0.2758
    1DOPE   H5R   43   4.109   4.376  15.239  1.5061  1.6203  2.5610
    1DOPE   H5S   44   3.957   4.457  15.260  0.8636  0.5089  0.7584
    1DOPE   C26   45   3.949   4.238  15.220 -0.4214 -0.3100 -0.1109
    1DOPE   H6R   46   4.008   4.148  15.249 -0.9366 -0.0820  1.7687
    1DOPE   H6S   47   3.970   4.253  15.112  0.4383 -1.0985 -0.0732
    1DOPE   C27   48   3.795   4.221  15.243 -0.9485 -0.8719  0.0658
    1DOPE   H7R   49   3.751   4.323  15.241 -0.3799 -0.6061  0.7914
    1DOPE   H7S   50   3.776   4.172  15.340 -2.2265  0.3556  0.4646
    1DOPE   C28   51   3.736   4.126  15.138 -0.2240 -0.4422  0.6785
    1DOPE   H8R   52   3.766   4.161  15.036 -0.9952 -0.7136  0.3448
    1DOPE   H8S   53   3.625   4.136  15.129 -0.2275  0.9391  1.9403
    1DOPE   C29   54   3.782   3.982  15.156 -0.5387  0.6415 -0.1591
    1DOPE   H9R   55   3.817   3.956  15.257  1.3198  2.5269 -0.2458
    1DOPE  C210   56   3.779   3.887  15.066 -0.1850 -0.3134 -0.5522
    1DOPE  H10R   57   3.820   3.791  15.100 -0.2028 -0.7285 -1.6597
    1DOPE  C211   58   3.731   3.895  14.924 -0.0134 -0.0361 -0.7023
    1DOPE  H11R   59   3.692   3.995  14.896  1.8243  0.8864 -0.1098
    1DOPE  H11S   60   3.654   3.815  14.926  1.0788 -1.1483  1.6235
    1DOPE  C212   61   3.837   3.857  14.822  0.4469  0.4456  0.8476
    1DOPE  H12R   62   3.932   3.908  14.847  0.6243  0.9097 -0.6971
    1DOPE  H12S   63   3.818   3.894  14.719 -1.1390 -3.2137 -0.3438
    1DOPE  C213   64   3.839   3.702  14.804  0.7456 -0.2700  0.2072
    1DOPE  H13R   65   3.754   3.653  14.753  0.7532 -1.1238  0.9880
    1DOPE  H13S   66   3.852   3.651  14.902 -2.0534  0.2288  0.9213
    1DOPE  C214   67   3.958   3.676  14.704  0.2373  0.1981 -1.3681
    1DOPE  H14R   68   4.057   3.720  14.725 -0.6082  1.2680  0.6333
    1DOPE  H14S   69   3.909   3.724  14.616 -0.4274  0.8150 -0.6838
    1DOPE  C215   70   3.972   3.526  14.675 -0.0257  0.0398 -0.8355
    1DOPE  H15R   71   4.045   3.524  14.591  0.4480  0.4319 -0.4333
    1DOPE  H15S   72   3.871   3.483  14.656  0.1702  0.1652 -2.2501
    1DOPE  C216   73   4.022   3.456  14.794  0.6976  0.5561 -0.3724
    1DOPE  H16R   74   3.973   3.491  14.887  1.9069 -0.9711  0.8894
    1DOPE  H16S   75   4.127   3.489  14.811  0.0096  2.6438  0.1397
    1DOPE  C217   76   3.985   3.311  14.777 -0.1873  0.1080 -0.5770
    1DOPE  H17R   77   4.031   3.276  14.682  2.6306  0.5923  0.5098
    1DOPE  H17S   78   3.875   3.296  14.785  0.1476 -1.5906  2.5842
    1DOPE  C218   79   4.043   3.226  14.896 -0.2665  0.1832  0.1584
    1DOPE  H18R   80   4.154   3.222  14.894 -0.2768 -2.9479  0.7403
    1DOPE  H18S   81   4.009   3.122  14.878  0.0927  0.2318 -0.8608
    1DOPE  H18T   82   4.019   3.270  14.995 -0.7222  2.1293 -0.7612
    1DOPE   C33   83   3.758   4.106  15.697  0.3054  0.1991  0.0743
    1DOPE   H3X   84   3.781   4.069  15.800 -0.0115 -1.3346 -0.3719
    1DOPE   H3Y   85   3.857   4.110  15.647  0.6465 -0.3917  0.6752
    1DOPE   C34   86   3.677   3.999  15.623  0.1514  0.1898  0.2171
    1DOPE   H4X   87   3.573   3.999  15.664  0.3029 -0.6978  0.6311
    1DOPE   H4Y   88   3.672   4.019  15.514  1.2815 -0.0316  0.1183
    1DOPE   C35   89   3.735   3.860  15.644  0.5291  0.2134  0.2968
    1DOPE   H5X   90   3.735   3.829  15.751  1.7110 -2.1824 -0.3324
    1DOPE   H5Y   91   3.837   3.862  15.599  0.0869  1.4055 -0.7265
    1DOPE   C36   92   3.657   3.755  15.557  0.2222  0.1932 -0.2815
    1DOPE   H6X   93   3.641   3.795  15.454  2.0593 -1.2726 -1.1920
    1DOPE   H6Y   94   3.554   3.750  15.599  0.1650  1.1257 -0.2915
    1DOPE   C37   95   3.719   3.607  15.559  0.2300 -0.4213 -0.0954
    1DOPE   H7X   96   3.818   3.626  15.511 -0.1033  0.6910 -0.3647
    1DOPE   H7Y   97   3.723   3.582  15.667 -0.2998  0.0729  0.0410
    1DOPE   C38   98   3.641   3.505  15.470 -0.1100 -0.3156 -0.0079
    1DOPE   H8X   99   3.549   3.465  15.519 -0.9611  0.3828 -0.9736
    1DOPE   H8Y  100   3.704   3.414  15.463 -3.5000 -2.7593 -1.8440
    1DOPE   C39  101   3.606   3.555  15.333 -0.0193  0.3222  0.2410
    1DOPE   H9X  102   3.543   3.645  15.327  1.4867  1.4022 -0.1427
    1DOPE  C310  103   3.661   3.510  15.220 -0.6033 -0.1385  0.0182
    1DOPE  H10X  104   3.626   3.553  15.125  0.6038  2.4899  0.6833
    1DOPE  C311  105   3.757   3.398  15.210  0.6111 -0.4329  0.0663
    1DOPE  H11X  106   3.800   3.430  15.112 -1.1166 -1.0339 -0.9338
    1DOPE  H11Y  107   3.836   3.402  15.288  1.2373 -0.7939 -0.5366
    1DOPE  C312  108   3.686   3.264  15.196  0.1031 -0.1024 -0.5330
    1DOPE  H12X  109   3.597   3.277  15.131 -0.6598 -0.2838  0.4470
    1DOPE  H12Y  110   3.648   3.227  15.294  0.6766  2.2453  0.6418
    1DOPE  C313  111   3.773   3.153  15.146  0.3364 -0.2059 -0.0755
    1DOPE  H13X  112   3.831   3.197  15.062 -0.7484 -0.7967 -1.1670
    1DOPE  H13Y  113   3.854   3.127  15.218  2.1170  2.3187 -1.0029
    1DOPE  C314  114   3.698   3.036  15.085 -0.7254  0.5246  0.2355
    1DOPE  H14X  115   3.610   3.070  15.026  0.5534  0.7411 -1.6429
    1DOPE  H14Y  116   3.658   2.966  15.161 -1.5518  0.1552 -0.5312
    1DOPE  C315  117   3.788   2.951  14.987  0.2679 -0.0232  0.1280
    1DOPE  H15X  118   3.816   3.019  14.904 -0.0170  0.7651  0.6629
    1DOPE  H15Y  119   3.718   2.878  14.943 -1.1889  1.0778  0.5558
    1DOPE  C316  120   3.916   2.890  15.045 -0.0264 -0.1783 -1.1378
    1DOPE  H16X  121   3.872   2.830  15.127  0.2111 -0.6753 -1.3703
    1DOPE  H16Y  122   3.974   2.974  15.090 -0.7549  0.0115 -0.5449
    1DOPE  C317  123   3.995   2.809  14.948 -0.1620  0.0535  0.8534
    1DOPE  H17X  124   3.930   2.752  14.877 -2.3923  3.2310  0.1069
    1DOPE  H17Y  125   4.043   2.886  14.884  1.8495 -2.8069 -1.3513
    1DOPE  C318  126   4.104   2.729  15.013  0.2177  0.1469 -0.2690
    1DOPE  H18X  127   4.152   2.678  14.927 -0.5408 -0.7772 -0.1628
    1DOPE  H18Y  128   4.179   2.793  15.064  0.4408  1.8510 -2.5491
    1DOPE  H18Z  129   4.063   2.658  15.088  2.6599 -0.2096  0.8276
    2DOPE     N  130   3.675   5.878  16.187 -0.0360 -0.0036 -0.0495
    2DOPE   HN1  131   3.621   5.877  16.098 -2.7448 -3.0745  1.3961
    2DOPE   HN2  132   3.608   5.861  16.265 -0.4670  1.3223 -0.1202
    2DOPE   HN3  133   3.724   5.968  16.200  0.8356 -0.3032 -1.0830
    2DOPE   C12  134   3.793   5.782  16.204  0.1006 -0.0935 -0.5240
    2DOPE  H12A  135   3.749   5.681  16.215  0.4370  0.0147  3.0593
    2DOPE  H12B  136   3.848   5.805  16.298 -1.7852 -0.4278  0.7198
    2DOPE   C11  137   3.903   5.791  16.095  0.3314  0.1125 -0.3669
    2DOPE  H11A  138   4.000   5.752  16.131 -0.6075 -1.9948  0.0533
    2DOPE  H11B  139   3.923   5.894  16.059 -0.0895 -0.3705 -2.0842
    2DOPE     P  140   3.887   5.571  15.949 -0.6134 -0.4477 -0.1881
    2DOPE   O13  141   3.811   5.533  15.827 -0.0244 -0.1715  0.0057
    2DOPE   O14  142   3.854   5.498  16.076 -0.3944  0.3709  0.6344
    2DOPE   O11  143   4.044   5.565  15.928  0.3736  0.6644  0.1525
    2DOPE   O12  144   3.867   5.723  15.978 -0.4742 -0.9873 -0.0642
    2DOPE    C1  145   4.117   5.656  15.850 -0.4029  0.1899  0.3000
    2DOPE    HA  146   4.215   5.613  15.822 -0.2557  1.1910 -0.8345
    2DOPE    HB  147   4.146   5.747  15.906 -1.0460  1.2238 -0.9757
    2DOPE    C2  148   4.060   5.695  15.704  0.2163  0.2026 -0.4837
    2DOPE    HS  149   3.958   5.739  15.714  0.3033  0.5321 -1.0150
    2DOPE   O21  150   4.055   5.580  15.618  0.2195  0.1622  0.1857
    2DOPE   C21  151   3.974   5.581  15.516 -0.0458 -0.3604 -0.1141
    2DOPE   O22  152   3.880   5.655  15.504 -0.0375  0.4045  0.2144
    2DOPE   C22  153   4.002   5.466  15.424  0.4763  0.8038  0.3498
    2DOPE   H2R  154   4.086   5.411  15.471 -0.7341  1.0601  3.0090
    2DOPE   H2S  155   4.029   5.506  15.324  2.9402 -0.5818  0.3806
    2DOPE    C3  156   4.149   5.811  15.643 -0.3558  0.1466  1.0851
    2DOPE    HX  157   4.255   5.778  15.652  0.8017  3.4778  1.3395
    2DOPE    HY  158   4.146   5.888  15.723 -2.4459  0.5107  0.7023
    2DOPE   O31  159   4.121   5.850  15.509 -0.3381  0.1815 -0.0482
    2DOPE   C31  160   4.065   5.976  15.495  0.9207 -0.1399  0.0637
    2DOPE   O32  161   4.065   6.060  15.581 -0.2918  0.5437  0.2203
    2DOPE   C32  162   4.036   5.984  15.345 -0.2940 -0.9612  0.1509
    2DOPE   H2X  163   4.123   5.949  15.285  0.9183  0.1555  1.1778
    2DOPE   H2Y  164   3.943   5.930  15.318 -0.4222 -1.0709  0.7960
    2DOPE   C23  165   3.881   5.370  15.410 -0.8291  0.7818  0.1289
    2DOPE   H3R  166   3.833   5.340  15.506  1.2385 -1.4916  0.5468
    2DOPE   H3S  167   3.919   5.277  15.364 -1.8309 -0.7402  2.2358
    2DOPE   C24  168   3.781   5.424  15.313  0.0787 -0.5997 -0.6202
    2DOPE   H4R  169   3.826   5.464  15.220 -2.0597  0.7826 -1.1339
    2DOPE   H4S  170   3.735   5.516  15.354  1.1149  0.4513 -1.7331
    2DOPE   C25  171   3.670   5.330  15.267  0.2693  0.0957 -0.6190
    2DOPE   H5R  172   3.706   5.235  15.221  0.8732  0.9142 -1.8833
    2DOPE   H5S  173   3.612   5.372  15.183 -2.5746 -1.1076  0.6083
    2DOPE   C26  174   3.575   5.294  15.383 -0.2594 -0.6948 -0.9894
    2DOPE   H6R  175   3.558   5.389  15.438 -1.5558  0.8459 -3.8244
    2DOPE   H6S  176   3.626   5.221  15.450  0.6946  0.4699 -0.4103
    2DOPE   C27  177   3.442   5.238  15.346  0.7032 -0.1814 -0.2447
    2DOPE   H7R  178   3.416   5.159  15.419  0.7709 -0.6503 -0.7204
    2DOPE   H7S  179   3.453   5.190  15.247  0.9000  0.0379 -0.3319
    2DOPE   C28  180   3.331   5.351  15.333 -0.7913  0.0550  0.0697
    2DOPE   H8R  181   3.360   5.433  15.264  0.9451 -0.8039 -0.2798
    2DOPE   H8S  182   3.325   5.390  15.437 -2.2470 -0.7093  0.3012
    2DOPE   C29  183   3.200   5.294  15.295  0.5978  0.7750  1.1128
    2DOPE   H9R  184   3.149   5.226  15.364 -0.5891 -2.9389 -2.9340
    2DOPE  C210  185   3.140   5.301  15.172 -0.8183  0.2218 -0.2322
    2DOPE  H10R  186   3.051   5.240  15.155 -0.5497 -0.6226  1.2735
    2DOPE  C211  187   3.178   5.383  15.053 -0.3688 -0.8165 -0.2078
    2DOPE  H11R  188   3.237   5.474  15.078  1.0355 -1.4031 -1.1970
    2DOPE  H11S  189   3.095   5.422  14.990  0.6622 -0.2302 -1.2504
    2DOPE  C212  190   3.258   5.293  14.959 -0.1409 -0.3549 -0.5374
    2DOPE  H12R  191   3.189   5.213  14.923 -1.9863  0.4925  0.9396
    2DOPE  H12S  192   3.344   5.247  15.012 -1.6435  0.0673  2.4475
    2DOPE  C213  193   3.305   5.355  14.828 -0.1669  0.0962 -0.5023
    2DOPE  H13R  194   3.224   5.406  14.771  0.2758  1.1282 -0.2422
    2DOPE  H13S  195   3.349   5.275  14.765 -2.5061 -1.2424 -0.5607
    2DOPE  C214  196   3.422   5.459  14.855  0.5241 -0.4559 -0.0343
    2DOPE  H14R  197   3.508   5.397  14.890  0.4972  0.0420  0.9479
    2DOPE  H14S  198   3.383   5.531  14.929  1.0147  0.7666 -0.9182
    2DOPE  C215  199   3.453   5.536  14.727 -0.6619  0.0317 -0.0788
    2DOPE  H15R  200   3.440   5.459  14.649 -1.3802 -1.4650  1.4399
    2DOPE  H15S  201   3.561   5.563  14.731 -0.9968  1.3019  1.7755
    2DOPE  C216  202   3.356   5.653  14.702  0.2379 -0.3659 -0.3916
    2DOPE  H16R  203   3.361   5.725  14.787 -1.9810 -1.3937  0.7279
    2DOPE  H16S  204   3.252   5.617  14.718  0.4323 -0.1566  1.5902
    2DOPE  C217  205   3.369   5.719  14.570 -0.0845 -0.1091  0.3123
    2DOPE  H17R  206   3.362   5.645  14.487  0.1117  0.0524  0.1511
    2DOPE  H17S  207   3.471   5.762  14.558 -0.8534  1.3073 -2.0123
    2DOPE  C218  208   3.270   5.833  14.565  1.0372 -0.1784  0.0756
    2DOPE  H18R  209   3.165   5.795  14.566  1.0869 -0.3126  0.6974
    2DOPE  H18S  210   3.277   5.890  14.469  0.2798 -2.5317 -1.4604
    2DOPE  H18T  211   3.276   5.889  14.661  0.4773 -0.9831  0.5945
    2DOPE   C33  212   4.007   6.132  15.305  0.6762 -0.5153 -0.3860
    2DOPE   H3X  213   4.099   6.194  15.312 -0.0589  0.6913 -0.9714
    2DOPE   H3Y  214   3.932   6.180  15.371  0.1284 -0.3550 -1.1145
    2DOPE   C34  215   3.939   6.132  15.165  0.3533  0.9804 -0.9384
    2DOPE   H4X  216   3.861   6.054  15.155  0.4718  0.7443 -0.1004
    2DOPE   H4Y  217   3.888   6.230  15.161 -0.1434  0.7245 -0.8813
    2DOPE   C35  218   4.030   6.105  15.039  0.4315 -0.8800  0.0413
    2DOPE   H5X  219   3.965   6.126  14.952 -0.5693  0.1366  0.9987
    2DOPE   H5Y  220   4.065   6.000  15.052  0.0973 -1.3140 -2.1681
    2DOPE   C36  221   4.149   6.201  15.026  0.3326 -0.1322  0.6109
    2DOPE   H6X  222   4.221   6.144  14.963 -0.6413 -2.9479  1.8773
    2DOPE   H6Y  223   4.195   6.209  15.126  2.1859 -0.2884 -0.1801
    2DOPE   C37  224   4.099   6.335  14.963  0.3757  0.3771  0.3565
    2DOPE   H7X  225   4.050   6.311  14.866 -0.1385 -1.1386  0.9695
    2DOPE   H7Y  226   4.015   6.380  15.019 -0.3335 -0.3575 -0.1144
    2DOPE   C38  227   4.212   6.439  14.930 -0.3010  0.1083 -0.2368
    2DOPE   H8X  228   4.285   6.391  14.861  0.7238  1.8144 -0.3956
    2DOPE   H8Y  229   4.258   6.465  15.027 -1.5486 -0.1563  0.4440
    2DOPE   C39  230   4.166   6.571  14.872 -0.2090 -0.0817  0.3532
    2DOPE   H9X  231   4.094   6.630  14.931 -0.7531 -1.6539  1.3310
    2DOPE  C310  232   4.205   6.630  14.758  0.1635 -0.6540  0.4183
    2DOPE  H10X  233   4.170   6.733  14.740 -1.0049 -1.1277 -0.1154
    2DOPE  C311  234   4.296   6.578  14.651  0.1026 -0.2975  0.1797
    2DOPE  H11X  235   4.394   6.549  14.693  0.6406 -1.0617 -1.5105
    2DOPE  H11Y  236   4.255   6.481  14.616  0.0895 -0.2113 -0.0503
    2DOPE  C312  237   4.330   6.692  14.553 -0.7115 -0.4183  0.5207
    2DOPE  H12X  238   4.360   6.776  14.620  0.6495 -2.4443  2.5687
    2DOPE  H12Y  239   4.238   6.729  14.502  0.5496  3.3102  0.6088
    2DOPE  C313  240   4.437   6.645  14.456 -0.3357  0.1305  0.7568
    2DOPE  H13X  241   4.534   6.648  14.509 -0.0759 -0.0339  0.2968
    2DOPE  H13Y  242   4.422   6.544  14.412  1.4581  0.8436 -1.7388
    2DOPE  C314  243   4.444   6.744  14.339 -0.0989 -0.6009 -0.2651
    2DOPE  H14X  244   4.480   6.842  14.377  0.1572 -0.1365 -1.6383
    2DOPE  H14Y  245   4.351   6.765  14.282 -0.5626  0.4138  0.8278
    2DOPE  C315  246   4.535   6.691  14.231  0.1845 -0.2915 -0.1057
    2DOPE  H15X  247   4.491   6.608  14.171  3.2035 -2.8836  0.9673
    2DOPE  H15Y  248   4.625   6.655  14.285 -0.6780 -2.0180  0.2415
    2DOPE  C316  249   4.570   6.800  14.133  0.3865 -0.3079  0.2636
    2DOPE  H16X  250   4.603   6.894  14.182 -1.9216  1.2428 -0.9465
    2DOPE  H16Y  251   4.474   6.840  14.092 -1.0525 -0.9267  2.8099
    2DOPE  C317  252   4.658   6.761  14.015 -0.2228  0.5216  0.3671
    2DOPE  H17X  253   4.599   6.693  13.948  1.4109  0.5599 -1.1749
    2DOPE  H17Y  254   4.687   6.852  13.959  2.5690  0.4487  1.5269
    2DOPE  C318  255   4.789   6.688  14.046  0.6718  0.8231  0.5175
    2DOPE  H18X  256   4.846   6.675  13.952  2.5381  0.8198  1.5891
    2DOPE  H18Y  257   4.849   6.749  14.117  2.7365 -0.4274 -0.0399
    2DOPE  H18Z  258   4.771   6.590  14.096  0.7213 -1.0475 -2.8518
    3DOPE     N  259   2.652   5.551  15.971 -0.2714  0.2330 -0.7057
    3DOPE   HN1  260   2.695   5.587  15.884 -0.3303  0.8056 -0.5008
    3DOPE   HN2  261   2.617   5.640  16.012  0.4942  0.9745 -1.6258
    3DOPE   HN3  262   2.730   5.504  16.021  0.6761  1.2114 -1.2420
    3DOPE   C12  263   2.546   5.457  15.926  0.0668 -0.9110  0.3667
    3DOPE  H12A  264   2.478   5.438  16.011 -1.4047  0.6444 -0.4174
    3DOPE  H12B  265   2.585   5.354  15.912 -0.0908 -0.8061 -0.9545
    3DOPE   C11  266   2.475   5.513  15.805  0.2926  0.2939  0.2143
    3DOPE  H11A  267   2.408   5.438  15.757 -0.9011  1.2851  0.2690
    3DOPE  H11B  268   2.549   5.537  15.727 -0.4891  1.3539 -0.2204
    3DOPE     P  269   2.406   5.766  15.760  0.1127 -0.0010  0.4119
    3DOPE   O13  270   2.532   5.823  15.802  0.2943  0.3663 -0.1045
    3DOPE   O14  271   2.281   5.841  15.793 -0.3871  0.3352 -0.2308
    3DOPE   O11  272   2.401   5.741  15.603 -0.4007 -0.4653 -0.3952
    3DOPE   O12  273   2.395   5.625  15.830  0.2453  0.2556  0.7473
    3DOPE    C1  274   2.278   5.686  15.553  0.7167  0.5048  0.3333
    3DOPE    HA  275   2.186   5.731  15.596  0.3075  3.7398 -3.3571
    3DOPE    HB  276   2.285   5.575  15.559  2.3982  0.5683 -0.0250
    3DOPE    C2  277   2.280   5.710  15.403  0.2987  0.3411  0.0554
    3DOPE    HS  278   2.192   5.647  15.377 -0.6776  0.8410  1.9546
    3DOPE   O21  279   2.402   5.680  15.332 -0.2519  0.1947 -0.5096
    3DOPE   C21  280   2.432   5.554  15.339 -0.8365  0.1744  0.0061
    3DOPE   O22  281   2.361   5.464  15.374  0.3607  0.4116 -0.3373
    3DOPE   C22  282   2.568   5.533  15.273 -0.0138  0.3777  0.0707
    3DOPE   H2R  283   2.620   5.455  15.333  0.9867 -0.6101 -1.9788
    3DOPE   H2S  284   2.627   5.627  15.276 -0.1092  0.4361  0.0911
    3DOPE    C3  285   2.236   5.860  15.377  0.0489 -0.2452 -0.0434
    3DOPE    HX  286   2.314   5.912  15.436  1.6249 -0.0325 -2.2091
    3DOPE    HY  287   2.137   5.877  15.425  0.5249  3.8222 -0.1187
    3DOPE   O31  288   2.249   5.890  15.239  0.1888 -0.2033  0.6406
    3DOPE   C31  289   2.361   5.948  15.198  0.8926  0.7742  0.8042
    3DOPE   O32  290   2.438   6.014  15.264  1.0566  0.2376 -0.1358
    3DOPE   C32  291   2.368   5.943  15.043  0.0580  0.8707 -0.2319
    3DOPE   H2X  292   2.298   5.870  14.997 -0.6416  1.2759  0.1854
    3DOPE   H2Y  293   2.342   6.047  15.012  1.9844  1.5424  0.2767
    3DOPE   C23  294   2.543   5.507  15.124 -0.0684  0.0322 -0.1259
    3DOPE   H3R  295   2.489   5.591  15.075 -0.3222 -0.7296 -1.2057
    3DOPE   H3S  296   2.484   5.414  15.123 -2.1596  1.2897  0.7562
    3DOPE   C24  297   2.677   5.479  15.052 -0.2637 -0.5693 -0.2769
    3DOPE   H4R  298   2.754   5.432  15.117 -1.4754  0.9161  2.3962
    3DOPE   H4S  299   2.723   5.575  15.018 -2.9549  0.9291  0.0418
    3DOPE   C25  300   2.647   5.386  14.931 -0.2101  0.1182  0.6125
    3DOPE   H5R  301   2.584   5.442  14.858  1.3499  3.4716  1.6336
    3DOPE   H5S  302   2.594   5.296  14.970  0.0565 -1.0989 -1.6620
    3DOPE   C26  303   2.775   5.337  14.855 -0.1008 -0.7856 -0.4706
    3DOPE   H6R  304   2.766   5.239  14.803 -0.1297 -1.0387  0.0137
    3DOPE   H6S  305   2.854   5.338  14.933 -1.8662  3.7101  1.6132
    3DOPE   C27  306   2.819   5.446  14.755 -0.2875  0.5115  0.6033
    3DOPE   H7R  307   2.817   5.545  14.807  0.3032  0.4878  0.6705
    3DOPE   H7S  308   2.745   5.442  14.672  0.9415 -0.9350 -0.4716
    3DOPE   C28  309   2.961   5.426  14.699  0.1158  0.2008  0.2902
    3DOPE   H8R  310   3.025   5.420  14.789  1.3439  0.7828 -0.5112
    3DOPE   H8S  311   2.993   5.526  14.662  1.6387 -0.9073 -1.5401
    3DOPE   C29  312   2.980   5.319  14.596  0.5654  0.2396 -0.7116
    3DOPE   H9R  313   3.005   5.225  14.646 -0.5730  0.3395  0.0743
    3DOPE  C210  314   2.966   5.327  14.459  0.3313 -0.2403 -0.0647
    3DOPE  H10R  315   2.981   5.237  14.397 -0.7408 -0.5456  0.1055
    3DOPE  C211  316   2.928   5.459  14.384  0.0679  0.4391  0.1591
    3DOPE  H11R  317   2.870   5.523  14.453  2.8410  0.3706  2.7689
    3DOPE  H11S  318   2.874   5.436  14.289  1.2103 -2.5493  0.1034
    3DOPE  C212  319   3.050   5.538  14.342 -0.0749 -0.0916 -0.8127
    3DOPE  H12R  320   3.102   5.575  14.432  0.7915 -2.5397 -0.2428
    3DOPE  H12S  321   3.019   5.632  14.290  0.1644  0.4083 -0.0607
    3DOPE  C213  322   3.145   5.461  14.247 -0.8130 -0.2916 -0.2250
    3DOPE  H13R  323   3.086   5.427  14.159 -1.3931 -1.0400  0.4434
    3DOPE  H13S  324   3.185   5.368  14.294 -0.6923 -0.0435  0.1610
    3DOPE  C214  325   3.254   5.549  14.200 -0.4115 -0.2687 -0.2180
    3DOPE  H14R  326   3.313   5.579  14.290 -1.2488  0.2116  0.1759
    3DOPE  H14S  327   3.217   5.642  14.153  0.7807 -0.1940 -1.0659
    3DOPE  C215  328   3.352   5.485  14.101 -0.5291  0.5766  0.4738
    3DOPE  H15R  329   3.304   5.392  14.065 -1.1105  0.1876  2.1451
    3DOPE  H15S  330   3.437   5.462  14.170  0.4429  0.5584 -0.7033
    3DOPE  C216  331   3.391   5.572  13.979 -0.7396  0.7253  0.0984
    3DOPE  H16R  332   3.426   5.670  14.020  0.7595 -0.1848  1.0725
    3DOPE  H16S  333   3.302   5.589  13.915 -1.3293 -1.5330  0.2304
    3DOPE  C217  334   3.507   5.525  13.890  0.2480  0.5534  0.2621
    3DOPE  H17R  335   3.495   5.416  13.879 -2.6064  0.7196  1.0295
    3DOPE  H17S  336   3.610   5.549  13.925  0.6203  0.8449 -0.9776
    3DOPE  C218  337   3.496   5.581  13.749  0.3155 -0.9236 -0.6190
    3DOPE  H18R  338   3.395   5.546  13.720  0.4332 -0.3821 -1.7449
    3DOPE  H18S  339   3.564   5.524  13.683  1.6156 -0.7434  0.5103
    3DOPE  H18T  340   3.516   5.690  13.757 -0.1466 -0.9152  0.6373
    3DOPE   C33  341   2.503   5.897  14.988  0.1767  0.1493 -0.7021
    3DOPE   H3X  342   2.514   5.788  15.004  1.9051  0.4209  0.2092
    3DOPE   H3Y  343   2.588   5.950  15.036 -0.1495 -0.8067  1.0038
    3DOPE   C34  344   2.533   5.934  14.837  0.1201 -0.0737 -0.0583
    3DOPE   H4X  345   2.434   5.937  14.785  0.7196  1.8570 -1.1540
    3DOPE   H4Y  346   2.569   6.038  14.825  0.1119  0.1443  1.5343
    3DOPE   C35  347   2.620   5.828  14.769  0.2722 -0.0775  0.3683
    3DOPE   H5X  348   2.582   5.724  14.769  0.1742 -0.1349  3.5554
    3DOPE   H5Y  349   2.721   5.828  14.816 -0.4272 -0.0319  1.9472
    3DOPE   C36  350   2.659   5.876  14.624  0.1228 -0.6617  0.2121
    3DOPE   H6X  351   2.688   5.984  14.623 -0.9997 -0.3172 -2.2300
    3DOPE   H6Y  352   2.563   5.868  14.569 -0.9971  1.3177  1.7112
    3DOPE   C37  353   2.768   5.786  14.575  1.1850  0.1935  0.0342
    3DOPE   H7X  354   2.838   5.771  14.660  0.9237 -0.4045  0.1444
    3DOPE   H7Y  355   2.724   5.692  14.537 -1.1064  1.0846  0.3275
    3DOPE   C38  356   2.849   5.841  14.451 -0.2568 -0.2585  0.3440
    3DOPE   H8X  357   2.923   5.762  14.426 -1.0097 -0.7915 -0.2220
    3DOPE   H8Y  358   2.907   5.927  14.492  3.0618 -0.7467 -2.8342
    3DOPE   C39  359   2.774   5.861  14.324  0.2663 -0.7039 -0.0216
    3DOPE   H9X  360   2.732   5.767  14.287 -3.0132  0.5447  0.2280
    3DOPE  C310  361   2.763   5.977  14.257 -0.0962 -0.2451 -0.2465
    3DOPE  H10X  362   2.691   5.975  14.175 -0.1387  1.6931 -0.3077
    3DOPE  C311  363   2.813   6.112  14.296  0.1258 -0.1104  0.1379
    3DOPE  H11X  364   2.730   6.154  14.356  0.8304 -0.1213  1.1335
    3DOPE  H11Y  365   2.908   6.108  14.353  1.4123  0.6635 -1.8033
    3DOPE  C312  366   2.844   6.180  14.163 -0.3501 -0.0091  0.1061
    3DOPE  H12X  367   2.752   6.173  14.100 -0.9115  2.7178  0.4642
    3DOPE  H12Y  368   2.937   6.138  14.119  1.3106  1.4386  2.0176
    3DOPE  C313  369   2.875   6.326  14.196  0.2624 -0.1645  0.8238
    3DOPE  H13X  370   2.844   6.372  14.100  0.4086  0.1652  0.9347
    3DOPE  H13Y  371   2.801   6.369  14.266 -1.3716  1.1408 -1.5496
    3DOPE  C314  372   3.023   6.374  14.228  0.4005  0.4799  0.1254
    3DOPE  H14X  373   3.044   6.343  14.333 -0.1690  0.1138  0.1393
    3DOPE  H14Y  374   3.014   6.485  14.224 -0.1381  0.4677  0.7388
    3DOPE  C315  375   3.126   6.319  14.135  0.2388 -0.4297  0.2687
    3DOPE  H15X  376   3.093   6.329  14.029  0.8018  1.7590  0.2370
    3DOPE  H15Y  377   3.153   6.215  14.164  1.2464  0.0260  1.0193
    3DOPE  C316  378   3.256   6.410  14.128  0.2083  0.3995 -0.2953
    3DOPE  H16X  379   3.276   6.434  14.234 -0.4326 -1.1260  0.2064
    3DOPE  H16Y  380   3.219   6.498  14.071 -0.3715  0.1349 -0.3434
    3DOPE  C317  381   3.386   6.343  14.073 -0.4091 -0.0641 -0.3828
    3DOPE  H17X  382   3.471   6.397  14.121 -0.3081 -0.6092  0.0648
    3DOPE  H17Y  383   3.387   6.242  14.120  0.9193 -0.1811 -0.6074
    3DOPE  C318  384   3.403   6.340  13.924  0.6034 -0.1080 -0.2700
    3DOPE  H18X  385   3.323   6.291  13.864  0.2103  0.1771  0.0159
    3DOPE  H18Y  386   3.418   6.446  13.893  0.7873  0.4536  1.6245
    3DOPE  H18Z  387   3.502   6.298  13.897  0.7862 -0.6413  1.1540
    4DOPE     N  388   4.765   3.272  15.897 -0.1454 -0.1099 -0.0820
    4DOPE   HN1  389   4.733   3.323  15.982 -2.1540  1.8211 -1.8733
    4DOPE   HN2  390   4.854   3.223  15.919 -0.8776 -2.7912 -2.4862
    4DOPE   HN3  391   4.786   3.353  15.835  0.1329 -0.0278  0.1202
    4DOPE   C12  392   4.651   3.194  15.834  0.1613  0.2413  0.0723
    4DOPE  H12A  393   4.573   3.265  15.799  1.1803  1.8082  0.8789
    4DOPE  H12B  394   4.604   3.136  15.916 -1.7525  3.8114  1.7302
    4DOPE   C11  395   4.699   3.102  15.716  0.3249  0.1120  0.0940
    4DOPE  H11A  396   4.711   3.156  15.620 -1.3474 -2.6534 -1.8244
    4DOPE  H11B  397   4.618   3.027  15.700  1.5024 -1.0244 -0.7635
    4DOPE     P  398   4.820   2.897  15.824 -0.2257 -0.4493 -0.1717
    4DOPE   O13  399   4.759   2.939  15.957  0.1221  0.4924  0.1122
    4DOPE   O14  400   4.953   2.829  15.815  0.2467 -0.4640  0.0403
    4DOPE   O11  401   4.704   2.809  15.755 -0.2867  0.1003  0.2082
    4DOPE   O12  402   4.821   3.035  15.752 -1.0583  0.1884  0.4610
    4DOPE    C1  403   4.720   2.674  15.714  0.3088  0.1818 -0.1815
    4DOPE    HA  404   4.654   2.613  15.780  0.2598  0.5845  0.1427
    4DOPE    HB  405   4.823   2.632  15.710 -0.0485 -0.7366 -0.0894
    4DOPE    C2  406   4.657   2.638  15.575 -0.1259  0.0217  0.9319
    4DOPE    HS  407   4.646   2.528  15.569  0.3398 -0.0058  0.4988
    4DOPE   O21  408   4.741   2.678  15.466 -0.4264 -0.5337 -0.1170
    4DOPE   C21  409   4.862   2.621  15.454 -0.2859  1.0485  0.0746
    4DOPE   O22  410   4.897   2.521  15.512  0.0593  0.2951 -0.5637
    4DOPE   C22  411   4.952   2.727  15.391 -0.0577  0.1259 -0.2429
    4DOPE   H2R  412   4.995   2.773  15.482  4.3460 -1.8026 -1.0638
    4DOPE   H2S  413   4.887   2.798  15.336  1.7599  0.3601 -2.2412
    4DOPE    C3  414   4.517   2.704  15.554  0.1863  0.0509  0.5959
    4DOPE    HX  415   4.534   2.814  15.565 -0.5399  0.1784  0.4964
    4DOPE    HY  416   4.445   2.673  15.633 -1.0419 -0.0824 -0.5430
    4DOPE   O31  417   4.469   2.698  15.418  0.2082  0.5748  0.1135
    4DOPE   C31  418   4.411   2.583  15.378  0.3023 -0.1017 -0.0225
    4DOPE   O32  419   4.393   2.486  15.454  0.1452  0.2193 -0.3811
    4DOPE   C32  420   4.393   2.578  15.221 -0.0755  0.8254 -1.3100
    4DOPE   H2X  421   4.293   2.619  15.195 -0.3179 -0.0209 -1.7395
    4DOPE   H2Y  422   4.481   2.636  15.184  0.8263  0.4249  0.1481
    4DOPE   C23  423   5.070   2.674  15.317  0.0134 -0.2867  0.3244
    4DOPE   H3R  424   5.133   2.603  15.376  0.2510 -1.8421 -1.7055
    4DOPE   H3S  425   5.126   2.765  15.286 -0.5439  0.6713  1.9787
    4DOPE   C24  426   5.029   2.609  15.178  0.0734 -0.0305 -0.3056
    4DOPE   H4R  427   4.954   2.532  15.206 -0.2325  0.8692  1.5328
    4DOPE   H4S  428   5.117   2.571  15.122 -0.1746 -0.1715 -0.6027
    4DOPE   C25  429   4.963   2.715  15.087 -0.7678 -0.0447  0.1626
    4DOPE   H5R  430   5.029   2.804  15.082 -0.4107 -0.3577 -1.2211
    4DOPE   H5S  431   4.869   2.743  15.139 -0.6711 -1.1319  0.9600
    4DOPE   C26  432   4.930   2.659  14.945 -0.2715  0.1181 -0.3782
    4DOPE   H6R  433   5.011   2.605  14.892  1.5054 -1.2346  3.3655
    4DOPE   H6S  434   4.885   2.737  14.880 -1.6562 -1.2403 -1.0969
    4DOPE   C27  435   4.813   2.565  14.950 -0.5937 -0.0640 -0.3905
    4DOPE   H7R  436   4.725   2.630  14.967 -2.1259 -1.8490 -1.1689
    4DOPE   H7S  437   4.816   2.491  15.033  1.7578 -1.2618 -1.4124
    4DOPE   C28  438   4.786   2.478  14.822 -1.0283  0.0899  0.2599
    4DOPE   H8R  439   4.770   2.529  14.725  2.4517 -0.5385 -0.7871
    4DOPE   H8S  440   4.692   2.420  14.837 -2.4766  2.6283  1.6954
    4DOPE   C29  441   4.890   2.366  14.800 -0.5555  0.9412  0.4831
    4DOPE   H9R  442   4.890   2.283  14.873  2.5108  0.5901  0.2510
    4DOPE  C210  443   4.961   2.340  14.685  0.0697 -0.1264 -0.1554
    4DOPE  H10R  444   5.026   2.252  14.681  0.2471 -0.0320  0.5333
    4DOPE  C211  445   4.974   2.446  14.575  0.8061  0.5061 -0.9995
    4DOPE  H11R  446   5.005   2.548  14.607 -0.3329  0.7494 -0.6316
    4DOPE  H11S  447   4.876   2.463  14.526  0.3359  0.9049  0.0621
    4DOPE  C212  448   5.065   2.389  14.458  0.8033 -0.1560  0.0045
    4DOPE  H12R  449   5.021   2.293  14.425  0.1428 -0.3832  1.4517
    4DOPE  H12S  450   5.162   2.345  14.489  0.4384 -0.8818  0.1509
    4DOPE  C213  451   5.084   2.493  14.353 -0.1040 -0.0606 -0.4329
    4DOPE  H13R  452   5.150   2.573  14.394 -2.8462  1.5411  1.1582
    4DOPE  H13S  453   4.981   2.522  14.323 -0.5565 -0.1559  0.9513
    4DOPE  C214  454   5.140   2.445  14.216  0.0445  0.3848 -0.8074
    4DOPE  H14R  455   5.140   2.538  14.156  1.5581 -0.5611 -2.3655
    4DOPE  H14S  456   5.067   2.366  14.186 -0.4607  0.6719 -0.3630
    4DOPE  C215  457   5.278   2.381  14.218  0.2772  0.2945  0.4604
    4DOPE  H15R  458   5.286   2.293  14.286  0.4455 -0.0444  0.0016
    4DOPE  H15S  459   5.342   2.463  14.257  2.4928 -1.8804  1.6697
    4DOPE  C216  460   5.331   2.352  14.084 -0.1872 -0.5687  0.1094
    4DOPE  H16R  461   5.296   2.419  14.002 -0.9435 -1.4185 -0.2759
    4DOPE  H16S  462   5.293   2.249  14.065  2.4427 -1.4987 -0.5375
    4DOPE  C217  463   5.484   2.335  14.090  0.3244  0.4970 -0.0123
    4DOPE  H17R  464   5.512   2.254  14.160 -1.6007 -1.9485 -1.8454
    4DOPE  H17S  465   5.517   2.422  14.150  0.4340 -0.4733  1.3763
    4DOPE  C218  466   5.546   2.317  13.953  0.2133  0.7934 -0.1409
    4DOPE  H18R  467   5.649   2.282  13.977 -0.4919  0.0564  2.0150
    4DOPE  H18S  468   5.557   2.417  13.904  3.3816  1.4607  1.6423
    4DOPE  H18T  469   5.485   2.250  13.889  0.5075 -0.5683  0.9558
    4DOPE   C33  470   4.377   2.433  15.158 -0.0209  0.2604  0.2744
    4DOPE   H3X  471   4.339   2.449  15.055  3.0876 -1.5393 -1.2962
    4DOPE   H3Y  472   4.312   2.355  15.202  0.8903 -1.1263 -0.7300
    4DOPE   C34  473   4.515   2.369  15.132 -0.1060  0.4292 -0.4863
    4DOPE   H4X  474   4.511   2.282  15.062  2.5764 -0.6630  0.5674
    4DOPE   H4Y  475   4.581   2.444  15.083 -2.0082  1.6601 -1.2909
    4DOPE   C35  476   4.589   2.318  15.262 -0.2756  0.2383 -0.4424
    4DOPE   H5X  477   4.514   2.256  15.315 -0.0502 -1.0451 -1.5650
    4DOPE   H5Y  478   4.610   2.413  15.315 -1.6185  1.1608 -1.4698
    4DOPE   C36  479   4.712   2.232  15.230  0.3007  1.1357  0.4065
    4DOPE   H6X  480   4.772   2.197  15.317 -0.7301 -0.7714  0.3997
    4DOPE   H6Y  481   4.769   2.295  15.157  0.6467 -1.3561 -1.6097
    4DOPE   C37  482   4.673   2.095  15.153 -0.1695  0.1201 -0.2179
    4DOPE   H7X  483   4.591   2.104  15.079  1.0807  1.7600 -1.4597
    4DOPE   H7Y  484   4.757   2.050  15.095 -1.6120 -3.4072  0.1400
    4DOPE   C38  485   4.618   1.980  15.237 -0.6511  0.5589 -0.4622
    4DOPE   H8X  486   4.537   1.925  15.186 -2.7466  0.8458  2.3156
    4DOPE   H8Y  487   4.556   2.024  15.318  0.2278  0.5089  0.2658
    4DOPE   C39  488   4.713   1.878  15.294 -0.4551  0.9563  0.2771
    4DOPE   H9X  489   4.750   1.889  15.397  1.1653 -1.9013  0.1153
    4DOPE  C310  490   4.748   1.763  15.231  0.2341 -0.2906 -0.2397
    4DOPE  H10X  491   4.816   1.687  15.271  2.3874  1.9337  0.5532
    4DOPE  C311  492   4.703   1.725  15.085 -0.2515  0.4148 -0.8762
    4DOPE  H11X  493   4.630   1.797  15.040 -2.2724 -1.3391 -0.5390
    4DOPE  H11Y  494   4.789   1.731  15.015 -1.6430  3.0253 -2.5548
    4DOPE  C312  495   4.634   1.585  15.087 -0.6630  0.1243  0.1309
    4DOPE  H12X  496   4.707   1.503  15.106 -0.0847  0.9155  1.4550
    4DOPE  H12Y  497   4.605   1.569  14.981 -0.7921  0.3915  0.1256
    4DOPE  C313  498   4.510   1.544  15.162 -0.4692  0.6560  0.4402
    4DOPE  H13X  499   4.470   1.453  15.113 -0.0851  1.2552 -1.0470
    4DOPE  H13Y  500   4.531   1.523  15.269  0.3788 -0.8527  0.0194
    4DOPE  C314  501   4.408   1.649  15.151 -0.2931  0.1095 -0.6958
    4DOPE  H14X  502   4.394   1.674  15.044 -2.2760 -0.8255 -0.7014
    4DOPE  H14Y  503   4.434   1.744  15.202 -0.4090 -0.8562  1.2497
    4DOPE  C315  504   4.269   1.599  15.199  0.3850  0.9113  0.0540
    4DOPE  H15X  505   4.272   1.592  15.309 -0.6186  3.6782  0.3428
    4DOPE  H15Y  506   4.250   1.499  15.155  1.0268  0.3205  1.0788
    4DOPE  C316  507   4.161   1.697  15.149  0.4024  0.5573 -0.7567
    4DOPE  H16X  508   4.139   1.697  15.040 -1.3341 -2.2268 -0.5196
    4DOPE  H16Y  509   4.191   1.800  15.178  1.0329 -0.0477  0.8905
    4DOPE  C317  510   4.022   1.666  15.221  0.0331 -0.4622 -0.9419
    4DOPE  H17X  511   4.036   1.659  15.331 -0.4585 -0.9539 -0.9013
    4DOPE  H17Y  512   3.947   1.748  15.212  0.7051  0.1018 -1.5215
    4DOPE  C318  513   3.954   1.539  15.178  0.6501 -0.0677  1.0263
    4DOPE  H18X  514   3.958   1.542  15.067 -0.8845  0.1756  0.9542
    4DOPE  H18Y  515   4.001   1.446  15.214 -1.4015 -1.9940 -0.9805
    4DOPE  H18Z  516   3.848   1.533  15.210 -0.5753 -0.5628 -2.6605
    5DOPE     N  517   2.137   4.868  16.135 -0.1165  0.4754  0.3916
    5DOPE   HN1  518   2.122   4.895  16.234 -0.8625 -0.3865  0.5205
    5DOPE   HN2  519   2.090   4.936  16.072  2.8440  3.2342  0.8708
    5DOPE   HN3  520   2.089   4.777  16.121  1.1703 -0.2126  0.2599
    5DOPE   C12  521   2.283   4.861  16.089  0.2106  0.0578  0.2809
    5DOPE  H12A  522   2.347   4.797  16.153 -1.2475 -1.9062 -0.1370
    5DOPE  H12B  523   2.306   4.969  16.100  0.5390  0.0339 -0.1786
    5DOPE   C11  524   2.301   4.808  15.945  0.2046  0.4938  0.2178
    5DOPE  H11A  525   2.407   4.812  15.913  0.0831  0.8873 -0.1417
    5DOPE  H11B  526   2.250   4.879  15.876 -0.1647  2.0225  1.9709
    5DOPE     P  527   2.163   4.632  15.806  0.2637  0.1111  0.0679
    5DOPE   O13  528   2.037   4.707  15.821  0.0758  0.0608  0.0970
    5DOPE   O14  529   2.140   4.485  15.797  0.5428  0.5785  0.4450
    5DOPE   O11  530   2.246   4.687  15.689 -0.1190  0.5684  0.1685
    5DOPE   O12  531   2.252   4.668  15.932  0.3783 -0.0930  0.0752
    5DOPE    C1  532   2.386   4.644  15.675  0.6267 -0.0633 -0.0793
    5DOPE    HA  533   2.424   4.582  15.759 -0.5060 -0.2586  0.3145
    5DOPE    HB  534   2.443   4.739  15.674  0.5138  0.1100  2.5712
    5DOPE    C2  535   2.411   4.579  15.544 -0.0382  0.2330  0.7610
    5DOPE    HS  536   2.515   4.542  15.554 -0.3721 -1.2677 -0.7810
    5DOPE   O21  537   2.397   4.669  15.433  0.0049  0.0395  0.0159
    5DOPE   C21  538   2.495   4.756  15.415 -0.1006  0.4386  0.3718
    5DOPE   O22  539   2.603   4.757  15.479 -0.0155 -0.1620 -0.4410
    5DOPE   C22  540   2.470   4.824  15.277 -0.0475  0.1094 -0.0210
    5DOPE   H2R  541   2.363   4.852  15.278 -0.8674 -2.5759  2.8016
    5DOPE   H2S  542   2.490   4.743  15.204  1.2454 -0.0591  0.4885
    5DOPE    C3  543   2.321   4.450  15.517 -0.8603 -0.3944  0.3523
    5DOPE    HX  544   2.224   4.504  15.509 -0.1364  0.8470 -0.5804
    5DOPE    HY  545   2.324   4.379  15.602  0.1261 -1.7225 -0.7477
    5DOPE   O31  546   2.358   4.395  15.392 -0.3841  0.0641 -0.5091
    5DOPE   C31  547   2.352   4.264  15.384  0.1630 -0.1551 -0.7235
    5DOPE   O32  548   2.336   4.190  15.480 -0.1794 -0.3704 -0.2827
    5DOPE   C32  549   2.396   4.215  15.247 -0.2549 -0.7075  0.5509
    5DOPE   H2X  550   2.400   4.303  15.179  1.8266 -1.9607 -1.0511
    5DOPE   H2Y  551   2.504   4.190  15.249  0.4491  2.0047 -0.3541
    5DOPE   C23  552   2.569   4.946  15.259 -0.3086 -0.1539 -0.2376
    5DOPE   H3R  553   2.669   4.903  15.237 -0.4444 -0.2050 -0.7745
    5DOPE   H3S  554   2.574   5.005  15.353 -1.2048 -3.9366  2.3934
    5DOPE   C24  555   2.529   5.029  15.143 -0.1215  0.8070  0.2504
    5DOPE   H4R  556   2.548   4.954  15.064  1.1632  1.6225 -0.2557
    5DOPE   H4S  557   2.602   5.113  15.137  1.8995 -0.9051 -0.3228
    5DOPE   C25  558   2.388   5.078  15.125 -0.2998  0.2753  0.0545
    5DOPE   H5R  559   2.360   5.154  15.202  1.3041  0.6748  0.2743
    5DOPE   H5S  560   2.311   4.997  15.130 -0.8771  0.5680 -2.6923
    5DOPE   C26  561   2.352   5.160  14.998  0.0923  0.3776 -0.3444
    5DOPE   H6R  562   2.426   5.138  14.918  0.0367 -0.2030 -0.2360
    5DOPE   H6S  563   2.382   5.264  15.024  1.3704 -0.0069 -0.2005
    5DOPE   C27  564   2.211   5.139  14.946  0.2408 -0.4000  0.1994
    5DOPE   H7R  565   2.144   5.192  15.017 -1.6719 -0.8576 -1.1878
    5DOPE   H7S  566   2.203   5.029  14.957 -0.8182 -0.2050  1.6901
    5DOPE   C28  567   2.189   5.185  14.806  0.2769  0.3995  0.0411
    5DOPE   H8R  568   2.262   5.137  14.738  0.0313  1.9429 -1.3741
    5DOPE   H8S  569   2.214   5.292  14.788  1.1546  0.2838  0.5246
    5DOPE   C29  570   2.043   5.155  14.774  0.0156  0.0383 -0.2566
    5DOPE   H9R  571   1.975   5.132  14.856 -2.5274  1.7258 -1.7555
    5DOPE  C210  572   1.985   5.185  14.659 -0.1251 -0.5940  1.0442
    5DOPE  H10R  573   1.890   5.137  14.633  1.1033 -1.5217 -2.1512
    5DOPE  C211  574   2.058   5.242  14.545  0.5134 -0.2613 -0.1105
    5DOPE  H11R  575   2.158   5.284  14.570  0.4473  1.0267 -1.8968
    5DOPE  H11S  576   2.002   5.325  14.497  1.9979  1.0570  0.3441
    5DOPE  C212  577   2.077   5.131  14.439  0.5591 -0.5954 -0.2798
    5DOPE  H12R  578   1.986   5.100  14.383 -0.8390 -0.2219  1.6758
    5DOPE  H12S  579   2.132   5.042  14.477 -0.8988 -1.6435 -0.5410
    5DOPE  C213  580   2.156   5.193  14.322  0.1529  0.1469 -0.0881
    5DOPE  H13R  581   2.256   5.218  14.364  0.6121  0.6882 -1.4184
    5DOPE  H13S  582   2.105   5.283  14.281 -1.9536 -0.8876  0.1361
    5DOPE  C214  583   2.176   5.091  14.208 -0.5946  0.1882 -0.1717
    5DOPE  H14R  584   2.239   5.136  14.129 -1.1423  0.2285 -0.5892
    5DOPE  H14S  585   2.082   5.085  14.149 -0.6475  0.1516 -0.0841
    5DOPE  C215  586   2.241   4.960  14.246 -0.1155 -0.1237  0.1212
    5DOPE  H15R  587   2.163   4.890  14.282  0.0773  0.3074  1.4466
    5DOPE  H15S  588   2.309   4.965  14.334  0.7868 -3.5569 -0.2515
    5DOPE  C216  589   2.322   4.904  14.128  0.6245  0.1380 -0.4402
    5DOPE  H16R  590   2.389   4.825  14.168 -0.2053 -0.7061 -0.6455
    5DOPE  H16S  591   2.396   4.977  14.089  1.4898 -0.9728 -0.9391
    5DOPE  C217  592   2.237   4.850  14.014  0.0132  0.3452  0.2816
    5DOPE  H17R  593   2.191   4.937  13.962  1.2889  0.9077  0.0690
    5DOPE  H17S  594   2.151   4.791  14.052 -1.3512  1.4470 -0.9264
    5DOPE  C218  595   2.322   4.771  13.907  0.5360  0.3834 -0.3128
    5DOPE  H18R  596   2.399   4.835  13.859  0.0358  0.9640 -0.3535
    5DOPE  H18S  597   2.258   4.730  13.825  1.3745  1.3102 -1.4676
    5DOPE  H18T  598   2.363   4.682  13.958 -3.0560 -1.0308  0.4298
    5DOPE   C33  599   2.304   4.107  15.197  0.4001  0.4566  0.1773
    5DOPE   H3X  600   2.319   4.097  15.087  1.3121 -1.6008  0.4557
    5DOPE   H3Y  601   2.197   4.128  15.218 -0.1839 -0.9694 -1.2152
    5DOPE   C34  602   2.329   3.961  15.240 -0.1405 -0.4999 -0.6015
    5DOPE   H4X  603   2.416   3.928  15.179 -0.0913 -0.1023 -0.7502
    5DOPE   H4Y  604   2.350   3.959  15.349  3.0017  0.5375 -1.0930
    5DOPE   C35  605   2.209   3.877  15.209  0.0783  0.1588  0.1767
    5DOPE   H5X  606   2.117   3.913  15.260 -0.4642  0.1272 -0.7579
    5DOPE   H5Y  607   2.236   3.771  15.230 -0.2389 -0.0901 -0.6214
    5DOPE   C36  608   2.170   3.871  15.060 -0.9341  0.0567 -0.8244
    5DOPE   H6X  609   2.250   3.844  14.988  0.2808 -1.0357  0.8698
    5DOPE   H6Y  610   2.124   3.970  15.036 -1.2466 -0.3985 -2.1623
    5DOPE   C37  611   2.055   3.770  15.037  0.4474  0.3944  0.0172
    5DOPE   H7X  612   2.093   3.667  15.053  0.9973  0.7106  0.8589
    5DOPE   H7Y  613   1.980   3.794  15.115 -0.8176 -0.2206 -0.9658
    5DOPE   C38  614   1.995   3.787  14.900 -0.8240 -0.3225  0.6299
    5DOPE   H8X  615   2.079   3.755  14.834 -0.3839  1.1207  0.4622
    5DOPE   H8Y  616   1.972   3.892  14.873  0.8680 -0.7190 -2.7979
    5DOPE   C39  617   1.881   3.693  14.889  0.3727 -0.2757 -0.5877
    5DOPE   H9X  618   1.802   3.715  14.962 -1.9520 -0.0987 -2.9738
    5DOPE  C310  619   1.882   3.568  14.833 -0.4086  0.6960  0.1219
    5DOPE  H10X  620   1.784   3.519  14.835  0.1909 -0.6401 -1.1459
    5DOPE  C311  621   1.995   3.494  14.761 -0.3205 -0.4390 -0.2589
    5DOPE  H11X  622   2.074   3.562  14.723  0.1577 -1.5257 -1.2756
    5DOPE  H11Y  623   2.049   3.430  14.835 -1.4858 -0.2660  0.7823
    5DOPE  C312  624   1.935   3.406  14.649  0.0237 -0.3460 -0.2024
    5DOPE  H12X  625   1.873   3.323  14.689 -1.5194  0.3297 -1.0880
    5DOPE  H12Y  626   2.021   3.366  14.591  1.5245  1.3570  0.7477
    5DOPE  C313  627   1.851   3.493  14.549  0.3508  0.5585  0.4230
    5DOPE  H13X  628   1.780   3.560  14.602  1.5839  2.7096 -0.4851
    5DOPE  H13Y  629   1.924   3.555  14.493 -0.3093  0.7225 -0.2708
    5DOPE  C314  630   1.776   3.404  14.456  0.5497 -0.5002 -0.1392
    5DOPE  H14X  631   1.706   3.467  14.396 -0.4073 -0.5130  0.9286
    5DOPE  H14Y  632   1.710   3.343  14.521 -0.2550  0.5348  0.0519
    5DOPE  C315  633   1.855   3.305  14.357 -0.4823 -0.0489  0.4762
    5DOPE  H15X  634   1.933   3.247  14.410 -0.9207 -0.1637  1.0100
    5DOPE  H15Y  635   1.915   3.366  14.286  1.8726  0.6135  2.8681
    5DOPE  C316  636   1.752   3.222  14.276 -0.0427 -0.3580  0.4831
    5DOPE  H16X  637   1.687   3.281  14.207 -2.6080 -1.8362  1.4887
    5DOPE  H16Y  638   1.683   3.185  14.355  1.3534 -1.7042  1.1292
    5DOPE  C317  639   1.830   3.112  14.206  0.4385  0.6508  0.9468
    5DOPE  H17X  640   1.899   3.052  14.269  0.6650 -1.1452 -0.9110
    5DOPE  H17Y  641   1.753   3.035  14.183  1.3340 -0.5517  1.8659
    5DOPE  C318  642   1.903   3.163  14.078  0.2228  0.6454  0.2473
    5DOPE  H18X  643   1.961   3.082  14.029 -0.4757  0.7661 -0.7889
    5DOPE  H18Y  644   1.828   3.180  13.999  1.2023  0.1650 -0.8161
    5DOPE  H18Z  645   1.966   3.252  14.099  1.9951 -0.0603 -1.7113
    6DOPE     N  646   0.936   6.256  15.858 -0.1932  0.7911  0.5035
    6DOPE   HN1  647   0.952   6.237  15.959  2.2251 -0.8249 -0.0974
    6DOPE   HN2  648   0.869   6.192  15.810  0.9271  0.1322 -0.2175
    6DOPE   HN3  649   1.029   6.246  15.813 -0.4954  0.7549 -0.1229
    6DOPE   C12  650   0.911   6.399  15.837  0.2286  0.0824  0.1517
    6DOPE  H12A  651   0.974   6.460  15.905 -0.1573 -0.3700  0.9364
    6DOPE  H12B  652   0.804   6.421  15.855  0.0268 -0.2663 -0.5646
    6DOPE   C11  653   0.944   6.434  15.694 -0.0297  0.6125 -0.0023
    6DOPE  H11A  654   0.957   6.544  15.693 -0.0948  0.6410 -1.5767
    6DOPE  H11B  655   0.859   6.411  15.625  0.7422 -1.3324 -0.3788
    6DOPE     P  656   1.166   6.424  15.562  0.1343 -0.1629  0.3842
    6DOPE   O13  657   1.277   6.331  15.530 -0.1308 -0.3007 -0.6251
    6DOPE   O14  658   1.199   6.562  15.602 -0.1780 -0.1852 -0.3154
    6DOPE   O11  659   1.090   6.453  15.425  0.1160 -0.3036  0.0885
    6DOPE   O12  660   1.065   6.357  15.654 -0.2338  0.3518 -0.1164
    6DOPE    C1  661   0.971   6.384  15.372 -0.5748  0.0323  0.5401
    6DOPE    HA  662   0.955   6.424  15.270  0.9069 -0.6430  0.0142
    6DOPE    HB  663   0.884   6.392  15.441 -1.5870 -2.0300 -0.3927
    6DOPE    C2  664   0.985   6.228  15.353  0.0173  0.2041 -0.7312
    6DOPE    HS  665   1.031   6.185  15.445 -2.3011  3.4726  2.2654
    6DOPE   O21  666   1.060   6.211  15.233 -0.3111  0.4805 -0.0937
    6DOPE   C21  667   1.113   6.078  15.227  0.1528  0.2095 -0.8027
    6DOPE   O22  668   1.105   6.001  15.323 -0.0697  0.0016 -0.3924
    6DOPE   C22  669   1.171   6.055  15.094  0.1164  0.2583  0.5006
    6DOPE   H2R  670   1.221   6.147  15.058 -0.4239  0.2803 -0.2224
    6DOPE   H2S  671   1.084   6.031  15.029 -0.7943 -0.4470  1.9219
    6DOPE    C3  672   0.850   6.160  15.336  0.7526  0.7712  0.2395
    6DOPE    HX  673   0.800   6.169  15.434  0.8613  5.4274  0.0662
    6DOPE    HY  674   0.866   6.050  15.326  0.1513  0.7726 -1.0215
    6DOPE   O31  675   0.766   6.225  15.233  0.1593 -0.3212 -0.0524
    6DOPE   C31  676   0.791   6.190  15.105 -0.4617  0.2674 -0.5418
    6DOPE   O32  677   0.858   6.097  15.073 -0.1510  0.0239  0.3172
    6DOPE   C32  678   0.705   6.264  15.008 -0.2249  0.5062  0.1683
    6DOPE   H2X  679   0.679   6.186  14.934  1.5686  0.7473 -0.7747
    6DOPE   H2Y  680   0.610   6.302  15.053 -1.8699 -0.5735 -2.2327
    6DOPE   C23  681   1.269   5.934  15.082 -0.6069 -0.3881  0.1561
    6DOPE   H3R  682   1.210   5.855  15.031 -0.1769  1.6746 -3.9830
    6DOPE   H3S  683   1.293   5.897  15.184 -2.1500  2.0326  1.4980
    6DOPE   C24  684   1.386   5.973  14.991 -0.4318 -0.1738 -0.1077
    6DOPE   H4R  685   1.431   5.873  14.973  0.5365  0.1836  0.3186
    6DOPE   H4S  686   1.458   6.046  15.032 -0.1030  0.2582 -1.3978
    6DOPE   C25  687   1.342   6.027  14.854 -0.0850  0.4595  0.2854
    6DOPE   H5R  688   1.352   6.137  14.856 -2.8449  0.7783  1.8926
    6DOPE   H5S  689   1.237   6.004  14.826  0.2900  1.6590 -2.4201
    6DOPE   C26  690   1.427   5.969  14.743  0.3535 -0.4357  0.8375
    6DOPE   H6R  691   1.396   6.010  14.645 -0.1630  1.2924  1.6832
    6DOPE   H6S  692   1.395   5.862  14.737 -1.1145  0.0110  0.2350
    6DOPE   C27  693   1.577   5.981  14.751 -0.6876 -0.6869  0.1343
    6DOPE   H7R  694   1.611   5.907  14.827 -0.4640 -0.7212  0.0005
    6DOPE   H7S  695   1.611   6.079  14.791  0.1147 -1.7395  2.2106
    6DOPE   C28  696   1.663   5.944  14.629  0.4616 -0.7779 -0.1183
    6DOPE   H8R  697   1.628   5.852  14.578  0.3390  0.4036 -2.2604
    6DOPE   H8S  698   1.772   5.938  14.650  0.6912  2.3357  0.1063
    6DOPE   C29  699   1.638   6.032  14.508 -0.9045  0.7837 -0.1151
    6DOPE   H9R  700   1.537   6.023  14.468 -0.3182 -0.2331 -1.4331
    6DOPE  C210  701   1.721   6.130  14.461 -0.4489  0.6767  0.5498
    6DOPE  H10R  702   1.678   6.177  14.371 -0.6490 -1.1956 -0.3810
    6DOPE  C211  703   1.853   6.174  14.516  0.5116  0.6374 -0.1093
    6DOPE  H11R  704   1.858   6.131  14.619  1.1148 -0.1120 -0.4412
    6DOPE  H11S  705   1.865   6.282  14.537 -2.3749  1.1959 -0.8670
    6DOPE  C212  706   1.971   6.131  14.433 -0.5603 -0.4636 -0.2498
    6DOPE  H12R  707   1.965   6.020  14.425  0.2043 -0.4750 -0.7167
    6DOPE  H12S  708   2.066   6.147  14.488 -0.8171  0.5349 -0.0812
    6DOPE  C213  709   1.980   6.193  14.301  0.3554 -0.0842 -0.0265
    6DOPE  H13R  710   1.977   6.304  14.310 -2.3005  0.0145 -1.0661
    6DOPE  H13S  711   1.891   6.167  14.239  1.0902  0.2383 -1.2517
    6DOPE  C214  712   2.103   6.148  14.223 -0.0660  0.3658 -0.2488
    6DOPE  H14R  713   2.072   6.150  14.116  0.7707 -1.5523 -0.5672
    6DOPE  H14S  714   2.130   6.041  14.235  3.4083  1.0998 -0.5398
    6DOPE  C215  715   2.217   6.241  14.258  0.0592  0.4024  0.6884
    6DOPE  H15R  716   2.230   6.253  14.368  0.4252  0.5516  0.6305
    6DOPE  H15S  717   2.190   6.342  14.221 -0.7176  0.0450  0.2546
    6DOPE  C216  718   2.345   6.185  14.192 -0.3481  0.2048  0.0470
    6DOPE  H16R  719   2.327   6.140  14.092  0.3283 -0.4065  0.1973
    6DOPE  H16S  720   2.381   6.107  14.263  0.7438  0.0910 -0.6118
    6DOPE  C217  721   2.464   6.283  14.166 -0.0573  0.4097 -0.1747
    6DOPE  H17R  722   2.536   6.226  14.104  1.6763 -0.0446  2.1392
    6DOPE  H17S  723   2.516   6.319  14.257  1.3121 -2.3311  0.2419
    6DOPE  C218  724   2.419   6.418  14.100 -0.2502  0.3740 -0.3862
    6DOPE  H18R  725   2.380   6.398  13.997 -0.2036  1.0023 -0.5279
    6DOPE  H18S  726   2.504   6.486  14.082  0.7174  0.1868  2.9437
    6DOPE  H18T  727   2.349   6.473  14.166 -0.2656 -0.1660  0.0618
    6DOPE   C33  728   0.779   6.386  14.942 -0.4030 -0.0894 -0.1034
    6DOPE   H3X  729   0.737   6.411  14.842 -0.3752  2.2021  0.4051
    6DOPE   H3Y  730   0.887   6.367  14.923 -0.6038  0.3517 -1.8843
    6DOPE   C34  731   0.756   6.515  15.008  0.0326 -0.9159  0.2504
    6DOPE   H4X  732   0.647   6.537  15.015  0.1495 -0.6605  1.3508
    6DOPE   H4Y  733   0.785   6.513  15.115 -0.2143 -1.6992  0.3029
    6DOPE   C35  734   0.823   6.641  14.945 -0.6868  0.6024  0.3742
    6DOPE   H5X  735   0.933   6.630  14.932 -0.4349  2.6952  0.3316
    6DOPE   H5Y  736   0.795   6.734  15.000 -1.9026  0.0334  0.7476
    6DOPE   C36  737   0.771   6.664  14.796 -0.0401 -0.9187 -0.2093
    6DOPE   H6X  738   0.663   6.690  14.801  0.8971  4.5514 -1.7079
    6DOPE   H6Y  739   0.781   6.576  14.730  0.5240  0.0872 -1.5198
    6DOPE   C37  740   0.840   6.783  14.728 -0.5056  0.2145 -0.0280
    6DOPE   H7X  741   0.825   6.879  14.782  0.1065  0.4843 -0.3202
    6DOPE   H7Y  742   0.949   6.760  14.719 -0.3481  0.1660  1.6147
    6DOPE   C38  743   0.780   6.803  14.588 -0.0242  1.3311  1.1412
    6DOPE   H8X  744   0.672   6.807  14.612 -0.2413  0.5155  0.3520
    6DOPE   H8Y  745   0.798   6.707  14.535 -0.9713  0.2594  2.7040
    6DOPE   C39  746   0.831   6.924  14.520  0.3231  0.0451 -0.5077
    6DOPE   H9X  747   0.816   7.019  14.572 -0.8216 -1.1017  1.3718
    6DOPE  C310  748   0.912   6.928  14.411 -0.2515  0.8896 -0.1833
    6DOPE  H10X  749   0.946   7.024  14.368  0.4391 -0.0739 -1.8833
    6DOPE  C311  750   0.985   6.807  14.352  0.8771  0.6704  0.0867
    6DOPE  H11X  751   1.006   6.734  14.433 -1.6529  0.0815  0.3063
    6DOPE  H11Y  752   0.917   6.764  14.275  1.0996  0.7600 -0.1599
    6DOPE  C312  753   1.117   6.843  14.287  0.5892  0.2132  0.2415
    6DOPE  H12X  754   1.202   6.873  14.352  1.5666 -1.0392 -0.4177
    6DOPE  H12Y  755   1.098   6.919  14.207  0.2638  1.4292  1.4355
    6DOPE  C313  756   1.163   6.719  14.204  0.2291 -0.4067 -0.0878
    6DOPE  H13X  757   1.210   6.646  14.274  3.8116  1.2743 -0.5688
    6DOPE  H13Y  758   1.067   6.686  14.158  0.0912 -2.2732  1.4116
    6DOPE  C314  759   1.262   6.752  14.097 -0.8465  0.2454 -0.1235
    6DOPE  H14X  760   1.347   6.818  14.124 -0.7190 -0.0053  0.0921
    6DOPE  H14Y  761   1.206   6.812  14.022 -1.8758 -1.3821 -0.7105
    6DOPE  C315  762   1.332   6.635  14.035 -0.3491  0.1134 -0.4056
    6DOPE  H15X  763   1.269   6.587  13.957  1.4269 -1.7674 -0.7804
    6DOPE  H15Y  764   1.349   6.564  14.119 -1.6192  0.8349  0.4975
    6DOPE  C316  765   1.468   6.663  13.965  0.7324  0.0239  0.0087
    6DOPE  H16X  766   1.516   6.563  13.957 -1.5199 -1.2526  1.3942
    6DOPE  H16Y  767   1.523   6.727  14.037 -0.5003  1.5046 -0.3113
    6DOPE  C317  768   1.449   6.718  13.818  0.8359  0.0125  0.2399
    6DOPE  H17X  769   1.539   6.701  13.754  0.4257  0.4012 -0.4483
    6DOPE  H17Y  770   1.368   6.655  13.776  2.3189 -1.9070  0.1068
    6DOPE  C318  771   1.417   6.872  13.803 -0.2909  0.2851 -0.2034
    6DOPE  H18X  772   1.336   6.905  13.872  0.6663  2.6301 -0.0953
    6DOPE  H18Y  773   1.506   6.935  13.822  0.1156 -0.9456  2.5015
    6DOPE  H18Z  774   1.375   6.883  13.701 -0.7639  2.0055  0.1400
    7DOPE     N  775   4.353   7.892  16.436  0.0582 -0.8634 -0.8136
    7DOPE   HN1  776   4.257   7.861  16.462  0.9006 -1.4118  1.9961
    7DOPE   HN2  777   4.393   7.805  16.396  0.5193 -1.7168  1.3683
    7DOPE   HN3  778   4.395   7.923  16.526 -0.5382  1.8997 -1.3775
    7DOPE   C12  779   4.364   7.994  16.333  0.2014  0.3415 -0.0528
    7DOPE  H12A  780   4.472   8.015  16.315  0.6067 -1.4665  0.0020
    7DOPE  H12B  781   4.320   8.092  16.362 -0.8318 -0.5145  1.4039
    7DOPE   C11  782   4.305   7.949  16.192  0.3630 -0.0093 -0.0682
    7DOPE  H11A  783   4.388   7.891  16.146 -0.5951 -1.7635  0.3179
    7DOPE  H11B  784   4.277   8.037  16.130 -1.3425 -0.7531 -0.3930
    7DOPE     P  785   4.190   7.716  16.188 -0.4216  0.2139  0.3571
    7DOPE   O13  786   4.060   7.659  16.185  0.4433  0.3399 -0.1918
    7DOPE   O14  787   4.281   7.671  16.292 -0.5529 -0.1013  1.0780
    7DOPE   O11  788   4.253   7.683  16.044 -0.2819 -0.4067  0.8165
    7DOPE   O12  789   4.178   7.876  16.202  0.4634  0.1305 -0.3235
    7DOPE    C1  790   4.318   7.556  16.020  0.5805 -0.1034  0.2360
    7DOPE    HA  791   4.292   7.519  15.919  3.3738 -0.6035 -0.3836
    7DOPE    HB  792   4.299   7.479  16.098 -1.2848 -1.0410 -1.0814
    7DOPE    C2  793   4.467   7.581  15.994  0.7721  0.9285 -0.3788
    7DOPE    HS  794   4.514   7.603  16.092 -0.8281 -1.0724  0.9322
    7DOPE   O21  795   4.485   7.682  15.898 -0.3163  0.2269  0.8493
    7DOPE   C21  796   4.566   7.784  15.931 -0.5297  0.1636  0.1100
    7DOPE   O22  797   4.628   7.785  16.036  0.6331  0.0220  0.0894
    7DOPE   C22  798   4.573   7.892  15.833  0.1486 -0.0025  0.0853
    7DOPE   H2R  799   4.674   7.940  15.826  0.5528 -0.5810  1.6145
    7DOPE   H2S  800   4.500   7.967  15.869  1.2710 -0.0537  2.6791
    7DOPE    C3  801   4.552   7.454  15.960 -0.8075  0.4668  0.1947
    7DOPE    HX  802   4.521   7.384  16.041 -2.9482  2.4838  1.2396
    7DOPE    HY  803   4.659   7.478  15.976 -0.4672 -0.1519 -1.0600
    7DOPE   O31  804   4.504   7.398  15.839 -0.2745 -0.4807 -0.5085
    7DOPE   C31  805   4.583   7.426  15.740  0.0591 -0.1343 -0.8692
    7DOPE   O32  806   4.689   7.488  15.744  0.1118  0.2749  0.0284
    7DOPE   C32  807   4.530   7.363  15.609  0.6625  0.1030 -0.9222
    7DOPE   H2X  808   4.502   7.259  15.636 -1.8497  0.8346 -0.4459
    7DOPE   H2Y  809   4.443   7.428  15.586  1.6881  1.4356 -1.1904
    7DOPE   C23  810   4.545   7.851  15.686 -0.0979  0.1186 -0.5892
    7DOPE   H3R  811   4.458   7.782  15.687  0.7348 -1.1052  3.0905
    7DOPE   H3S  812   4.624   7.791  15.636  0.4512 -1.2640  1.8137
    7DOPE   C24  813   4.497   7.971  15.605 -0.7815  0.5240 -0.0155
    7DOPE   H4R  814   4.595   8.024  15.600 -1.8130  2.5678  0.2012
    7DOPE   H4S  815   4.432   8.044  15.658  3.1429  3.5242  1.1783
    7DOPE   C25  816   4.461   7.932  15.460  0.4564 -0.0142  0.3640
    7DOPE   H5R  817   4.354   7.953  15.443  0.4616 -0.8524 -0.9084
    7DOPE   H5S  818   4.465   7.820  15.460 -2.5527 -0.1989 -0.5625
    7DOPE   C26  819   4.558   7.988  15.360 -0.5912 -0.4274  0.0710
    7DOPE   H6R  820   4.554   7.926  15.268  1.3719 -1.2447  0.4829
    7DOPE   H6S  821   4.662   7.976  15.398 -0.2278  0.6813 -0.5389
    7DOPE   C27  822   4.527   8.139  15.340 -1.0143  1.0488  0.4106
    7DOPE   H7R  823   4.613   8.183  15.286 -1.1548  0.7355 -0.0768
    7DOPE   H7S  824   4.528   8.178  15.444  0.9925  0.1335  0.7907
    7DOPE   C28  825   4.405   8.180  15.265  0.3073  0.6035 -0.4940
    7DOPE   H8R  826   4.377   8.280  15.303 -0.1109  0.5329 -0.6091
    7DOPE   H8S  827   4.330   8.113  15.312  2.4153 -0.4305  1.5888
    7DOPE   C29  828   4.402   8.153  15.114 -0.1113 -0.4890 -0.1127
    7DOPE   H9R  829   4.489   8.194  15.062 -1.4719 -0.0749 -2.1672
    7DOPE  C210  830   4.292   8.117  15.048 -0.1548  0.1200  0.1306
    7DOPE  H10R  831   4.293   8.102  14.939  0.4327  0.5576  0.0702
    7DOPE  C211  832   4.158   8.080  15.106 -0.4219  0.4823  0.0098
    7DOPE  H11R  833   4.082   8.150  15.063  1.5964  2.1682 -1.0131
    7DOPE  H11S  834   4.146   8.090  15.217 -3.0948  0.6301 -0.2319
    7DOPE  C212  835   4.118   7.941  15.052  0.3663  0.1848 -0.6326
    7DOPE  H12R  836   4.111   7.949  14.942 -2.3883 -0.5697 -0.5867
    7DOPE  H12S  837   4.015   7.925  15.090  1.8135 -1.8918  2.8863
    7DOPE  C213  838   4.202   7.828  15.108 -0.4888  0.3342  0.0048
    7DOPE  H13R  839   4.309   7.858  15.103 -0.5312  0.5079  0.1515
    7DOPE  H13S  840   4.194   7.730  15.056  3.3281 -0.3477  0.3786
    7DOPE  C214  841   4.150   7.798  15.258  0.4964 -0.5896 -0.7344
    7DOPE  H14R  842   4.040   7.789  15.258  0.2286  1.7991 -2.5413
    7DOPE  H14S  843   4.179   7.872  15.336 -0.6770  1.3816 -2.1022
    7DOPE  C215  844   4.205   7.670  15.310  1.0785  0.3048 -0.5409
    7DOPE  H15R  845   4.314   7.669  15.288  0.8576 -2.7877 -1.9513
    7DOPE  H15S  846   4.172   7.593  15.238  0.2749  1.2049 -1.1664
    7DOPE  C216  847   4.175   7.626  15.447 -0.4560 -0.1809 -0.2549
    7DOPE  H16R  848   4.067   7.643  15.465 -0.6036  1.9158 -2.5528
    7DOPE  H16S  849   4.238   7.674  15.526  1.5300 -3.0322  0.0619
    7DOPE  C217  850   4.188   7.479  15.455 -0.6486  0.0605 -0.1404
    7DOPE  H17R  851   4.297   7.462  15.443 -0.3672  1.6107  0.0299
    7DOPE  H17S  852   4.132   7.422  15.377 -0.6330 -2.1138  1.3609
    7DOPE  C218  853   4.148   7.424  15.591  0.4446 -0.3291 -0.3621
    7DOPE  H18R  854   4.203   7.478  15.671  1.6929  1.9490 -2.6255
    7DOPE  H18S  855   4.165   7.314  15.603 -1.3562 -0.4226  2.2420
    7DOPE  H18T  856   4.041   7.448  15.605  0.4685 -1.0124  1.2637
    7DOPE   C33  857   4.621   7.352  15.482 -0.7194  0.0499  0.3039
    7DOPE   H3X  858   4.721   7.327  15.522 -1.8444 -1.6478  2.2953
    7DOPE   H3Y  859   4.626   7.438  15.412 -1.2862  2.3858  2.9516
    7DOPE   C34  860   4.575   7.235  15.406  0.3838  0.0871  0.4688
    7DOPE   H4X  861   4.542   7.144  15.460  0.9664 -1.4969 -1.7619
    7DOPE   H4Y  862   4.489   7.271  15.345 -0.2010 -0.6500  0.8327
    7DOPE   C35  863   4.674   7.174  15.305 -0.0170  0.0017  0.1665
    7DOPE   H5X  864   4.774   7.162  15.351  0.3610  0.9029 -0.4004
    7DOPE   H5Y  865   4.701   7.254  15.233  0.5936 -0.1732  0.1996
    7DOPE   C36  866   4.624   7.050  15.242 -0.6210  0.2997  0.6819
    7DOPE   H6X  867   4.514   7.053  15.223 -0.5333  0.7664  0.2168
    7DOPE   H6Y  868   4.639   6.964  15.311  0.7780  0.0268  0.0657
    7DOPE   C37  869   4.706   7.017  15.115 -0.4918 -0.2254 -0.6561
    7DOPE   H7X  870   4.660   7.086  15.040 -0.1589  0.8210  0.0824
    7DOPE   H7Y  871   4.813   7.045  15.125 -0.6049  0.5244 -1.4234
    7DOPE   C38  872   4.700   6.873  15.071 -0.3650 -0.5584 -0.2003
    7DOPE   H8X  873   4.711   6.817  15.167  0.4371 -0.2016 -0.0812
    7DOPE   H8Y  874   4.771   6.851  14.989  1.2358  1.9092  0.4227
    7DOPE   C39  875   4.559   6.847  15.013  0.8510  0.0420  0.7621
    7DOPE   H9X  876   4.488   6.929  15.030  0.5408 -0.0217 -0.2120
    7DOPE  C310  877   4.518   6.741  14.943 -0.4917  0.1115  0.6236
    7DOPE  H10X  878   4.416   6.736  14.903 -0.5871  2.1135  0.5494
    7DOPE  C311  879   4.602   6.615  14.921  0.0460  0.2311 -0.2184
    7DOPE  H11X  880   4.686   6.608  14.993  0.2170  5.7529  0.5881
    7DOPE  H11Y  881   4.534   6.530  14.940 -0.3891  0.3908 -1.0279
    7DOPE  C312  882   4.659   6.609  14.782  0.1044 -0.2373 -0.0974
    7DOPE  H12X  883   4.738   6.686  14.772  0.0460 -0.0769  0.5910
    7DOPE  H12Y  884   4.584   6.631  14.703  0.2912 -0.3957 -0.3205
    7DOPE  C313  885   4.713   6.468  14.749 -0.1958  0.4969  0.0995
    7DOPE  H13X  886   4.800   6.450  14.816 -0.6390 -2.5113  0.0097
    7DOPE  H13Y  887   4.636   6.392  14.772 -1.8859  1.1801 -2.8269
    7DOPE  C314  888   4.762   6.447  14.606  0.4884  0.7174  0.5863
    7DOPE  H14X  889   4.871   6.465  14.600  0.6093 -0.1727 -0.1019
    7DOPE  H14Y  890   4.710   6.518  14.540  1.2950  2.6079  1.9029
    7DOPE  C315  891   4.732   6.302  14.568 -0.4484 -0.6166  0.1607
    7DOPE  H15X  892   4.621   6.292  14.571 -0.6970  1.0112 -2.0164
    7DOPE  H15Y  893   4.782   6.238  14.645  0.3554 -0.6923 -0.4174
    7DOPE  C316  894   4.759   6.264  14.422  0.3259  0.7002 -0.1596
    7DOPE  H16X  895   4.699   6.174  14.395 -1.4725  2.1327 -1.1712
    7DOPE  H16Y  896   4.868   6.244  14.422  0.4017  1.0480  0.9662
    7DOPE  C317  897   4.718   6.357  14.312  0.0544 -0.2482 -0.5867
    7DOPE  H17X  898   4.608   6.375  14.302 -0.0289 -0.2149  0.2941
    7DOPE  H17Y  899   4.766   6.456  14.324 -0.2122 -0.2246  0.3847
    7DOPE  C318  900   4.762   6.306  14.178 -0.0441 -0.3814  0.7257
    7DOPE  H18X  901   4.759   6.198  14.153  5.7499 -0.8506  0.7173
    7DOPE  H18Y  902   4.718   6.357  14.089  3.9036 -0.4121 -1.4531
    7DOPE  H18Z  903   4.871   6.319  14.164 -0.0779 -1.3292 -0.6333
    8DOPE     N  904   7.868   7.525  16.035  0.5399 -0.6140 -0.1140
    8DOPE   HN1  905   7.832   7.435  16.072 -0.7003 -0.3897 -0.7317
    8DOPE   HN2  906   7.962   7.536  16.079  0.4179  3.2878 -0.4810
    8DOPE   HN3  907   7.810   7.608  16.060  1.5395 -0.3906  1.6139
    8DOPE   C12  908   7.870   7.537  15.882 -0.8497  0.0028 -0.0778
    8DOPE  H12A  909   7.948   7.464  15.849  0.5037  0.9060  1.0028
    8DOPE  H12B  910   7.898   7.642  15.858  0.5812  0.3026  2.5067
    8DOPE   C11  911   7.726   7.517  15.825  0.5041 -0.2333 -0.0473
    8DOPE  H11A  912   7.684   7.420  15.859  2.0185 -1.1124 -0.5641
    8DOPE  H11B  913   7.730   7.499  15.716 -1.6512 -1.7495  0.0709
    8DOPE     P  914   7.480   7.617  15.806 -0.3174  0.5540 -0.3057
    8DOPE   O13  915   7.422   7.751  15.783 -0.0569  0.6513  0.2143
    8DOPE   O14  916   7.410   7.533  15.909  0.8201 -0.0854  0.2180
    8DOPE   O11  917   7.462   7.536  15.665 -0.2267 -0.4627 -0.0477
    8DOPE   O12  918   7.633   7.622  15.843 -0.2846  0.1950  0.8697
    8DOPE    C1  919   7.465   7.614  15.547 -0.0071  0.1942 -0.0237
    8DOPE    HA  920   7.563   7.667  15.549  0.1706 -0.1038  2.0146
    8DOPE    HB  921   7.385   7.691  15.555  0.3812  0.3835  4.6248
    8DOPE    C2  922   7.434   7.542  15.403 -0.0871  0.3954 -0.3825
    8DOPE    HS  923   7.335   7.493  15.417  0.0973  0.2245  0.3899
    8DOPE   O21  924   7.534   7.449  15.364 -0.1091  0.0935  0.0052
    8DOPE   C21  925   7.490   7.354  15.280 -0.5798 -0.3762  0.0022
    8DOPE   O22  926   7.373   7.342  15.243  0.2065  0.3871 -0.9063
    8DOPE   C22  927   7.613   7.273  15.243  0.1597 -0.4396 -0.0877
    8DOPE   H2R  928   7.660   7.231  15.334  2.8990  2.0771 -0.1819
    8DOPE   H2S  929   7.680   7.348  15.195 -0.9742 -0.7934 -2.3678
    8DOPE    C3  930   7.407   7.657  15.299  0.8844  0.1034 -0.0128
    8DOPE    HX  931   7.506   7.707  15.286  1.2441 -0.5773  0.0373
    8DOPE    HY  932   7.326   7.723  15.337  0.1022 -0.4362 -0.7215
    8DOPE   O31  933   7.385   7.604  15.165  0.4254 -0.2186  0.0029
    8DOPE   C31  934   7.259   7.575  15.134 -0.5992 -0.5953  0.1260
    8DOPE   O32  935   7.164   7.582  15.211 -0.2477 -0.3552  0.3198
    8DOPE   C32  936   7.262   7.545  14.985  0.0983 -0.5941 -0.1856
    8DOPE   H2X  937   7.301   7.628  14.922 -2.2151  0.2097 -0.6449
    8DOPE   H2Y  938   7.328   7.458  14.964  1.0313  0.6891 -3.1336
    8DOPE   C23  939   7.581   7.154  15.153 -0.1846  0.4872  0.4773
    8DOPE   H3R  940   7.507   7.088  15.204 -2.0263  1.9148 -0.2411
    8DOPE   H3S  941   7.675   7.100  15.127  0.6553  2.2026 -0.1724
    8DOPE   C24  942   7.521   7.195  15.016 -0.1864  0.4840 -0.3790
    8DOPE   H4R  943   7.572   7.279  14.962 -0.0693  0.3425 -0.4905
    8DOPE   H4S  944   7.417   7.225  15.038 -0.0479  0.8860 -0.2595
    8DOPE   C25  945   7.510   7.077  14.916  0.8503 -0.3959 -0.4394
    8DOPE   H5R  946   7.429   7.018  14.963  1.4138  0.6788  2.0387
    8DOPE   H5S  947   7.608   7.024  14.920  1.5756  0.8902 -0.6209
    8DOPE   C26  948   7.472   7.115  14.769 -0.2977 -0.0401 -0.2529
    8DOPE   H6R  949   7.455   7.020  14.715 -2.1818  0.7855 -1.2195
    8DOPE   H6S  950   7.551   7.177  14.722 -0.4446  1.0814  0.9187
    8DOPE   C27  951   7.329   7.177  14.768  0.0838 -0.3155 -0.0672
    8DOPE   H7R  952   7.335   7.281  14.805 -2.0580 -0.1193 -0.0983
    8DOPE   H7S  953   7.262   7.119  14.835 -0.8694  1.5127  0.6203
    8DOPE   C28  954   7.275   7.190  14.624  0.5351 -0.6442  0.0735
    8DOPE   H8R  955   7.167   7.218  14.631 -0.0290 -2.0268 -2.0474
    8DOPE   H8S  956   7.277   7.090  14.575  0.2832 -0.2593 -0.7525
    8DOPE   C29  957   7.348   7.298  14.544 -0.5119 -0.3716  0.0759
    8DOPE   H9R  958   7.443   7.257  14.506 -0.7145 -1.8604  1.0693
    8DOPE  C210  959   7.308   7.426  14.518  0.1399 -0.2005  0.2673
    8DOPE  H10R  960   7.369   7.493  14.455  0.0675 -0.0557  0.3498
    8DOPE  C211  961   7.165   7.471  14.551  0.1033  0.6266  0.6402
    8DOPE  H11R  962   7.174   7.570  14.601 -1.1093  0.0795  2.0531
    8DOPE  H11S  963   7.113   7.409  14.628  2.4439 -0.4564  1.4559
    8DOPE  C212  964   7.080   7.492  14.424  0.7398 -0.6123  0.1198
    8DOPE  H12R  965   7.061   7.395  14.373 -0.3165  0.0486 -0.7863
    8DOPE  H12S  966   7.135   7.558  14.353  1.1608  0.6422  1.5715
    8DOPE  C213  967   6.942   7.542  14.461  0.0625  0.0494  0.7056
    8DOPE  H13R  968   6.959   7.628  14.529  2.5727  0.0013  0.2287
    8DOPE  H13S  969   6.888   7.464  14.519  0.5904 -0.7138  0.2013
    8DOPE  C214  970   6.864   7.586  14.329 -0.5768  0.3483  0.3045
    8DOPE  H14R  971   6.864   7.493  14.269  0.1655 -0.4660  1.5232
    8DOPE  H14S  972   6.922   7.657  14.266 -1.0495  1.1474  0.7622
    8DOPE  C215  973   6.727   7.644  14.353  0.2940 -0.0384  0.1837
    8DOPE  H15R  974   6.670   7.585  14.429  1.1636 -1.4693 -0.2388
    8DOPE  H15S  975   6.671   7.663  14.259  0.9292 -0.0224 -0.1938
    8DOPE  C216  976   6.738   7.780  14.435 -0.8844  0.2438 -0.4846
    8DOPE  H16R  977   6.832   7.786  14.493 -1.8389  1.4850  1.0197
    8DOPE  H16S  978   6.657   7.774  14.512 -0.6975  1.4492 -0.1862
    8DOPE  C217  979   6.716   7.903  14.344  0.3063  0.4439  0.0660
    8DOPE  H17R  980   6.609   7.899  14.312  0.0777 -1.2565  0.9640
    8DOPE  H17S  981   6.784   7.896  14.256 -1.7327  0.1808 -1.5866
    8DOPE  C218  982   6.737   8.041  14.406 -0.3934 -0.3225  0.1628
    8DOPE  H18R  983   6.847   8.059  14.405 -0.1993 -1.3523 -1.7413
    8DOPE  H18S  984   6.704   8.042  14.512 -0.3738 -0.9535  0.1775
    8DOPE  H18T  985   6.694   8.123  14.345  0.8220  0.4476  0.3051
    8DOPE   C33  986   7.120   7.501  14.934  0.4417  0.4149  0.5380
    8DOPE   H3X  987   7.107   7.511  14.824 -1.6656  2.1212  0.8532
    8DOPE   H3Y  988   7.044   7.575  14.970 -0.7549 -0.4404 -0.1576
    8DOPE   C34  989   7.069   7.361  14.971  0.1558 -0.0445  0.0679
    8DOPE   H4X  990   7.135   7.282  14.929 -1.0431 -0.1431 -1.7193
    8DOPE   H4Y  991   7.070   7.365  15.083 -3.8185  2.2301  0.1820
    8DOPE   C35  992   6.932   7.330  14.924  0.1329 -1.0406 -0.1666
    8DOPE   H5X  993   6.927   7.328  14.813  2.2760 -0.6140 -0.3325
    8DOPE   H5Y  994   6.861   7.409  14.957  0.6245 -0.8607  0.4931
    8DOPE   C36  995   6.890   7.186  14.975 -0.6802 -0.1518 -0.1223
    8DOPE   H6X  996   6.903   7.194  15.085  2.0287  2.1035 -0.4832
    8DOPE   H6Y  997   6.954   7.109  14.927  0.2132  0.8840 -0.6517
    8DOPE   C37  998   6.741   7.156  14.958  0.7474  0.2617  0.2193
    8DOPE   H7X  999   6.687   7.234  15.016 -0.5849 -2.1539  2.4391
    8DOPE   H7Y 1000   6.714   7.160  14.850  1.5193  0.8598  0.0470
    8DOPE   C38 1001   6.692   7.015  15.005  0.7771  0.3676 -0.8263
    8DOPE   H8X 1002   6.583   7.003  14.989  0.2645  0.6446  1.8910
    8DOPE   H8Y 1003   6.716   6.999  15.113  0.7085 -0.5888 -0.9400
    8DOPE   C39 1004   6.763   6.895  14.939  0.2303 -0.8009 -0.6001
    8DOPE   H9X 1005   6.865   6.917  14.903  0.1305  0.4054 -0.1806
    8DOPE  C310 1006   6.712   6.780  14.913 -0.6297  0.0610 -0.0756
    8DOPE  H10X 1007   6.775   6.697  14.877  1.1176  1.1434  0.3506
    8DOPE  C311 1008   6.577   6.737  14.935  0.6707  0.4850  0.1882
    8DOPE  H11X 1009   6.573   6.631  14.968 -2.3618 -0.2882 -2.2171
    8DOPE  H11Y 1010   6.520   6.796  15.010  0.8629 -0.2487  0.9268
    8DOPE  C312 1011   6.489   6.737  14.807  0.2221 -0.2649 -0.3837
    8DOPE  H12X 1012   6.546   6.682  14.729  3.0228 -0.2737  1.5030
    8DOPE  H12Y 1013   6.463   6.841  14.781  2.6977  0.2404 -1.0056
    8DOPE  C313 1014   6.360   6.658  14.831  0.2651  0.1925 -0.4192
    8DOPE  H13X 1015   6.390   6.552  14.823 -1.5600 -0.4768  0.8448
    8DOPE  H13Y 1016   6.339   6.677  14.938 -0.9472 -1.3837 -0.3435
    8DOPE  C314 1017   6.239   6.690  14.751 -0.4852 -0.4530 -0.1962
    8DOPE  H14X 1018   6.182   6.776  14.793 -2.8541 -1.2237 -1.6635
    8DOPE  H14Y 1019   6.170   6.603  14.754 -0.0090 -0.8181  0.6242
    8DOPE  C315 1020   6.271   6.727  14.604 -0.6373  0.7644  0.0569
    8DOPE  H15X 1021   6.331   6.644  14.562 -0.0770  0.5227  1.2897
    8DOPE  H15Y 1022   6.329   6.820  14.591  1.0303 -0.4187 -1.5453
    8DOPE  C316 1023   6.143   6.734  14.512  0.2922  0.1423  0.4397
    8DOPE  H16X 1024   6.075   6.816  14.543  0.7802  0.9656 -0.6208
    8DOPE  H16Y 1025   6.087   6.639  14.525  3.5358 -2.3010 -1.7262
    8DOPE  C317 1026   6.174   6.733  14.364 -1.2090  0.8930 -0.2928
    8DOPE  H17X 1027   6.273   6.783  14.355 -1.1086  0.8530  0.5271
    8DOPE  H17Y 1028   6.196   6.630  14.329  1.3864  2.1704 -2.8930
    8DOPE  C318 1029   6.067   6.799  14.268 -0.1970 -0.1000 -0.5884
    8DOPE  H18X 1030   5.968   6.749  14.261  0.3119 -1.1213 -0.7405
    8DOPE  H18Y 1031   6.106   6.788  14.165 -0.1906 -0.3756 -0.5579
    8DOPE  H18Z 1032   6.056   6.907  14.289 -0.8225 -0.2210 -0.2630
    9DOPE     N 1033   0.529   5.212  16.014 -0.1851 -0.2372  0.6026
    9DOPE   HN1 1034   0.479   5.123  16.032  0.6439 -1.3631 -2.1940
    9DOPE   HN2 1035   0.594   5.199  15.934  0.8536  0.0502  1.3856
    9DOPE   HN3 1036   0.591   5.246  16.090  1.6372  0.1090 -0.9694
    9DOPE   C12 1037   0.429   5.311  15.975  0.4686  0.2514  0.2011
    9DOPE  H12A 1038   0.351   5.312  16.053 -0.3450  1.0751 -0.6071
    9DOPE  H12B 1039   0.381   5.279  15.880 -1.5823 -2.2356  1.9293
    9DOPE   C11 1040   0.494   5.451  15.968 -0.0717 -0.1117 -0.1220
    9DOPE  H11A 1041   0.531   5.475  16.070 -1.3604 -0.3143  0.4228
    9DOPE  H11B 1042   0.409   5.519  15.950 -1.4228 -1.6848  0.0110
    9DOPE     P 1043   0.669   5.597  15.839  0.0429  0.3532 -0.3250
    9DOPE   O13 1044   0.653   5.689  15.956  0.3212  0.1742  0.4564
    9DOPE   O14 1045   0.631   5.663  15.706 -0.4212  0.2607 -0.3051
    9DOPE   O11 1046   0.817   5.550  15.829  0.0495  0.3067  0.0697
    9DOPE   O12 1047   0.596   5.456  15.866 -0.0888 -0.3375  0.1671
    9DOPE    C1 1048   0.917   5.635  15.778  0.4705  0.1322 -0.1132
    9DOPE    HA 1049   1.008   5.627  15.841 -0.0610 -0.8861  0.5626
    9DOPE    HB 1050   0.884   5.740  15.794 -1.1494 -0.5837  1.6403
    9DOPE    C2 1051   0.941   5.616  15.626 -0.0452 -0.3150  0.5678
    9DOPE    HS 1052   0.844   5.589  15.579  0.6919 -0.6227 -0.8192
    9DOPE   O21 1053   1.036   5.503  15.609 -0.2649  0.3627  0.3694
    9DOPE   C21 1054   1.038   5.445  15.490  0.6658 -0.5037 -0.1783
    9DOPE   O22 1055   0.940   5.444  15.414 -0.5801 -0.3931 -0.2797
    9DOPE   C22 1056   1.164   5.370  15.469 -0.7919  0.7308 -0.4782
    9DOPE   H2R 1057   1.159   5.287  15.543  0.2750 -0.5126 -1.7479
    9DOPE   H2S 1058   1.246   5.432  15.511 -1.7943  1.7745 -0.0007
    9DOPE    C3 1059   1.002   5.739  15.561 -0.6375 -0.2715  0.7960
    9DOPE    HX 1060   1.098   5.757  15.613 -0.9543  0.5864  1.0957
    9DOPE    HY 1061   0.935   5.827  15.572 -0.4276 -0.3252  2.8040
    9DOPE   O31 1062   1.024   5.719  15.425 -0.9977 -0.3761  0.3404
    9DOPE   C31 1063   0.933   5.753  15.336  0.0656 -0.9983  0.3400
    9DOPE   O32 1064   0.827   5.813  15.367 -0.3963  0.1158 -0.0556
    9DOPE   C32 1065   0.982   5.709  15.196 -0.0247  0.0183 -0.2281
    9DOPE   H2X 1066   1.072   5.772  15.177  0.5285 -0.4563  0.7011
    9DOPE   H2Y 1067   1.003   5.601  15.205 -1.2657 -0.0844  2.7119
    9DOPE   C23 1068   1.191   5.316  15.323  0.2188 -0.3735  0.2583
    9DOPE   H3R 1069   1.097   5.292  15.269  1.2439 -1.5201 -1.1266
    9DOPE   H3S 1070   1.253   5.223  15.330  0.6429 -0.0831  0.3956
    9DOPE   C24 1071   1.258   5.416  15.240 -0.8434 -0.1850  0.7737
    9DOPE   H4R 1072   1.361   5.438  15.274 -1.2009  2.4548  0.3335
    9DOPE   H4S 1073   1.205   5.510  15.267  2.6747  2.5905 -1.1912
    9DOPE   C25 1074   1.255   5.393  15.088 -0.3209  0.1193  0.1892
    9DOPE   H5R 1075   1.150   5.378  15.055 -0.2755  0.7547 -0.2443
    9DOPE   H5S 1076   1.315   5.304  15.057  1.1800  0.9906  0.4798
    9DOPE   C26 1077   1.288   5.516  14.992 -0.1527  0.4019 -0.3899
    9DOPE   H6R 1078   1.396   5.539  15.005  0.3996 -0.3850 -2.9125
    9DOPE   H6S 1079   1.240   5.608  15.030 -1.1955  0.2023 -1.1777
    9DOPE   C27 1080   1.249   5.492  14.842 -0.3982 -0.3649 -0.2163
    9DOPE   H7R 1081   1.142   5.472  14.823 -0.7143  0.9110  0.1559
    9DOPE   H7S 1082   1.305   5.399  14.817 -0.1939 -0.5503  0.8857
    9DOPE   C28 1083   1.294   5.602  14.745  0.5691 -0.6825 -0.1533
    9DOPE   H8R 1084   1.384   5.660  14.779  0.2697  0.6802 -1.5579
    9DOPE   H8S 1085   1.215   5.680  14.749  0.5109 -0.7708  0.5403
    9DOPE   C29 1086   1.313   5.545  14.607 -0.7373 -0.0573  0.1890
    9DOPE   H9R 1087   1.222   5.539  14.544 -0.4386  0.9961 -0.3697
    9DOPE  C210 1088   1.428   5.518  14.549 -0.4867 -0.2096  0.6453
    9DOPE  H10R 1089   1.424   5.530  14.440  0.7202  0.0660  0.6198
    9DOPE  C211 1090   1.559   5.541  14.616 -0.7340  0.3994  0.1013
    9DOPE  H11R 1091   1.553   5.543  14.727 -0.0506  2.6716  0.1472
    9DOPE  H11S 1092   1.604   5.639  14.589  2.0352 -1.3376 -2.2446
    9DOPE  C212 1093   1.660   5.425  14.577  0.2190 -0.6220 -0.3957
    9DOPE  H12R 1094   1.764   5.439  14.614  0.5403  0.4878 -1.6431
    9DOPE  H12S 1095   1.669   5.430  14.467  2.3185 -0.7449 -0.2728
    9DOPE  C213 1096   1.616   5.287  14.618  0.3550  0.4686 -0.1552
    9DOPE  H13R 1097   1.679   5.221  14.555  0.2145 -2.0835  2.2086
    9DOPE  H13S 1098   1.514   5.261  14.584 -0.2869  0.6225  1.5602
    9DOPE  C214 1099   1.636   5.245  14.764 -0.4744 -0.0830  0.3678
    9DOPE  H14R 1100   1.565   5.302  14.827 -1.2564 -0.8644  0.2081
    9DOPE  H14S 1101   1.741   5.264  14.795 -0.3060 -1.1344  0.4701
    9DOPE  C215 1102   1.608   5.094  14.787 -0.2674 -0.0904 -0.0242
    9DOPE  H15R 1103   1.693   5.057  14.726 -1.1402 -1.2431 -0.5818
    9DOPE  H15S 1104   1.511   5.051  14.754 -0.3498 -0.1332  0.2681
    9DOPE  C216 1105   1.616   5.052  14.935  0.6166  0.3548  0.3463
    9DOPE  H16R 1106   1.721   5.068  14.966 -0.1189  0.9674  2.7538
    9DOPE  H16S 1107   1.600   4.943  14.946 -0.6473  0.1020 -2.8103
    9DOPE  C217 1108   1.514   5.116  15.032  0.0375 -0.2732 -0.3934
    9DOPE  H17R 1109   1.412   5.129  14.989 -0.1434 -0.5010 -0.0386
    9DOPE  H17S 1110   1.553   5.213  15.069  2.6312 -1.4284  0.1440
    9DOPE  C218 1111   1.494   5.027  15.158  0.2258  0.5924 -0.4309
    9DOPE  H18R 1112   1.420   5.064  15.231  1.0580  2.3823 -0.4391
    9DOPE  H18S 1113   1.593   5.026  15.208  0.7398 -0.3383 -1.4215
    9DOPE  H18T 1114   1.457   4.930  15.120 -2.0798  0.8625  0.9108
    9DOPE   C33 1115   0.870   5.725  15.086 -0.2157  0.1881 -0.8524
    9DOPE   H3X 1116   0.845   5.833  15.076 -1.3523  0.3874  2.7744
    9DOPE   H3Y 1117   0.776   5.674  15.116  0.6865 -2.7243 -2.5239
    9DOPE   C34 1118   0.926   5.681  14.950 -0.5923 -0.5354 -0.2255
    9DOPE   H4X 1119   1.024   5.732  14.939  0.6452 -2.2654  2.0372
    9DOPE   H4Y 1120   0.935   5.570  14.956 -2.3502 -0.7997 -1.5832
    9DOPE   C35 1121   0.836   5.703  14.828 -0.1388 -0.4002 -0.0553
    9DOPE   H5X 1122   0.794   5.806  14.828 -0.0719 -0.3654 -0.9020
    9DOPE   H5Y 1123   0.754   5.630  14.839  0.3905 -1.0298 -0.2188
    9DOPE   C36 1124   0.904   5.676  14.690  0.0237 -0.5590 -0.2078
    9DOPE   H6X 1125   0.950   5.576  14.683 -1.0736 -1.0519 -0.5823
    9DOPE   H6Y 1126   0.982   5.754  14.677 -0.9101  0.2346 -1.2268
    9DOPE   C37 1127   0.798   5.681  14.581  0.2394  0.2710 -0.3779
    9DOPE   H7X 1128   0.707   5.624  14.607  1.2703 -0.1613  2.7276
    9DOPE   H7Y 1129   0.777   5.790  14.583  0.6442  0.3436  0.2706
    9DOPE   C38 1130   0.849   5.628  14.440  0.2898 -0.4078  0.3316
    9DOPE   H8X 1131   0.883   5.525  14.464  0.6952 -0.3558 -0.0152
    9DOPE   H8Y 1132   0.938   5.688  14.410 -1.0232  0.1243 -3.0081
    9DOPE   C39 1133   0.729   5.622  14.341 -1.4137  0.2597  0.0361
    9DOPE   H9X 1134   0.674   5.527  14.347  1.8301 -1.8329 -0.6879
    9DOPE  C310 1135   0.696   5.699  14.241  1.2827 -0.8061 -0.3504
    9DOPE  H10X 1136   0.607   5.664  14.186  2.3881 -1.1560 -1.9953
    9DOPE  C311 1137   0.768   5.823  14.192  0.0677  0.3232 -0.2571
    9DOPE  H11X 1138   0.767   5.906  14.266  0.4671 -2.4862  3.1429
    9DOPE  H11Y 1139   0.876   5.800  14.181  0.2583  1.0118  0.0939
    9DOPE  C312 1140   0.724   5.865  14.053 -0.5307 -0.3153  0.2643
    9DOPE  H12X 1141   0.613   5.862  14.044 -0.4605 -1.0584 -0.4955
    9DOPE  H12Y 1142   0.739   5.779  13.985 -0.6103 -0.6702  0.6917
    9DOPE  C313 1143   0.782   5.998  13.997  0.3496  0.5811 -0.1722
    9DOPE  H13X 1144   0.753   6.083  14.062 -0.3909  0.5763 -0.4839
    9DOPE  H13Y 1145   0.892   5.993  14.004  0.4446  1.0418 -1.1608
    9DOPE  C314 1146   0.761   6.029  13.843  0.5901  0.0179  0.6245
    9DOPE  H14X 1147   0.808   5.953  13.777  2.1472  1.0118  0.5463
    9DOPE  H14Y 1148   0.801   6.131  13.824  1.3508 -0.0511  1.7392
    9DOPE  C315 1149   0.618   6.037  13.808  0.4708 -0.1128 -0.7010
    9DOPE  H15X 1150   0.576   6.100  13.890  3.4271 -0.3236  1.1344
    9DOPE  H15Y 1151   0.566   5.939  13.812 -3.3044  1.7273 -0.2865
    9DOPE  C316 1152   0.589   6.090  13.664 -0.3348 -0.2993 -0.0630
    9DOPE  H16X 1153   0.610   6.006  13.593  0.9210  1.2791 -1.6694
    9DOPE  H16Y 1154   0.661   6.171  13.640 -1.0897  0.1686 -0.7681
    9DOPE  C317 1155   0.450   6.150  13.651  0.0083  0.1175 -0.9872
    9DOPE  H17X 1156   0.435   6.198  13.750 -0.2358 -1.0261 -0.4567
    9DOPE  H17Y 1157   0.440   6.233  13.578  1.0488  1.4376  0.3265
    9DOPE  C318 1158   0.335   6.047  13.638  0.4069 -0.0079  0.3426
    9DOPE  H18X 1159   0.354   5.957  13.700 -2.9914 -1.0548  0.0898
    9DOPE  H18Y 1160   0.242   6.098  13.671  1.5825  2.0759  0.6285
    9DOPE  H18Z 1161   0.307   6.018  13.534  1.8677  0.8272 -0.3188
   10DOPE     N 1162   2.392   6.599  15.233  0.4000 -0.9621  0.0049
   10DOPE   HN1 1163   2.394   6.648  15.325  2.4736 -2.5036  0.8522
   10DOPE   HN2 1164   2.452   6.515  15.241 -2.1368 -2.8298  0.6880
   10DOPE   HN3 1165   2.442   6.664  15.170  0.4449 -1.2523 -0.2590
   10DOPE   C12 1166   2.244   6.574  15.188  0.2269 -0.2770  0.2156
   10DOPE  H12A 1167   2.199   6.498  15.254 -3.1127  1.1211 -0.2486
   10DOPE  H12B 1168   2.263   6.537  15.085 -0.5950  0.3181 -0.1653
   10DOPE   C11 1169   2.165   6.701  15.188  1.5064  0.1157 -0.2267
   10DOPE  H11A 1170   2.067   6.685  15.138  2.0543  2.1178 -2.0698
   10DOPE  H11B 1171   2.219   6.772  15.122  0.2763  0.4877 -0.8772
   10DOPE     P 1172   2.032   6.712  15.418 -0.1536  0.3325 -0.2246
   10DOPE   O13 1173   1.978   6.825  15.489 -0.1685 -1.1558 -0.3321
   10DOPE   O14 1174   2.088   6.615  15.514  0.4017 -0.4156  0.0762
   10DOPE   O11 1175   1.925   6.640  15.332 -0.0891 -0.1830 -0.8550
   10DOPE   O12 1176   2.145   6.751  15.321  0.1140  0.0270 -0.3073
   10DOPE    C1 1177   1.810   6.591  15.405  0.4426  0.0263  0.1227
   10DOPE    HA 1178   1.746   6.669  15.450 -1.9065 -2.2589  0.9835
   10DOPE    HB 1179   1.849   6.548  15.500  1.3585  0.7514  0.0925
   10DOPE    C2 1180   1.724   6.484  15.324  0.5830 -1.0921  0.1630
   10DOPE    HS 1181   1.636   6.449  15.381  1.2107 -2.1475  0.5208
   10DOPE   O21 1182   1.797   6.375  15.269  0.0638  0.2632  0.2660
   10DOPE   C21 1183   1.725   6.267  15.245 -0.3356  0.1534 -0.0354
   10DOPE   O22 1184   1.610   6.248  15.272 -0.1517 -0.1205 -0.1770
   10DOPE   C22 1185   1.820   6.175  15.173  0.0420  0.9399  0.5218
   10DOPE   H2R 1186   1.789   6.076  15.213 -3.4947  1.0197 -1.6799
   10DOPE   H2S 1187   1.923   6.191  15.214 -0.8949 -0.9589  4.0323
   10DOPE    C3 1188   1.652   6.560  15.212  0.0441  0.2879  0.5886
   10DOPE    HX 1189   1.722   6.570  15.127 -0.5881 -1.6102 -0.2151
   10DOPE    HY 1190   1.617   6.664  15.231 -1.2244 -0.2394  1.2537
   10DOPE   O31 1191   1.542   6.481  15.155 -0.1089  0.2865  0.5491
   10DOPE   C31 1192   1.421   6.492  15.215 -0.6653 -0.5551 -0.3726
   10DOPE   O32 1193   1.394   6.576  15.300  0.4042  0.4351  0.5533
   10DOPE   C32 1194   1.339   6.388  15.157  0.1402  0.1779 -0.2358
   10DOPE   H2X 1195   1.400   6.304  15.116 -0.4041  0.7283 -2.3026
   10DOPE   H2Y 1196   1.288   6.343  15.245 -0.6296 -0.6014 -1.0521
   10DOPE   C23 1197   1.834   6.173  15.013 -0.2477 -0.4754 -0.1718
   10DOPE   H3R 1198   1.730   6.153  14.977  0.1118 -0.7789 -1.0594
   10DOPE   H3S 1199   1.886   6.078  14.990 -0.8911 -0.4286 -1.9918
   10DOPE   C24 1200   1.898   6.295  14.950  0.1457  0.2785  0.4099
   10DOPE   H4R 1201   1.966   6.264  14.868  0.8176 -0.0533  1.0784
   10DOPE   H4S 1202   1.957   6.351  15.026 -0.1970 -0.1113  0.9741
   10DOPE   C25 1203   1.783   6.388  14.902 -0.2508 -0.2253  0.3489
   10DOPE   H5R 1204   1.696   6.394  14.971 -1.9222  3.1480 -1.8166
   10DOPE   H5S 1205   1.748   6.344  14.807  1.3221  1.7688 -1.2320
   10DOPE   C26 1206   1.830   6.529  14.882 -0.2744 -0.4248  0.2537
   10DOPE   H6R 1207   1.918   6.542  14.816 -2.2760  0.2684 -2.5110
   10DOPE   H6S 1208   1.857   6.572  14.981  0.1467 -0.4574  0.1535
   10DOPE   C27 1209   1.710   6.600  14.817 -0.6072 -0.2316  0.5722
   10DOPE   H7R 1210   1.627   6.596  14.890  0.8089  2.4504  2.5429
   10DOPE   H7S 1211   1.681   6.540  14.728  1.4867  1.3304 -1.2982
   10DOPE   C28 1212   1.725   6.752  14.778  0.2365  0.9844  1.0058
   10DOPE   H8R 1213   1.627   6.780  14.734 -1.2435 -3.5748  0.9115
   10DOPE   H8S 1214   1.791   6.733  14.690 -0.6572  1.4422  0.2141
   10DOPE   C29 1215   1.782   6.839  14.884  0.1735  0.0416 -1.1167
   10DOPE   H9R 1216   1.735   6.820  14.982  0.7754 -1.1812 -1.0405
   10DOPE  C210 1217   1.893   6.912  14.879  0.4799  0.2360 -0.2177
   10DOPE  H10R 1218   1.922   6.966  14.971 -2.1771 -0.9557  1.4347
   10DOPE  C211 1219   1.978   6.938  14.755 -0.0812 -0.5549 -0.1288
   10DOPE  H11R 1220   1.972   7.045  14.727  0.6344 -0.9974 -2.1759
   10DOPE  H11S 1221   1.946   6.878  14.667  2.4037  0.4186 -1.8367
   10DOPE  C212 1222   2.127   6.898  14.793 -0.0820 -0.2624 -0.6006
   10DOPE  H12R 1223   2.169   6.953  14.879  0.3558 -0.6958 -0.5307
   10DOPE  H12S 1224   2.190   6.930  14.707  1.1803 -2.7320 -0.6877
   10DOPE  C213 1225   2.159   6.752  14.811 -0.1713  0.5167  0.6049
   10DOPE  H13R 1226   2.097   6.712  14.895  0.8513 -4.1664 -0.5974
   10DOPE  H13S 1227   2.262   6.730  14.846  0.2871 -0.3306 -1.1679
   10DOPE  C214 1228   2.149   6.658  14.687 -0.1388 -0.7981 -0.4641
   10DOPE  H14R 1229   2.209   6.712  14.609 -1.5865  2.4591  0.4774
   10DOPE  H14S 1230   2.043   6.655  14.656 -0.1695 -0.7333 -0.3639
   10DOPE  C215 1231   2.203   6.523  14.718  0.2900  0.6695 -0.3621
   10DOPE  H15R 1232   2.144   6.474  14.798 -0.6758 -0.3629 -1.6661
   10DOPE  H15S 1233   2.303   6.543  14.761  0.2537 -0.8960  0.5369
   10DOPE  C216 1234   2.215   6.428  14.598 -0.0646  0.2729  0.4979
   10DOPE  H16R 1235   2.298   6.460  14.532  0.1143  0.9539  1.0399
   10DOPE  H16S 1236   2.126   6.432  14.533  0.3051 -2.7054 -0.3332
   10DOPE  C217 1237   2.254   6.285  14.649  0.1962 -0.3389  0.5030
   10DOPE  H17R 1238   2.259   6.210  14.568 -0.0081 -0.3340  0.4837
   10DOPE  H17S 1239   2.166   6.250  14.707  0.5373 -2.0921  0.0088
   10DOPE  C218 1240   2.381   6.271  14.731  0.7311 -0.1537 -0.3868
   10DOPE  H18R 1241   2.394   6.164  14.760 -2.9638 -0.0517  2.3138
   10DOPE  H18S 1242   2.357   6.319  14.828 -0.6106 -0.3895 -0.5775
   10DOPE  H18T 1243   2.467   6.316  14.677  0.8109  0.5706  0.3190
   10DOPE   C33 1244   1.254   6.445  15.040 -0.3840  0.5835  0.1740
   10DOPE   H3X 1245   1.177   6.518  15.073 -1.0477 -0.3962  0.8710
   10DOPE   H3Y 1246   1.185   6.363  15.009  0.5581  0.0886 -0.6674
   10DOPE   C34 1247   1.334   6.495  14.921 -0.2329  0.6284  0.3085
   10DOPE   H4X 1248   1.382   6.590  14.954  1.9327  0.5817 -2.2850
   10DOPE   H4Y 1249   1.420   6.426  14.906  0.8354  1.8334  0.6746
   10DOPE   C35 1250   1.260   6.505  14.784 -0.4007 -0.2360 -0.6104
   10DOPE   H5X 1251   1.202   6.600  14.789  2.6904  1.7512  0.7409
   10DOPE   H5Y 1252   1.194   6.418  14.766  0.4717 -1.0749  0.1662
   10DOPE   C36 1253   1.361   6.531  14.679  0.0327  0.4890 -0.0834
   10DOPE   H6X 1254   1.443   6.456  14.682 -0.3433  0.0700 -0.1053
   10DOPE   H6Y 1255   1.402   6.633  14.696  1.4714 -0.1027  0.1538
   10DOPE   C37 1256   1.314   6.525  14.534  0.1368  0.2585  0.1775
   10DOPE   H7X 1257   1.294   6.417  14.515  0.8378 -0.2773  2.1829
   10DOPE   H7Y 1258   1.219   6.582  14.529 -1.8330 -2.8372 -0.3063
   10DOPE   C38 1259   1.419   6.568  14.431  0.4380 -0.1593 -0.0168
   10DOPE   H8X 1260   1.388   6.547  14.327  1.1746  0.8476 -0.4569
   10DOPE   H8Y 1261   1.504   6.498  14.443 -0.0144 -0.7735 -0.3556
   10DOPE   C39 1262   1.451   6.712  14.452  0.6564  0.1289  0.7563
   10DOPE   H9X 1263   1.364   6.780  14.451  1.2895  1.1238 -3.2245
   10DOPE  C310 1264   1.578   6.762  14.431  0.0288  0.5971  0.3572
   10DOPE  H10X 1265   1.595   6.870  14.422 -1.5390  0.7351 -1.6543
   10DOPE  C311 1266   1.709   6.691  14.419  0.0094 -0.4594 -0.5640
   10DOPE  H11X 1267   1.775   6.726  14.501 -2.6865  0.2216  1.4640
   10DOPE  H11Y 1268   1.693   6.583  14.441 -3.8590  0.2969  1.1988
   10DOPE  C312 1269   1.776   6.725  14.288 -0.1547  0.5510 -0.4719
   10DOPE  H12X 1270   1.775   6.831  14.253  1.0851 -0.2397 -3.2170
   10DOPE  H12Y 1271   1.726   6.665  14.209  1.5141 -1.1004 -0.3593
   10DOPE  C313 1272   1.924   6.685  14.286 -0.1539  0.4650  0.0053
   10DOPE  H13X 1273   1.985   6.742  14.360 -0.7390 -0.4834  1.2604
   10DOPE  H13Y 1274   1.935   6.579  14.318 -1.5655 -0.3893 -2.1564
   10DOPE  C314 1275   1.981   6.706  14.145 -0.2178  0.2673  0.1392
   10DOPE  H14X 1276   1.956   6.810  14.115 -0.6849 -0.4380 -2.1224
   10DOPE  H14Y 1277   1.932   6.644  14.066  0.5647  0.1854 -0.2891
   10DOPE  C315 1278   2.130   6.691  14.123 -0.7153 -0.2511  0.3073
   10DOPE  H15X 1279   2.164   6.600  14.176 -0.8272  0.9181  2.5183
   10DOPE  H15Y 1280   2.186   6.777  14.166  0.7041 -1.1886  0.3752
   10DOPE  C316 1281   2.166   6.687  13.969  0.8502  0.2270  0.5144
   10DOPE  H16X 1282   2.092   6.759  13.927 -0.0786 -1.3801 -0.7513
   10DOPE  H16Y 1283   2.143   6.587  13.926 -0.7893  1.5840 -2.0269
   10DOPE  C317 1284   2.300   6.746  13.924  0.1091  0.5566 -0.3858
   10DOPE  H17X 1285   2.331   6.844  13.965  0.6096 -0.2668  1.3108
   10DOPE  H17Y 1286   2.373   6.671  13.961 -0.6673 -0.2024 -0.3383
   10DOPE  C318 1287   2.309   6.748  13.769 -0.0954 -0.1684  0.4854
   10DOPE  H18X 1288   2.391   6.816  13.738 -1.7817  0.7639 -2.2729
   10DOPE  H18Y 1289   2.329   6.645  13.731 -0.8203  0.2196 -0.9942
   10DOPE  H18Z 1290   2.216   6.789  13.725 -0.4169  1.9840  2.9088
   11DOPE     N 1291   1.058   2.835  16.206  0.0864  0.5996  0.2935
   11DOPE   HN1 1292   0.968   2.847  16.154 -0.9414 -0.7366  1.6663
   11DOPE   HN2 1293   1.046   2.874  16.302 -0.8165  1.9121 -0.3159
   11DOPE   HN3 1294   1.129   2.897  16.162 -0.1836  0.6169 -0.1252
   11DOPE   C12 1295   1.122   2.696  16.214  0.2820 -0.1154 -0.1945
   11DOPE  H12A 1296   1.037   2.626  16.234 -1.6209  2.3611  1.0055
   11DOPE  H12B 1297   1.197   2.699  16.295 -0.6570  2.7551  0.6770
   11DOPE   C11 1298   1.187   2.654  16.082  0.6728  0.1568 -1.6275
   11DOPE  H11A 1299   1.127   2.650  15.989  0.3492  0.3166 -1.4311
   11DOPE  H11B 1300   1.223   2.550  16.094  0.6706  0.4115  1.1904
   11DOPE     P 1301   1.444   2.716  16.083 -0.2012  0.3919 -0.3390
   11DOPE   O13 1302   1.457   2.573  16.122  0.1472  0.6446 -0.2238
   11DOPE   O14 1303   1.501   2.817  16.173  0.0162  0.7574 -0.1453
   11DOPE   O11 1304   1.518   2.734  15.946 -0.0686  0.3056 -0.8198
   11DOPE   O12 1305   1.291   2.740  16.061  0.0366 -0.0419  0.0264
   11DOPE    C1 1306   1.459   2.819  15.846 -0.1691 -0.5434  0.6545
   11DOPE    HA 1307   1.542   2.855  15.781 -0.2581 -1.9722 -0.2945
   11DOPE    HB 1308   1.411   2.912  15.883  0.3278  0.0937 -0.2730
   11DOPE    C2 1309   1.360   2.741  15.752 -0.4045  0.3722  0.4837
   11DOPE    HS 1310   1.295   2.671  15.807 -0.2040  0.6097  1.0258
   11DOPE   O21 1311   1.438   2.661  15.665 -0.4856 -0.0132  0.2304
   11DOPE   C21 1312   1.383   2.577  15.585 -0.1952  0.1199 -0.0703
   11DOPE   O22 1313   1.264   2.544  15.596 -0.0322  0.0127  0.5189
   11DOPE   C22 1314   1.488   2.515  15.491  0.6258  0.1082  0.8802
   11DOPE   H2R 1315   1.511   2.410  15.519 -2.6658 -2.1673 -3.6900
   11DOPE   H2S 1316   1.585   2.568  15.498  1.2426 -0.5404 -1.7999
   11DOPE    C3 1317   1.267   2.840  15.677 -0.5026  0.3373 -0.6485
   11DOPE    HX 1318   1.218   2.893  15.762  0.4863  0.2571 -0.0123
   11DOPE    HY 1319   1.191   2.790  15.612 -0.4707  0.2231 -0.5998
   11DOPE   O31 1320   1.337   2.940  15.597 -0.6971  0.7240 -0.2863
   11DOPE   C31 1321   1.269   3.055  15.573  0.2679  0.8660  1.5634
   11DOPE   O32 1322   1.154   3.078  15.609  0.6944  0.4847 -0.0603
   11DOPE   C32 1323   1.350   3.153  15.484  0.2807 -0.3473 -0.1365
   11DOPE   H2X 1324   1.282   3.239  15.470 -0.6184 -1.0161  0.0109
   11DOPE   H2Y 1325   1.434   3.189  15.547 -1.5663  1.4873  1.3742
   11DOPE   C23 1326   1.417   2.511  15.348 -0.8232  0.8074 -0.1002
   11DOPE   H3R 1327   1.370   2.607  15.318 -0.8665  0.4052 -1.4096
   11DOPE   H3S 1328   1.339   2.433  15.332 -0.0612  0.2106 -1.0800
   11DOPE   C24 1329   1.519   2.474  15.230  0.9363 -0.3300 -0.6338
   11DOPE   H4R 1330   1.530   2.364  15.234  2.5738 -0.2219 -1.4848
   11DOPE   H4S 1331   1.616   2.526  15.248 -0.3251  2.2547 -0.8362
   11DOPE   C25 1332   1.458   2.522  15.102  0.2077  0.2468 -0.4658
   11DOPE   H5R 1333   1.468   2.632  15.096  0.6253  0.2253 -0.2350
   11DOPE   H5S 1334   1.352   2.490  15.100  0.5236 -1.0570  1.1454
   11DOPE   C26 1335   1.522   2.457  14.986 -0.3322 -0.6834 -0.8587
   11DOPE   H6R 1336   1.521   2.347  15.000  2.4394 -0.5237  1.3705
   11DOPE   H6S 1337   1.629   2.485  14.981  0.3693 -2.3138  2.4577
   11DOPE   C27 1338   1.449   2.493  14.857 -0.6791  0.2375 -0.5120
   11DOPE   H7R 1339   1.342   2.465  14.870 -0.3173 -1.2781 -0.7130
   11DOPE   H7S 1340   1.487   2.423  14.780  1.2171 -1.6363  1.9768
   11DOPE   C28 1341   1.454   2.642  14.813 -0.4270  0.1666 -0.0947
   11DOPE   H8R 1342   1.416   2.712  14.890 -0.7052  1.3609 -1.2858
   11DOPE   H8S 1343   1.379   2.639  14.731  0.6508 -2.7521 -1.1235
   11DOPE   C29 1344   1.594   2.680  14.760 -0.0232 -0.9936 -0.1629
   11DOPE   H9R 1345   1.668   2.665  14.840 -0.1127  1.0106  0.3322
   11DOPE  C210 1346   1.630   2.692  14.633  0.2873 -0.1804  0.1520
   11DOPE  H10R 1347   1.738   2.705  14.615  0.1145  2.0887  0.4595
   11DOPE  C211 1348   1.547   2.698  14.504  0.4399  0.4382  0.0446
   11DOPE  H11R 1349   1.438   2.695  14.524 -0.0134 -0.8759 -2.2344
   11DOPE  H11S 1350   1.570   2.616  14.433  1.6350  0.0634  0.8310
   11DOPE  C212 1351   1.578   2.832  14.435  0.1563 -0.3190  0.2019
   11DOPE  H12R 1352   1.688   2.828  14.417  0.1046 -1.9425  0.0846
   11DOPE  H12S 1353   1.550   2.919  14.497  0.8765 -0.6301  0.9836
   11DOPE  C213 1354   1.533   2.854  14.288 -0.3025  0.0895 -0.0573
   11DOPE  H13R 1355   1.601   2.792  14.225 -2.9382 -1.2872 -1.7180
   11DOPE  H13S 1356   1.553   2.953  14.242 -2.5388 -0.2792 -2.0323
   11DOPE  C214 1357   1.388   2.807  14.262  0.0854 -0.3402 -0.1126
   11DOPE  H14R 1358   1.312   2.852  14.329 -1.2021 -1.8737 -0.4796
   11DOPE  H14S 1359   1.382   2.697  14.255 -2.6364 -0.1895 -1.2585
   11DOPE  C215 1360   1.341   2.866  14.128 -0.0391  0.3904  0.7007
   11DOPE  H15R 1361   1.404   2.819  14.049 -1.3730  1.2475 -0.9383
   11DOPE  H15S 1362   1.353   2.975  14.114 -0.8827  0.3396 -0.6828
   11DOPE  C216 1363   1.198   2.835  14.081 -0.1288  0.0035  0.3259
   11DOPE  H16R 1364   1.162   2.907  14.004  0.8744  1.4237  1.1259
   11DOPE  H16S 1365   1.139   2.844  14.174 -2.2168 -1.8707 -0.7090
   11DOPE  C217 1366   1.181   2.687  14.044  0.7325 -0.3837  0.5595
   11DOPE  H17R 1367   1.217   2.620  14.125 -0.2746 -1.6610 -0.0051
   11DOPE  H17S 1368   1.228   2.649  13.950 -2.4141 -0.2019 -1.2052
   11DOPE  C218 1369   1.036   2.648  14.022  0.1042  0.0236 -0.0579
   11DOPE  H18R 1370   1.002   2.708  13.934  0.9173  1.3636  0.5146
   11DOPE  H18S 1371   0.973   2.664  14.112  1.1229  0.3177  0.6106
   11DOPE  H18T 1372   1.020   2.541  13.996  0.0215 -0.0014  0.0903
   11DOPE   C33 1373   1.421   3.097  15.359 -0.3732 -0.0378  0.3969
   11DOPE   H3X 1374   1.509   3.047  15.405  0.9070  2.1993  0.5373
   11DOPE   H3Y 1375   1.469   3.170  15.290  0.0885  0.5074  1.2893
   11DOPE   C34 1376   1.340   3.001  15.269  0.0192  0.4735 -0.0737
   11DOPE   H4X 1377   1.411   2.947  15.203 -0.5037 -0.8499  0.4209
   11DOPE   H4Y 1378   1.293   2.920  15.328 -1.2427  1.5713  0.4952
   11DOPE   C35 1379   1.221   3.071  15.195  0.2765  0.0337  0.0646
   11DOPE   H5X 1380   1.255   3.172  15.163 -0.9487 -0.2399 -2.2954
   11DOPE   H5Y 1381   1.141   3.076  15.272  0.7293 -0.3402  0.5622
   11DOPE   C36 1382   1.165   2.997  15.080  0.4712 -0.8664 -0.1318
   11DOPE   H6X 1383   1.113   2.905  15.113  1.3043 -0.4211  2.6120
   11DOPE   H6Y 1384   1.255   2.971  15.021 -0.5958 -0.3393 -2.0883
   11DOPE   C37 1385   1.073   3.086  14.991 -0.1951 -0.0079 -0.0950
   11DOPE   H7X 1386   1.126   3.178  14.959 -0.1498 -0.1387 -0.3975
   11DOPE   H7Y 1387   1.059   3.029  14.896  0.4074 -0.6852  0.2073
   11DOPE   C38 1388   0.934   3.132  15.052  0.1756 -0.3189  1.0468
   11DOPE   H8X 1389   0.963   3.205  15.130  2.4087 -0.4949  0.4554
   11DOPE   H8Y 1390   0.883   3.050  15.106 -0.3295  0.5289  1.8752
   11DOPE   C39 1391   0.840   3.198  14.945  0.0316 -0.0662  0.4628
   11DOPE   H9X 1392   0.762   3.136  14.899 -0.5181  0.6486  0.4109
   11DOPE  C310 1393   0.856   3.317  14.888  0.1664 -0.7686  1.4148
   11DOPE  H10X 1394   0.769   3.356  14.834  0.3987 -1.3607  0.5941
   11DOPE  C311 1395   0.955   3.416  14.940 -0.4476  0.3845 -0.2375
   11DOPE  H11X 1396   0.973   3.407  15.049  0.9755 -0.4241 -0.5091
   11DOPE  H11Y 1397   1.058   3.401  14.901  2.0245 -0.0325  5.4672
   11DOPE  C312 1398   0.913   3.558  14.909  0.6985 -0.0903  0.4585
   11DOPE  H12X 1399   0.808   3.581  14.934  1.0111 -0.3399  2.1029
   11DOPE  H12Y 1400   0.912   3.565  14.798 -3.2500 -2.5479  0.1499
   11DOPE  C313 1401   0.994   3.672  14.963 -0.3533  0.7293 -0.0856
   11DOPE  H13X 1402   1.056   3.636  15.049 -0.8348 -0.3239 -0.1683
   11DOPE  H13Y 1403   1.056   3.708  14.879 -2.0041 -0.0419 -1.6910
   11DOPE  C314 1404   0.905   3.795  15.013  0.2124  0.2523 -0.1923
   11DOPE  H14X 1405   0.835   3.766  15.094  0.8916 -0.3164  0.2061
   11DOPE  H14Y 1406   0.847   3.837  14.928  0.2890 -1.5820 -1.2093
   11DOPE  C315 1407   0.979   3.920  15.067 -0.7766  0.5843  0.0369
   11DOPE  H15X 1408   1.070   3.929  15.004  0.0952 -0.5588  1.0973
   11DOPE  H15Y 1409   1.022   3.906  15.168  1.5518  2.2388 -0.6369
   11DOPE  C316 1410   0.898   4.048  15.069 -0.2852  0.3444 -0.3098
   11DOPE  H16X 1411   0.824   4.037  15.150 -0.4249  1.2577 -0.3069
   11DOPE  H16Y 1412   0.840   4.065  14.976 -0.6221 -2.0650 -0.6063
   11DOPE  C317 1413   0.981   4.176  15.113  0.2879  0.5062  0.3737
   11DOPE  H17X 1414   1.058   4.194  15.034 -0.6052 -0.9287 -0.8650
   11DOPE  H17Y 1415   0.901   4.253  15.118  0.7163  1.0702 -0.9038
   11DOPE  C318 1416   1.061   4.162  15.238 -0.1653 -0.7140  0.1203
   11DOPE  H18X 1417   1.090   4.267  15.257 -3.5412  0.9632 -2.7734
   11DOPE  H18Y 1418   1.004   4.124  15.325  0.6524 -0.2179  0.8949
   11DOPE  H18Z 1419   1.153   4.105  15.215 -0.6078 -1.6014  0.4814
   12DOPE     N 1420   2.833   7.895  15.588  0.0589  0.2382  0.0400
   12DOPE   HN1 1421   2.931   7.902  15.554 -0.2017 -1.2169 -1.0831
   12DOPE   HN2 1422   2.814   7.809  15.643 -1.5795  0.8135  0.4435
   12DOPE   HN3 1423   2.770   7.886  15.506  0.0443 -0.4736  0.1239
   12DOPE   C12 1424   2.795   8.022  15.672  0.5226  0.4426 -0.2940
   12DOPE  H12A 1425   2.694   8.001  15.715  0.2288 -0.6698 -1.4691
   12DOPE  H12B 1426   2.791   8.099  15.592  0.8322 -0.1840 -0.9229
   12DOPE   C11 1427   2.904   8.040  15.784  0.1763 -0.1054 -0.0731
   12DOPE  H11A 1428   2.898   8.139  15.834  0.8245  1.0561 -2.1920
   12DOPE  H11B 1429   3.003   8.057  15.736 -0.0091  1.4628  0.0599
   12DOPE     P 1430   2.994   7.920  15.994 -0.2829  0.2747  0.2053
   12DOPE   O13 1431   2.996   7.778  16.036  0.5693 -0.2803 -0.1066
   12DOPE   O14 1432   2.959   8.023  16.090  0.5160  0.1479 -0.0124
   12DOPE   O11 1433   3.130   7.967  15.935 -0.0835  0.3864 -0.3780
   12DOPE   O12 1434   2.894   7.935  15.874 -0.4461  0.3767  0.4597
   12DOPE    C1 1435   3.247   7.883  15.929 -0.1579  0.4441 -0.5904
   12DOPE    HA 1436   3.243   7.795  15.996  0.4557  1.1619  0.4198
   12DOPE    HB 1437   3.328   7.950  15.965  0.6879 -1.4454  1.1809
   12DOPE    C2 1438   3.300   7.852  15.783 -0.3629  0.0559 -0.0923
   12DOPE    HS 1439   3.393   7.792  15.795 -0.6741 -0.0752  1.8972
   12DOPE   O21 1440   3.299   7.973  15.712 -0.1452 -0.6405  0.0539
   12DOPE   C21 1441   3.416   8.025  15.690 -0.4293  0.0278 -0.7552
   12DOPE   O22 1442   3.520   7.980  15.723 -0.2144 -0.3038 -0.0277
   12DOPE   C22 1443   3.392   8.145  15.598  0.6700  0.2708  0.2065
   12DOPE   H2R 1444   3.397   8.242  15.651  0.4001  0.9457 -0.9632
   12DOPE   H2S 1445   3.291   8.131  15.553 -0.9296 -0.7887  3.7592
   12DOPE    C3 1446   3.196   7.764  15.711  0.1290 -0.4371  0.2572
   12DOPE    HX 1447   3.094   7.807  15.707 -1.4938 -3.9770 -1.4529
   12DOPE    HY 1448   3.180   7.675  15.776 -0.5001  0.6758  1.6692
   12DOPE   O31 1449   3.248   7.709  15.582  0.9164 -0.3252 -0.3615
   12DOPE   C31 1450   3.191   7.764  15.473  0.5112  0.0335 -0.4755
   12DOPE   O32 1451   3.090   7.831  15.471  0.2087  0.2785 -0.2259
   12DOPE   C32 1452   3.260   7.701  15.352  0.4092  0.2314 -0.6358
   12DOPE   H2X 1453   3.370   7.718  15.354  0.5099 -0.4568  0.1124
   12DOPE   H2Y 1454   3.240   7.592  15.353 -1.6761  0.5671 -0.5487
   12DOPE   C23 1455   3.510   8.140  15.492  0.4815 -0.2780 -0.6516
   12DOPE   H3R 1456   3.609   8.133  15.540  0.7689  0.7093 -1.0650
   12DOPE   H3S 1457   3.507   8.235  15.433 -1.8644 -0.3829 -0.8122
   12DOPE   C24 1458   3.478   8.043  15.382 -0.0334 -0.2246 -0.6340
   12DOPE   H4R 1459   3.402   8.076  15.308  0.9287  1.1665 -1.0529
   12DOPE   H4S 1460   3.449   7.946  15.428  1.3730 -0.8559 -1.0153
   12DOPE   C25 1461   3.603   8.021  15.299  0.2587  0.4356 -0.1081
   12DOPE   H5R 1462   3.685   7.979  15.361 -0.7313 -0.1419  0.8206
   12DOPE   H5S 1463   3.636   8.117  15.254  1.1673  0.8062  1.2800
   12DOPE   C26 1464   3.579   7.923  15.183  0.1415 -0.0515 -0.2526
   12DOPE   H6R 1465   3.497   7.857  15.219 -0.6254  0.9380 -0.1302
   12DOPE   H6S 1466   3.672   7.865  15.163  0.2885  1.0344 -3.1367
   12DOPE   C27 1467   3.536   7.990  15.059 -0.2580 -0.3640 -0.0067
   12DOPE   H7R 1468   3.595   8.078  15.024 -1.2179 -0.6714 -2.6191
   12DOPE   H7S 1469   3.436   8.038  15.059 -0.0113  0.1645 -0.1661
   12DOPE   C28 1470   3.577   7.911  14.935  0.8082 -1.1578  0.4404
   12DOPE   H8R 1471   3.518   7.818  14.949 -1.9592  0.5146  0.7496
   12DOPE   H8S 1472   3.687   7.901  14.941  0.9733  0.0534 -0.1439
   12DOPE   C29 1473   3.532   7.974  14.803 -0.2846 -0.2352 -0.0479
   12DOPE   H9R 1474   3.426   7.975  14.772 -0.8453  3.3544  1.5195
   12DOPE  C210 1475   3.616   8.046  14.725  0.6287 -0.6151  0.0489
   12DOPE  H10R 1476   3.581   8.083  14.628  3.3079 -0.3325 -0.8957
   12DOPE  C211 1477   3.758   8.079  14.754 -0.4724  0.4583  0.3472
   12DOPE  H11R 1478   3.800   8.064  14.855  0.2363 -1.4811 -0.1895
   12DOPE  H11S 1479   3.757   8.188  14.737  0.9328  0.4954  0.3449
   12DOPE  C212 1480   3.850   8.018  14.648  0.2164 -0.1762  1.0960
   12DOPE  H12R 1481   3.836   7.908  14.649  0.0357 -0.1750  0.0581
   12DOPE  H12S 1482   3.949   8.054  14.682  0.5012  0.3792 -0.2514
   12DOPE  C213 1483   3.816   8.065  14.501 -0.5204  0.3561 -0.4426
   12DOPE  H13R 1484   3.780   8.170  14.502  2.2549  1.4239 -1.3914
   12DOPE  H13S 1485   3.732   8.003  14.464 -2.6060  1.3704  2.2937
   12DOPE  C214 1486   3.936   8.072  14.407 -0.4941  0.3714  0.6564
   12DOPE  H14R 1487   3.999   7.981  14.413  0.0934  0.7630  0.5369
   12DOPE  H14S 1488   3.996   8.159  14.442  0.9552  0.1678 -1.1847
   12DOPE  C215 1489   3.907   8.096  14.256 -1.1053 -0.2408 -0.5321
   12DOPE  H15R 1490   3.991   8.136  14.194 -1.5632  1.3515 -0.1851
   12DOPE  H15S 1491   3.822   8.167  14.241 -1.5593 -0.4580  0.9412
   12DOPE  C216 1492   3.858   7.964  14.190  0.6017  0.0037 -0.0041
   12DOPE  H16R 1493   3.778   7.911  14.247 -0.1522  0.2908 -0.7600
   12DOPE  H16S 1494   3.944   7.894  14.189 -0.8242 -1.9196 -2.7545
   12DOPE  C217 1495   3.801   7.982  14.047  0.3729 -0.3500  0.0078
   12DOPE  H17R 1496   3.771   7.882  14.009  0.4235  0.1921 -1.5166
   12DOPE  H17S 1497   3.887   8.013  13.984  0.2506 -1.3742 -0.6901
   12DOPE  C218 1498   3.679   8.079  14.031  0.5242 -0.6642 -0.3018
   12DOPE  H18R 1499   3.663   8.101  13.923  0.1806 -1.2221 -0.3701
   12DOPE  H18S 1500   3.698   8.174  14.086  0.9384  0.1189 -1.7475
   12DOPE  H18T 1501   3.585   8.033  14.071  0.3353  0.1907  0.2802
   12DOPE   C33 1502   3.204   7.765  15.226 -0.2937 -0.2975 -0.3162
   12DOPE   H3X 1503   3.232   7.872  15.211  0.8624 -0.5080  0.2641
   12DOPE   H3Y 1504   3.093   7.754  15.227 -0.3592  0.1359 -1.4910
   12DOPE   C34 1505   3.240   7.694  15.095  0.4030  0.4004 -0.5113
   12DOPE   H4X 1506   3.345   7.709  15.064  0.8920 -1.1430  0.2816
   12DOPE   H4Y 1507   3.220   7.586  15.110  0.0825  0.5018 -0.1982
   12DOPE   C35 1508   3.154   7.752  14.977  0.0740  0.2167 -0.3268
   12DOPE   H5X 1509   3.183   7.857  14.955  2.0072 -0.1692  0.1929
   12DOPE   H5Y 1510   3.047   7.763  15.005 -0.2058 -1.0629 -0.8058
   12DOPE   C36 1511   3.156   7.666  14.852 -0.1741  0.1466  0.4693
   12DOPE   H6X 1512   3.118   7.742  14.781 -1.9554  0.0535  1.2693
   12DOPE   H6Y 1513   3.098   7.571  14.850 -0.5470  0.3830 -0.6118
   12DOPE   C37 1514   3.293   7.612  14.790 -0.6584 -0.5212 -0.0843
   12DOPE   H7X 1515   3.373   7.687  14.800 -0.2394 -1.1153  1.2872
   12DOPE   H7Y 1516   3.314   7.526  14.858 -3.0386 -1.7630 -0.7904
   12DOPE   C38 1517   3.281   7.552  14.644  0.0443 -0.0956 -0.0453
   12DOPE   H8X 1518   3.235   7.451  14.645 -1.1950  0.3847 -1.9894
   12DOPE   H8Y 1519   3.387   7.537  14.616  0.0494 -0.4478  0.1675
   12DOPE   C39 1520   3.209   7.635  14.540  0.4723  0.0285  0.4926
   12DOPE   H9X 1521   3.101   7.618  14.551  0.1901  1.3677 -0.0521
   12DOPE  C310 1522   3.242   7.744  14.474 -0.7109  0.0660 -0.1323
   12DOPE  H10X 1523   3.189   7.792  14.390  2.3819  0.9714 -1.7468
   12DOPE  C311 1524   3.383   7.804  14.479 -0.4376 -0.1706  0.0985
   12DOPE  H11X 1525   3.376   7.903  14.530  1.8177  0.4842 -0.7440
   12DOPE  H11Y 1526   3.449   7.746  14.546  0.1366 -2.9485 -2.6335
   12DOPE  C312 1527   3.468   7.816  14.357  0.1635 -0.4474 -0.0865
   12DOPE  H12X 1528   3.564   7.841  14.407  0.5805  0.5162 -1.3063
   12DOPE  H12Y 1529   3.435   7.901  14.293 -0.2837 -1.6004 -1.4270
   12DOPE  C313 1530   3.476   7.693  14.273 -0.2031  1.1419  0.3310
   12DOPE  H13X 1531   3.530   7.623  14.340 -2.6921  0.2783  1.5877
   12DOPE  H13Y 1532   3.381   7.636  14.259 -0.1284  0.7685  1.2241
   12DOPE  C314 1533   3.551   7.708  14.139 -0.3815 -0.0864  0.1021
   12DOPE  H14X 1534   3.658   7.724  14.165  0.7838 -0.9449 -3.6215
   12DOPE  H14Y 1535   3.524   7.798  14.081 -1.9806 -1.8427 -2.0250
   12DOPE  C315 1536   3.536   7.586  14.050 -0.5872  0.1549  0.5601
   12DOPE  H15X 1537   3.430   7.557  14.032 -0.9568  1.7444  0.0482
   12DOPE  H15Y 1538   3.596   7.497  14.079 -0.2986  0.3450  0.5522
   12DOPE  C316 1539   3.588   7.616  13.901  0.6004 -0.1630 -0.0280
   12DOPE  H16X 1540   3.551   7.717  13.874 -1.4871 -0.3064  1.9917
   12DOPE  H16Y 1541   3.555   7.539  13.829  1.7857 -1.6967  1.0004
   12DOPE  C317 1542   3.745   7.601  13.889  0.1982  0.5859 -0.3323
   12DOPE  H17X 1543   3.798   7.649  13.974 -0.4883  1.6731 -0.4933
   12DOPE  H17Y 1544   3.764   7.492  13.880 -0.4816  0.4260  0.1288
   12DOPE  C318 1545   3.796   7.675  13.769  0.0349  0.1037 -0.1692
   12DOPE  H18X 1546   3.905   7.666  13.745  0.3845  3.1281 -0.0800
   12DOPE  H18Y 1547   3.735   7.635  13.685  0.6064  0.3678 -0.7271
   12DOPE  H18Z 1548   3.775   7.784  13.777  0.5909  0.1190  1.4091
   13DOPE     N 1549   2.269   2.132  15.945  0.3238  0.2588  0.3445
   13DOPE   HN1 1550   2.175   2.171  15.923 -0.8206 -1.6704  1.5980
   13DOPE   HN2 1551   2.331   2.211  15.974  0.3265  1.2203 -1.9910
   13DOPE   HN3 1552   2.299   2.089  15.855  0.3039 -0.7060  0.7913
   13DOPE   C12 1553   2.253   2.022  16.039 -0.1521  0.9986  0.3668
   13DOPE  H12A 1554   2.162   2.045  16.098 -0.9928 -1.8288  0.3556
   13DOPE  H12B 1555   2.347   2.010  16.097  2.3868  0.4773 -3.4938
   13DOPE   C11 1556   2.220   1.890  15.967 -0.0623  0.2785  0.0836
   13DOPE  H11A 1557   2.113   1.900  15.935 -0.5784 -1.5330  1.0739
   13DOPE  H11B 1558   2.198   1.808  16.038 -0.9523 -0.5450 -1.0875
   13DOPE     P 1559   2.402   1.741  15.868 -0.0822 -0.2547 -0.0631
   13DOPE   O13 1560   2.351   1.632  15.956 -0.6245 -0.0364  0.0903
   13DOPE   O14 1561   2.543   1.793  15.902  0.1496 -0.7025 -0.5603
   13DOPE   O11 1562   2.395   1.689  15.719 -0.2055  0.8969  0.4810
   13DOPE   O12 1563   2.305   1.864  15.854 -0.0337 -0.2110 -0.4056
   13DOPE    C1 1564   2.438   1.778  15.614  0.5403 -0.1356  0.0604
   13DOPE    HA 1565   2.549   1.764  15.611  0.7866  1.7199 -0.5807
   13DOPE    HB 1566   2.412   1.884  15.629  0.0568  0.1944 -2.5939
   13DOPE    C2 1567   2.360   1.750  15.478  0.3321 -0.6802 -0.3117
   13DOPE    HS 1568   2.250   1.759  15.491  0.0998 -0.8490 -1.9478
   13DOPE   O21 1569   2.397   1.618  15.428  0.3230 -0.3965 -0.3484
   13DOPE   C21 1570   2.304   1.566  15.341  0.4304 -0.6033 -0.1235
   13DOPE   O22 1571   2.192   1.606  15.331  0.1056  0.1625 -0.6284
   13DOPE   C22 1572   2.362   1.447  15.270 -0.3407  0.0153 -0.7697
   13DOPE   H2R 1573   2.286   1.413  15.196 -0.7427 -0.1097 -0.3071
   13DOPE   H2S 1574   2.386   1.360  15.335  0.2663 -0.0467 -1.0702
   13DOPE    C3 1575   2.401   1.853  15.366  0.4813  0.0122  0.0418
   13DOPE    HX 1576   2.506   1.839  15.333  0.6199 -1.0272  0.8619
   13DOPE    HY 1577   2.395   1.955  15.409  0.9652 -0.0633  0.3013
   13DOPE   O31 1578   2.325   1.839  15.243  0.2261  0.0326 -0.4966
   13DOPE   C31 1579   2.201   1.892  15.254  0.4391 -0.0076  0.5182
   13DOPE   O32 1580   2.161   1.943  15.353 -0.5407  0.7964  0.1494
   13DOPE   C32 1581   2.124   1.889  15.120  0.8511 -0.3559 -0.3390
   13DOPE   H2X 1582   2.024   1.929  15.150  0.0797 -1.7248 -1.0280
   13DOPE   H2Y 1583   2.161   1.959  15.042  1.0304 -1.9058 -1.6882
   13DOPE   C23 1584   2.493   1.482  15.201  0.1387  0.3165 -0.0878
   13DOPE   H3R 1585   2.562   1.503  15.285  1.7269 -1.3505 -0.9100
   13DOPE   H3S 1586   2.481   1.575  15.141 -0.2140  0.6189  0.4425
   13DOPE   C24 1587   2.550   1.360  15.126 -0.1629 -0.1489  0.1939
   13DOPE   H4R 1588   2.469   1.283  15.123  0.0963 -0.4173 -1.8747
   13DOPE   H4S 1589   2.645   1.318  15.165  0.3965  1.5251  0.6939
   13DOPE   C25 1590   2.576   1.411  14.972  0.2206  0.2537 -0.4937
   13DOPE   H5R 1591   2.644   1.497  14.990  1.1223 -0.5239 -0.0753
   13DOPE   H5S 1592   2.477   1.443  14.934 -0.5869 -0.7467  0.6853
   13DOPE   C26 1593   2.633   1.298  14.892 -0.2099  0.0986 -0.1871
   13DOPE   H6R 1594   2.569   1.208  14.902  0.7964 -0.4486  1.8863
   13DOPE   H6S 1595   2.735   1.276  14.933  0.5255  1.4858 -1.1859
   13DOPE   C27 1596   2.642   1.327  14.731 -0.1748 -0.4093  0.0851
   13DOPE   H7R 1597   2.547   1.334  14.672 -0.0832 -0.7845 -0.1069
   13DOPE   H7S 1598   2.683   1.231  14.693 -0.5519 -0.6893  0.3788
   13DOPE   C28 1599   2.729   1.446  14.690 -0.0492  0.7408 -0.6858
   13DOPE   H8R 1600   2.699   1.538  14.746  1.6212  0.2552  1.1129
   13DOPE   H8S 1601   2.712   1.462  14.582 -3.7027 -1.3556 -0.5751
   13DOPE   C29 1602   2.872   1.423  14.730 -0.1751  0.8747  0.4127
   13DOPE   H9R 1603   2.887   1.330  14.786 -0.3944  0.5017 -0.1408
   13DOPE  C210 1604   2.974   1.508  14.707 -0.0177 -0.3311  0.1121
   13DOPE  H10R 1605   3.078   1.479  14.727  0.2099 -0.3489 -1.0428
   13DOPE  C211 1606   2.958   1.643  14.640 -0.0197 -0.0840 -0.4260
   13DOPE  H11R 1607   3.025   1.709  14.699 -0.3583 -1.2162  1.3023
   13DOPE  H11S 1608   2.858   1.687  14.659  0.0005 -0.5049  0.7346
   13DOPE  C212 1609   3.000   1.663  14.495 -0.0295 -0.5074 -0.1380
   13DOPE  H12R 1610   2.913   1.696  14.434 -1.1968 -1.3008  1.0288
   13DOPE  H12S 1611   3.038   1.568  14.452 -1.1005 -1.0180  0.0003
   13DOPE  C213 1612   3.102   1.774  14.483 -0.4290 -0.0466 -0.5481
   13DOPE  H13R 1613   3.178   1.739  14.556 -0.4803 -0.0426 -0.4930
   13DOPE  H13S 1614   3.057   1.864  14.531 -0.4092 -1.8727  3.2401
   13DOPE  C214 1615   3.159   1.778  14.336 -0.5630 -0.3542  0.1765
   13DOPE  H14R 1616   3.203   1.680  14.309  1.9227  0.8847 -0.6238
   13DOPE  H14S 1617   3.241   1.854  14.340 -0.6485 -0.2847  0.8168
   13DOPE  C215 1618   3.066   1.830  14.217  0.3641  0.4028  0.1459
   13DOPE  H15R 1619   3.043   1.939  14.220  2.5023  0.9516 -1.4327
   13DOPE  H15S 1620   2.972   1.771  14.219  1.3692 -1.3285 -1.3213
   13DOPE  C216 1621   3.133   1.813  14.078  0.4752  0.2887  0.0715
   13DOPE  H16R 1622   3.054   1.815  14.000 -1.8031 -0.9379  2.2206
   13DOPE  H16S 1623   3.181   1.712  14.077 -0.3083 -0.1190  1.3524
   13DOPE  C217 1624   3.246   1.917  14.052  0.2818  0.6272 -0.1408
   13DOPE  H17R 1625   3.322   1.917  14.133  1.4822 -1.7108 -1.1780
   13DOPE  H17S 1626   3.195   2.016  14.044  0.8975  0.8133 -2.2715
   13DOPE  C218 1627   3.322   1.919  13.919  0.4500  0.4483  0.6061
   13DOPE  H18R 1628   3.258   1.909  13.828  2.3398 -1.9550 -0.5851
   13DOPE  H18S 1629   3.395   1.835  13.922 -0.0013  0.0920  2.5778
   13DOPE  H18T 1630   3.382   2.011  13.908  0.6847  0.3607  1.1461
   13DOPE   C33 1631   2.103   1.746  15.064 -0.3069  0.2626 -0.6332
   13DOPE   H3X 1632   2.008   1.754  15.006 -0.0790  0.7517 -0.9477
   13DOPE   H3Y 1633   2.078   1.678  15.148  2.0471 -0.1292 -0.1743
   13DOPE   C34 1634   2.227   1.691  14.989  0.0694  0.3087 -0.1128
   13DOPE   H4X 1635   2.319   1.682  15.051  0.4016  0.6410 -0.5553
   13DOPE   H4Y 1636   2.203   1.586  14.963 -1.1666  1.1930 -3.0570
   13DOPE   C35 1637   2.250   1.770  14.860 -0.0495  0.3016  0.4889
   13DOPE   H5X 1638   2.280   1.873  14.889 -1.9931  1.5362 -1.5696
   13DOPE   H5Y 1639   2.158   1.780  14.799  0.6527  3.0338 -0.2785
   13DOPE   C36 1640   2.362   1.709  14.769 -0.1187 -0.1058 -1.0536
   13DOPE   H6X 1641   2.344   1.600  14.768 -0.6365 -0.0482  0.1042
   13DOPE   H6Y 1642   2.457   1.724  14.824 -1.9848 -0.5597  2.6784
   13DOPE   C37 1643   2.365   1.765  14.630  0.4319  0.2138 -0.2981
   13DOPE   H7X 1644   2.259   1.778  14.598 -0.5994 -2.4556  1.6372
   13DOPE   H7Y 1645   2.411   1.866  14.632 -2.8311  1.8758 -1.8948
   13DOPE   C38 1646   2.425   1.674  14.528 -0.4689 -0.0093  0.2199
   13DOPE   H8X 1647   2.379   1.573  14.515 -1.7972  0.7421 -1.0726
   13DOPE   H8Y 1648   2.530   1.656  14.560  0.0011 -0.1171 -1.3028
   13DOPE   C39 1649   2.420   1.754  14.394 -0.1520  0.7366  0.1340
   13DOPE   H9X 1650   2.407   1.863  14.391 -1.8303  0.5505 -0.0789
   13DOPE  C310 1651   2.456   1.695  14.278 -0.4290 -0.3189 -0.1945
   13DOPE  H10X 1652   2.458   1.761  14.190  0.5263 -0.1419 -0.0453
   13DOPE  C311 1653   2.518   1.549  14.268 -0.2777 -0.0644  0.9598
   13DOPE  H11X 1654   2.534   1.497  14.365  2.5210  0.6338  0.9612
   13DOPE  H11Y 1655   2.450   1.484  14.209  0.2496 -1.3453  1.7173
   13DOPE  C312 1656   2.664   1.539  14.210  0.0262  0.0565 -0.0464
   13DOPE  H12X 1657   2.694   1.435  14.188  0.0334  0.4271 -1.9128
   13DOPE  H12Y 1658   2.734   1.579  14.286 -0.4774  1.0186 -0.0705
   13DOPE  C313 1659   2.689   1.606  14.074  0.4733  0.0367 -0.0864
   13DOPE  H13X 1660   2.607   1.565  14.012 -0.6059  3.1823 -0.9104
   13DOPE  H13Y 1661   2.677   1.715  14.090 -0.1331 -0.2221  1.3467
   13DOPE  C314 1662   2.827   1.568  14.015 -0.0357 -0.4185 -0.4384
   13DOPE  H14X 1663   2.820   1.458  13.999 -0.3105 -0.3311 -0.9394
   13DOPE  H14Y 1664   2.913   1.600  14.079 -0.4801 -1.4570  0.7204
   13DOPE  C315 1665   2.842   1.635  13.877  0.6746  0.0902  0.0930
   13DOPE  H15X 1666   2.848   1.746  13.889 -2.1493  0.6584 -2.5734
   13DOPE  H15Y 1667   2.754   1.619  13.812 -0.6799 -1.2793  2.1209
   13DOPE  C316 1668   2.970   1.582  13.817  0.4703  0.4815  0.7935
   13DOPE  H16X 1669   3.051   1.576  13.892  0.6054 -0.5670  0.5818
   13DOPE  H16Y 1670   3.003   1.671  13.759 -1.3589  0.0721 -1.0109
   13DOPE  C317 1671   2.945   1.453  13.739 -0.3319  0.4157  0.4708
   13DOPE  H17X 1672   2.938   1.368  13.810  0.5929  0.2881  0.4185
   13DOPE  H17Y 1673   2.848   1.460  13.684  1.2321  0.3136 -2.5049
   13DOPE  C318 1674   3.052   1.420  13.630  1.0831 -0.3160 -0.6870
   13DOPE  H18X 1675   3.004   1.345  13.565  1.3044 -1.3155  0.2767
   13DOPE  H18Y 1676   3.060   1.517  13.577 -1.1821 -0.4177 -1.2840
   13DOPE  H18Z 1677   3.138   1.365  13.674  0.0616 -0.2203  1.5872
   14DOPE     N 1678   6.000   4.852  15.844 -0.0245 -0.4432 -0.3108
   14DOPE   HN1 1679   6.079   4.812  15.898 -0.0731  0.8428  0.7572
   14DOPE   HN2 1680   5.913   4.793  15.844  0.1934 -0.8158 -1.9710
   14DOPE   HN3 1681   6.020   4.875  15.744  0.0215 -0.9797 -0.4300
   14DOPE   C12 1682   5.971   4.982  15.915  0.1158 -0.4650  0.2038
   14DOPE  H12A 1683   5.947   4.957  16.020 -2.9383 -1.6309 -0.6676
   14DOPE  H12B 1684   5.882   5.027  15.867  1.1065 -0.8979 -2.2001
   14DOPE   C11 1685   6.085   5.087  15.906  0.4310  0.3114 -0.0186
   14DOPE  H11A 1686   6.079   5.164  15.986  0.8675  0.2799  0.0455
   14DOPE  H11B 1687   6.067   5.145  15.812 -3.0589  2.0580  1.5442
   14DOPE     P 1688   6.289   4.988  16.038  0.3637  0.0505  0.1184
   14DOPE   O13 1689   6.274   4.841  16.057 -0.2221 -0.4064  0.6658
   14DOPE   O14 1690   6.240   5.072  16.147  0.1794  0.2749 -0.3351
   14DOPE   O11 1691   6.445   5.028  16.017  0.4112  0.6017  0.1364
   14DOPE   O12 1692   6.215   5.027  15.907  0.1204  0.6727 -0.0431
   14DOPE    C1 1693   6.476   5.155  15.968  0.1595 -1.0379  0.0882
   14DOPE    HA 1694   6.584   5.174  15.985  0.1589  0.3986 -1.2836
   14DOPE    HB 1695   6.416   5.238  16.013 -1.8202 -1.7477 -1.1026
   14DOPE    C2 1696   6.469   5.161  15.807 -0.3792 -0.2281  0.4129
   14DOPE    HS 1697   6.561   5.215  15.777 -0.1771 -0.2153  1.0581
   14DOPE   O21 1698   6.360   5.219  15.744  0.2513  0.2118  0.4494
   14DOPE   C21 1699   6.343   5.348  15.762 -0.3225  0.4755  0.2519
   14DOPE   O22 1700   6.418   5.425  15.820 -0.4572  0.6471 -0.0997
   14DOPE   C22 1701   6.207   5.382  15.712 -0.1389 -0.1517 -0.1681
   14DOPE   H2R 1702   6.144   5.389  15.803  2.0139 -1.1794  1.5018
   14DOPE   H2S 1703   6.171   5.293  15.656  0.0238 -0.3749  0.0847
   14DOPE    C3 1704   6.494   5.026  15.740 -0.0308 -0.1225  0.1569
   14DOPE    HX 1705   6.405   4.960  15.747  0.9017 -1.6197 -1.2109
   14DOPE    HY 1706   6.569   4.971  15.801 -0.6898 -1.0833  0.1295
   14DOPE   O31 1707   6.548   5.036  15.606  0.0257  0.2778 -0.4996
   14DOPE   C31 1708   6.468   5.046  15.506 -0.4993 -0.6689  0.4676
   14DOPE   O32 1709   6.345   5.034  15.517 -0.5175  0.2715  0.2592
   14DOPE   C32 1710   6.547   5.061  15.370  0.1392  0.5898 -0.1869
   14DOPE   H2X 1711   6.609   5.153  15.380  2.1130 -0.5199 -1.5740
   14DOPE   H2Y 1712   6.612   4.973  15.351 -0.8917 -0.2551  0.1306
   14DOPE   C23 1713   6.203   5.513  15.617  0.3182  0.0605 -0.1654
   14DOPE   H3R 1714   6.268   5.597  15.649  1.2750 -0.4802 -0.6584
   14DOPE   H3S 1715   6.096   5.544  15.626  0.6034  0.7839  0.8623
   14DOPE   C24 1716   6.236   5.476  15.471 -0.0548  0.3492  0.1719
   14DOPE   H4R 1717   6.191   5.379  15.440  1.4344 -0.1997 -0.3728
   14DOPE   H4S 1718   6.344   5.460  15.453 -0.0831  2.0457 -1.8289
   14DOPE   C25 1719   6.191   5.587  15.373 -1.0508 -0.4778 -0.6505
   14DOPE   H5R 1720   6.249   5.678  15.399  0.0712 -1.3302 -0.0847
   14DOPE   H5S 1721   6.081   5.599  15.380 -1.4357 -2.7232 -2.0109
   14DOPE   C26 1722   6.228   5.551  15.227  0.5759  0.3573  0.2730
   14DOPE   H6R 1723   6.339   5.540  15.224  0.5359  0.1467 -0.7373
   14DOPE   H6S 1724   6.196   5.633  15.159 -0.3085 -0.2374 -0.0406
   14DOPE   C27 1725   6.164   5.425  15.163  0.5869  0.2825  0.0808
   14DOPE   H7R 1726   6.053   5.437  15.162  0.7646  2.1587 -0.2841
   14DOPE   H7S 1727   6.189   5.343  15.233 -1.1684  0.2922  0.7690
   14DOPE   C28 1728   6.202   5.388  15.015 -0.2806  0.4028  0.8012
   14DOPE   H8R 1729   6.163   5.288  14.985 -1.5171  0.6712  1.4386
   14DOPE   H8S 1730   6.312   5.377  15.002  0.0687  1.7650  2.3010
   14DOPE   C29 1731   6.145   5.497  14.927  0.8828 -0.1928 -0.5412
   14DOPE   H9R 1732   6.207   5.588  14.922  0.2589  0.3616  1.1780
   14DOPE  C210 1733   6.027   5.498  14.865  0.4927  0.4188 -0.2554
   14DOPE  H10R 1734   5.985   5.585  14.812 -0.5594  0.3605  0.4512
   14DOPE  C211 1735   5.939   5.370  14.861  0.1940  0.4632  0.3581
   14DOPE  H11R 1736   5.985   5.295  14.929  0.4201 -0.2083 -0.5197
   14DOPE  H11S 1737   5.920   5.329  14.759 -0.9305  1.0990  0.2947
   14DOPE  C212 1738   5.790   5.395  14.917  0.3730  0.1854 -0.0750
   14DOPE  H12R 1739   5.739   5.463  14.845 -0.7698  1.8593  2.1551
   14DOPE  H12S 1740   5.801   5.463  15.004 -1.4144  1.3661 -0.7165
   14DOPE  C213 1741   5.715   5.264  14.945  0.4102  0.1125 -0.2453
   14DOPE  H13R 1742   5.774   5.199  15.014 -3.1014 -1.7087  1.2709
   14DOPE  H13S 1743   5.688   5.221  14.846 -0.4273 -1.3143  0.5706
   14DOPE  C214 1744   5.587   5.287  15.014 -0.5608 -0.4090  0.1949
   14DOPE  H14R 1745   5.512   5.327  14.942 -0.1817 -1.1362 -0.6256
   14DOPE  H14S 1746   5.595   5.352  15.103 -2.3680  1.0613 -0.6252
   14DOPE  C215 1747   5.519   5.153  15.052 -0.0412  0.4840 -0.4116
   14DOPE  H15R 1748   5.575   5.102  15.133 -1.5553  1.9592  1.6656
   14DOPE  H15S 1749   5.518   5.088  14.962 -3.1293 -1.7412  1.0501
   14DOPE  C216 1750   5.375   5.169  15.094 -1.0434  0.4488 -0.0068
   14DOPE  H16R 1751   5.319   5.224  15.015 -1.6392  1.8380  1.3300
   14DOPE  H16S 1752   5.367   5.221  15.192 -1.7541 -0.4838  0.4542
   14DOPE  C217 1753   5.305   5.036  15.097  0.3040 -0.5734 -0.1765
   14DOPE  H17R 1754   5.356   4.983  15.180  0.0797  0.6037  0.7420
   14DOPE  H17S 1755   5.298   4.980  15.001 -1.3121  0.2671 -0.5798
   14DOPE  C218 1756   5.158   5.063  15.131  0.2271 -0.1124  0.2986
   14DOPE  H18R 1757   5.144   5.104  15.233  1.5626 -0.6835  0.7439
   14DOPE  H18S 1758   5.088   4.977  15.129  0.5471 -0.3915  0.8246
   14DOPE  H18T 1759   5.122   5.130  15.050  0.6202 -0.6675 -0.3453
   14DOPE   C33 1760   6.459   5.083  15.247  0.1740 -0.3221 -0.3596
   14DOPE   H3X 1761   6.405   5.179  15.261 -0.9707 -0.7278 -1.7618
   14DOPE   H3Y 1762   6.382   5.004  15.258  0.7743 -1.0302 -1.1575
   14DOPE   C34 1763   6.540   5.060  15.115  0.1497  0.1565 -0.7604
   14DOPE   H4X 1764   6.626   5.129  15.103  1.6610 -1.7069 -1.0734
   14DOPE   H4Y 1765   6.589   4.960  15.122 -0.0730 -0.1090 -2.5017
   14DOPE   C35 1766   6.444   5.059  14.991  0.2638 -0.4161 -0.2178
   14DOPE   H5X 1767   6.387   5.154  14.999 -1.0216 -1.2012  0.2667
   14DOPE   H5Y 1768   6.367   4.979  14.997 -0.9569  0.8292  1.3926
   14DOPE   C36 1769   6.512   5.062  14.847  0.3643  0.4932  0.4985
   14DOPE   H6X 1770   6.595   4.988  14.852  1.2248  1.4403  0.4784
   14DOPE   H6Y 1771   6.563   5.159  14.832  0.8000 -0.0101 -1.6892
   14DOPE   C37 1772   6.413   5.013  14.735 -1.0275 -0.0574 -0.0119
   14DOPE   H7X 1773   6.467   5.019  14.638  1.2310 -3.0732  0.9010
   14DOPE   H7Y 1774   6.380   4.908  14.749 -3.4550  0.5824 -0.5595
   14DOPE   C38 1775   6.286   5.099  14.733 -0.0478  0.6618  0.5594
   14DOPE   H8X 1776   6.231   5.096  14.829 -1.3092 -3.9911 -0.0944
   14DOPE   H8Y 1777   6.227   5.031  14.668 -1.5507  2.8090 -0.4604
   14DOPE   C39 1778   6.290   5.242  14.692  0.4196  0.0390  0.3895
   14DOPE   H9X 1779   6.352   5.312  14.750  0.3440  0.5231 -0.1073
   14DOPE  C310 1780   6.239   5.291  14.576 -0.1003  0.0855  0.7250
   14DOPE  H10X 1781   6.260   5.394  14.543 -0.1165 -0.2111 -0.2584
   14DOPE  C311 1782   6.158   5.216  14.470  0.3139  0.1864 -0.6510
   14DOPE  H11X 1783   6.080   5.147  14.510  1.0177  1.0493  2.4713
   14DOPE  H11Y 1784   6.102   5.289  14.408  2.3846 -0.1335 -3.0806
   14DOPE  C312 1785   6.248   5.143  14.366 -0.0274  0.0231 -0.5449
   14DOPE  H12X 1786   6.188   5.090  14.289 -1.9130  1.3341 -0.0505
   14DOPE  H12Y 1787   6.314   5.074  14.424  2.4152  2.9481  0.4084
   14DOPE  C313 1788   6.340   5.243  14.295 -0.3066 -0.9764 -0.1147
   14DOPE  H13X 1789   6.291   5.338  14.265  0.1429 -0.7176 -0.0282
   14DOPE  H13Y 1790   6.420   5.286  14.358 -2.4673 -0.2081  2.2505
   14DOPE  C314 1791   6.410   5.190  14.167  0.7392 -0.1826 -0.3166
   14DOPE  H14X 1792   6.334   5.127  14.115  1.2240  0.9665 -2.5623
   14DOPE  H14Y 1793   6.496   5.121  14.182  1.3100  0.0202 -2.3442
   14DOPE  C315 1794   6.449   5.296  14.066 -0.9852 -0.5924 -0.3717
   14DOPE  H15X 1795   6.502   5.372  14.126  0.4023 -2.8907  1.4809
   14DOPE  H15Y 1796   6.361   5.347  14.021  0.0780  1.7593  0.1128
   14DOPE  C316 1797   6.527   5.237  13.945 -0.1300  0.0513 -0.2665
   14DOPE  H16X 1798   6.477   5.143  13.912  0.3713 -0.2023 -0.3188
   14DOPE  H16Y 1799   6.631   5.213  13.978 -0.6585 -0.1740  1.2924
   14DOPE  C317 1800   6.533   5.318  13.817 -0.6382 -0.0290 -0.5394
   14DOPE  H17X 1801   6.432   5.359  13.794 -1.4009 -2.3584 -1.5823
   14DOPE  H17Y 1802   6.608   5.399  13.828  0.1184 -0.7702 -0.1379
   14DOPE  C318 1803   6.588   5.236  13.702  0.4565  0.0849  0.0118
   14DOPE  H18X 1804   6.624   5.306  13.624  0.2782  2.1305  1.6751
   14DOPE  H18Y 1805   6.683   5.186  13.732  1.0934  0.9443 -0.5121
   14DOPE  H18Z 1806   6.511   5.163  13.668  1.3247 -0.2796 -1.2298
   15DOPE     N 1807   0.813   2.237  16.373 -0.1593 -0.1157  0.6165
   15DOPE   HN1 1808   0.831   2.147  16.421 -2.1421 -1.1927 -0.4956
   15DOPE   HN2 1809   0.873   2.310  16.416  1.9394 -0.8629 -0.8208
   15DOPE   HN3 1810   0.712   2.249  16.394 -0.3306 -1.5197  0.6809
   15DOPE   C12 1811   0.847   2.235  16.226 -0.1182 -1.0432  0.2161
   15DOPE  H12A 1812   0.786   2.159  16.174 -1.1082  0.2399 -0.5664
   15DOPE  H12B 1813   0.955   2.227  16.206 -0.5620 -0.3959 -2.9109
   15DOPE   C11 1814   0.805   2.369  16.147  0.5672 -0.1129  0.0686
   15DOPE  H11A 1815   0.815   2.340  16.040 -0.8090 -1.7303  0.3303
   15DOPE  H11B 1816   0.877   2.448  16.177  0.5115 -0.3449  0.8419
   15DOPE     P 1817   0.597   2.526  16.093  0.1506  0.0008 -0.0830
   15DOPE   O13 1818   0.667   2.644  16.151  0.3216 -0.4601  0.5818
   15DOPE   O14 1819   0.450   2.531  16.117  0.0262 -0.5148 -0.0621
   15DOPE   O11 1820   0.633   2.513  15.938 -0.1603  0.1629 -0.3933
   15DOPE   O12 1821   0.668   2.408  16.169 -0.0334 -0.0772  0.2595
   15DOPE    C1 1822   0.625   2.387  15.879 -0.6058 -0.0704 -0.6011
   15DOPE    HA 1823   0.628   2.299  15.947  0.7713 -0.7243 -1.4497
   15DOPE    HB 1824   0.717   2.373  15.819 -0.6469  1.7348 -1.1624
   15DOPE    C2 1825   0.504   2.384  15.779  0.4240  0.5600  0.6986
   15DOPE    HS 1826   0.513   2.290  15.720  0.3427  0.4217  0.9046
   15DOPE   O21 1827   0.505   2.499  15.699 -0.2565  0.4216 -0.3415
   15DOPE   C21 1828   0.486   2.487  15.570  0.2933 -0.1250 -0.4336
   15DOPE   O22 1829   0.485   2.379  15.509  0.0859 -0.3532  0.0470
   15DOPE   C22 1830   0.483   2.626  15.513  0.0705 -0.9515  0.0673
   15DOPE   H2R 1831   0.568   2.674  15.565 -0.4816 -0.1359  0.2365
   15DOPE   H2S 1832   0.392   2.682  15.542  1.6390  1.0615  1.3529
   15DOPE    C3 1833   0.368   2.370  15.856 -0.1781 -0.8333 -0.6956
   15DOPE    HX 1834   0.364   2.457  15.924  1.5095 -2.7995  2.1292
   15DOPE    HY 1835   0.346   2.276  15.911 -1.1709 -0.5050 -0.5162
   15DOPE   O31 1836   0.261   2.393  15.764 -0.4471  0.1501  0.8488
   15DOPE   C31 1837   0.195   2.292  15.691 -0.1565  0.3648  0.6559
   15DOPE   O32 1838   0.221   2.174  15.715 -1.0822 -0.3677 -0.6228
   15DOPE   C32 1839   0.102   2.345  15.590 -0.2420  0.2512 -0.2617
   15DOPE   H2X 1840   0.152   2.424  15.530  0.2311  1.7178  1.9501
   15DOPE   H2Y 1841   0.063   2.262  15.527  1.0094  0.5925 -1.5307
   15DOPE   C23 1842   0.522   2.630  15.363  0.1135 -0.6611  0.4752
   15DOPE   H3R 1843   0.453   2.563  15.309 -0.9834  0.4771  0.4195
   15DOPE   H3S 1844   0.618   2.578  15.343  0.1164 -1.2794  1.9762
   15DOPE   C24 1845   0.508   2.767  15.301  0.3001 -0.4618 -0.7866
   15DOPE   H4R 1846   0.581   2.839  15.343  0.2576  0.2274 -1.8440
   15DOPE   H4S 1847   0.403   2.798  15.320  0.0247  0.4554 -3.4211
   15DOPE   C25 1848   0.525   2.758  15.147  0.2654  0.0655 -0.0383
   15DOPE   H5R 1849   0.452   2.679  15.119  0.1932  0.9384 -2.5312
   15DOPE   H5S 1850   0.630   2.732  15.124  0.2926 -1.0253  1.1652
   15DOPE   C26 1851   0.502   2.897  15.077  0.3174 -0.3590  0.0310
   15DOPE   H6R 1852   0.564   2.978  15.120  0.2144  0.4688 -1.3339
   15DOPE   H6S 1853   0.394   2.924  15.085  0.2281 -0.8129  0.4228
   15DOPE   C27 1854   0.531   2.889  14.925  0.4258 -0.1772  0.5033
   15DOPE   H7R 1855   0.500   2.791  14.884  0.2387  0.0982 -0.0223
   15DOPE   H7S 1856   0.640   2.892  14.899  0.5658  2.2865  1.1452
   15DOPE   C28 1857   0.454   2.993  14.834  0.0029  0.1880  0.0107
   15DOPE   H8R 1858   0.347   2.970  14.852  0.1218 -1.4397 -1.1512
   15DOPE   H8S 1859   0.463   2.981  14.724 -0.9845  1.6572 -0.2631
   15DOPE   C29 1860   0.477   3.137  14.879 -0.9172  1.3541  0.0460
   15DOPE   H9R 1861   0.532   3.146  14.973 -1.4577  0.0605  0.5129
   15DOPE  C210 1862   0.437   3.255  14.828  0.1408  0.1562 -0.2334
   15DOPE  H10R 1863   0.462   3.347  14.884  3.5926  1.6017 -3.6190
   15DOPE  C211 1864   0.379   3.278  14.691 -0.0749  0.6106  0.1862
   15DOPE  H11R 1865   0.349   3.183  14.641  0.0756  1.0665 -0.8124
   15DOPE  H11S 1866   0.459   3.323  14.627  0.7344 -1.4713 -0.3525
   15DOPE  C212 1867   0.258   3.376  14.684 -0.3062 -0.5614  0.0259
   15DOPE  H12R 1868   0.244   3.419  14.583  1.6565 -0.7405 -0.3668
   15DOPE  H12S 1869   0.290   3.455  14.755 -0.0125 -0.6573  0.0008
   15DOPE  C213 1870   0.123   3.328  14.730  0.3888  0.0697 -0.8977
   15DOPE  H13R 1871   0.052   3.409  14.756  0.7891 -0.3713  1.8112
   15DOPE  H13S 1872   0.128   3.270  14.824 -1.1131 -1.0947 -1.4879
   15DOPE  C214 1873   0.064   3.246  14.616  0.1571  0.0890 -0.0268
   15DOPE  H14R 1874   0.140   3.167  14.601  0.6149  0.4849  0.1980
   15DOPE  H14S 1875   0.061   3.316  14.529  1.4548  1.9342  1.3125
   15DOPE  C215 1876  -0.082   3.181  14.645 -0.5521 -0.2680  0.0964
   15DOPE  H15R 1877  -0.162   3.257  14.653  0.1191  0.5728 -0.9397
   15DOPE  H15S 1878  -0.082   3.114  14.734 -1.1242  0.8039  0.9380
   15DOPE  C216 1879  -0.126   3.087  14.532 -0.4484  0.0991  0.3921
   15DOPE  H16R 1880  -0.140   3.151  14.442 -1.1687 -1.0446 -0.3300
   15DOPE  H16S 1881  -0.231   3.060  14.556 -0.9492  2.2925  0.8973
   15DOPE  C217 1882  -0.046   2.957  14.506  1.1578 -0.8155  0.5436
   15DOPE  H17R 1883  -0.027   2.908  14.604 -0.6794 -1.0742  0.8167
   15DOPE  H17S 1884   0.054   2.984  14.467 -0.1323  1.8701 -1.1750
   15DOPE  C218 1885  -0.102   2.857  14.406 -0.0313  0.4597 -0.7387
   15DOPE  H18R 1886  -0.194   2.812  14.449  1.2959 -2.2813 -0.5267
   15DOPE  H18S 1887  -0.041   2.765  14.391  0.2138 -0.2521  3.4949
   15DOPE  H18T 1888  -0.137   2.915  14.318  0.6807  1.3552 -0.4470
   15DOPE   C33 1889  -0.017   2.427  15.652 -0.0714  1.0133 -0.2962
   15DOPE   H3X 1890   0.019   2.515  15.710 -1.3790  0.9512  0.6718
   15DOPE   H3Y 1891  -0.063   2.360  15.728  0.2657  0.0254 -0.9520
   15DOPE   C34 1892  -0.125   2.475  15.553  0.1013  0.1726  0.1380
   15DOPE   H4X 1893  -0.214   2.498  15.616 -0.8692 -0.0915 -1.0872
   15DOPE   H4Y 1894  -0.095   2.570  15.504 -0.7359  0.9280  1.0378
   15DOPE   C35 1895  -0.160   2.378  15.437 -0.6414 -0.0904 -0.5487
   15DOPE   H5X 1896  -0.198   2.286  15.486 -2.0266  1.5851  1.6706
   15DOPE   H5Y 1897  -0.067   2.345  15.385 -0.5057  0.0936 -0.4246
   15DOPE   C36 1898  -0.277   2.425  15.344  0.5249  0.5340  1.1067
   15DOPE   H6X 1899  -0.263   2.530  15.312  0.8122 -0.0100 -0.6651
   15DOPE   H6Y 1900  -0.368   2.421  15.407  0.6893  0.7354  1.3561
   15DOPE   C37 1901  -0.296   2.341  15.217 -0.1817  0.7718 -1.3218
   15DOPE   H7X 1902  -0.304   2.232  15.234 -2.3603  0.8065 -1.8328
   15DOPE   H7Y 1903  -0.395   2.357  15.168 -0.6545  0.7458 -0.3920
   15DOPE   C38 1904  -0.187   2.363  15.112  0.2167  0.1744  0.6687
   15DOPE   H8X 1905  -0.208   2.278  15.042  0.9935 -0.4530  1.1797
   15DOPE   H8Y 1906  -0.084   2.346  15.148  0.6890  0.0916 -0.6702
   15DOPE   C39 1907  -0.194   2.502  15.048 -0.2319 -0.4517 -0.0275
   15DOPE   H9X 1908  -0.166   2.588  15.110 -0.7629  1.3387 -2.1605
   15DOPE  C310 1909  -0.225   2.527  14.922  0.4877 -0.3375 -0.6665
   15DOPE  H10X 1910  -0.213   2.633  14.897 -0.1449  0.6015  2.6211
   15DOPE  C311 1911  -0.268   2.442  14.811  0.9533  0.4739  0.5335
   15DOPE  H11X 1912  -0.235   2.338  14.829  0.9543  0.5152  0.7803
   15DOPE  H11Y 1913  -0.379   2.447  14.810  0.8858 -0.6588  1.1692
   15DOPE  C312 1914  -0.216   2.484  14.679 -0.1011  0.6274  0.5400
   15DOPE  H12X 1915  -0.106   2.471  14.670 -0.1541 -0.7312  1.5534
   15DOPE  H12Y 1916  -0.234   2.593  14.665  0.3385  0.4645 -1.8040
   15DOPE  C313 1917  -0.280   2.401  14.563  0.0863 -0.0622  0.1725
   15DOPE  H13X 1918  -0.241   2.299  14.580  1.8680  0.0618 -2.4396
   15DOPE  H13Y 1919  -0.390   2.407  14.576  0.1352  0.5088  0.3586
   15DOPE  C314 1920  -0.233   2.458  14.423 -0.3907 -0.4595 -0.4146
   15DOPE  H14X 1921  -0.124   2.456  14.407 -0.6419  0.6518 -2.5597
   15DOPE  H14Y 1922  -0.258   2.566  14.423 -2.5670 -0.8982 -0.2689
   15DOPE  C315 1923  -0.295   2.388  14.306 -0.3825  0.0417  0.2248
   15DOPE  H15X 1924  -0.401   2.370  14.334 -0.3915 -0.0238  0.1494
   15DOPE  H15Y 1925  -0.247   2.289  14.288  0.2916  0.3554  0.2625
   15DOPE  C316 1926  -0.287   2.468  14.177 -0.0278 -0.3133  0.2869
   15DOPE  H16X 1927  -0.323   2.572  14.194 -0.7277 -0.7021  1.3081
   15DOPE  H16Y 1928  -0.359   2.419  14.107 -1.1028 -2.3999  2.6965
   15DOPE  C317 1929  -0.138   2.471  14.125  0.4433 -0.6014  0.5769
   15DOPE  H17X 1930  -0.150   2.541  14.040  1.0046  0.4968  1.3787
   15DOPE  H17Y 1931  -0.077   2.536  14.191 -0.8811  2.2917 -0.8345
   15DOPE  C318 1932  -0.073   2.334  14.077  0.5021 -0.5543  0.3244
   15DOPE  H18X 1933  -0.031   2.269  14.156  2.6919 -0.7461 -0.9129
   15DOPE  H18Y 1934  -0.156   2.285  14.021  1.4185 -1.8718  0.0802
   15DOPE  H18Z 1935   0.008   2.357  14.005  1.7225 -0.1963  1.7722
   16DOPE     N 1936   1.224   3.809  15.725  0.7140 -0.1975  0.1902
   16DOPE   HN1 1937   1.227   3.716  15.678 -3.2611 -0.7209  0.5879
   16DOPE   HN2 1938   1.307   3.868  15.707  0.4830  0.0087 -0.2056
   16DOPE   HN3 1939   1.202   3.802  15.827 -0.7071  0.4925 -0.0381
   16DOPE   C12 1940   1.097   3.866  15.667  0.2510 -0.0523  0.2031
   16DOPE  H12A 1941   1.104   3.870  15.556  2.6410  1.8902  0.3414
   16DOPE  H12B 1942   1.078   3.964  15.714 -0.0024 -1.7556  4.0115
   16DOPE   C11 1943   0.980   3.775  15.709 -0.1874 -0.8101  0.2567
   16DOPE  H11A 1944   1.003   3.672  15.674 -0.5474 -1.1304  0.9458
   16DOPE  H11B 1945   0.883   3.794  15.658 -0.3380 -1.0943  0.4397
   16DOPE     P 1946   0.845   3.823  15.934 -0.0170  0.1969 -0.4595
   16DOPE   O13 1947   0.824   3.971  15.920  0.2790 -0.2443  1.1447
   16DOPE   O14 1948   0.853   3.777  16.076  0.6896  0.2921 -0.1867
   16DOPE   O11 1949   0.733   3.746  15.853  0.3549  0.0407 -0.2223
   16DOPE   O12 1950   0.977   3.778  15.852 -0.2247 -0.1709  0.0585
   16DOPE    C1 1951   0.714   3.607  15.854 -0.7437 -0.5358 -0.4710
   16DOPE    HA 1952   0.618   3.595  15.909 -0.0546 -0.2875  0.8003
   16DOPE    HB 1953   0.790   3.555  15.915  1.0451  2.6560  0.2089
   16DOPE    C2 1954   0.698   3.529  15.719  0.2945 -0.8230  0.1772
   16DOPE    HS 1955   0.803   3.522  15.683  0.2586  2.1067 -0.7565
   16DOPE   O21 1956   0.611   3.614  15.646 -0.5254 -0.0512  0.3946
   16DOPE   C21 1957   0.644   3.623  15.519  0.5043  0.2975  0.4561
   16DOPE   O22 1958   0.745   3.593  15.466  0.2407  0.5273 -0.0442
   16DOPE   C22 1959   0.530   3.682  15.431 -0.3249  0.0446  0.1514
   16DOPE   H2R 1960   0.565   3.666  15.327 -2.1936  1.0534 -0.6808
   16DOPE   H2S 1961   0.520   3.792  15.439 -0.1096  0.0094  1.0133
   16DOPE    C3 1962   0.639   3.392  15.736  0.0353 -0.0572  0.8137
   16DOPE    HX 1963   0.535   3.383  15.774 -0.7889  0.0270 -1.3206
   16DOPE    HY 1964   0.695   3.345  15.821  2.6606  0.9030 -0.2639
   16DOPE   O31 1965   0.648   3.317  15.608  0.3220  0.2931  0.1553
   16DOPE   C31 1966   0.761   3.265  15.568  0.0836  0.0741 -0.2705
   16DOPE   O32 1967   0.862   3.251  15.633  0.0703  0.7205  0.2076
   16DOPE   C32 1968   0.738   3.232  15.421  0.3740 -0.4783 -0.0662
   16DOPE   H2X 1969   0.656   3.302  15.395 -1.1098 -1.3858  1.9142
   16DOPE   H2Y 1970   0.831   3.264  15.369  0.3355  0.0438  0.1874
   16DOPE   C23 1971   0.388   3.621  15.445  0.0610  0.3759  0.8304
   16DOPE   H3R 1972   0.327   3.673  15.368 -2.8340 -2.6158  0.9014
   16DOPE   H3S 1973   0.345   3.651  15.543 -0.2147 -0.2665  0.9077
   16DOPE   C24 1974   0.389   3.472  15.406  0.4067  0.8214  0.0189
   16DOPE   H4R 1975   0.462   3.414  15.466 -1.1985 -1.5824 -0.2354
   16DOPE   H4S 1976   0.418   3.468  15.299 -0.4794  1.0784 -0.2425
   16DOPE   C25 1977   0.244   3.424  15.416  0.8093 -0.4595 -0.0831
   16DOPE   H5R 1978   0.200   3.458  15.512  1.0464  1.0480 -0.4741
   16DOPE   H5S 1979   0.244   3.313  15.416 -0.3713 -0.4986  1.5091
   16DOPE   C26 1980   0.150   3.471  15.303 -0.5347 -0.8524  0.2674
   16DOPE   H6R 1981   0.187   3.444  15.202 -1.3108 -0.3693 -0.1525
   16DOPE   H6S 1982   0.136   3.582  15.307  0.4784 -0.5598 -2.6072
   16DOPE   C27 1983   0.017   3.401  15.317 -0.3162 -0.3006 -0.2649
   16DOPE   H7R 1984  -0.010   3.412  15.425  0.0997  0.0134 -0.1897
   16DOPE   H7S 1985   0.023   3.292  15.298  1.3237 -0.1066 -0.9768
   16DOPE   C28 1986  -0.101   3.458  15.235  0.1897 -0.3652 -0.2853
   16DOPE   H8R 1987  -0.103   3.564  15.269  3.0292 -0.2513 -0.2624
   16DOPE   H8S 1988  -0.199   3.427  15.279  0.8488  0.3459  1.8262
   16DOPE   C29 1989  -0.099   3.433  15.089  0.5164  0.5759 -0.9514
   16DOPE   H9R 1990  -0.001   3.405  15.047  1.3029 -0.7571  1.5842
   16DOPE  C210 1991  -0.208   3.439  15.012  0.6643 -0.2380  0.2183
   16DOPE  H10R 1992  -0.200   3.426  14.903 -1.7183 -0.0926 -0.0138
   16DOPE  C211 1993  -0.347   3.472  15.052 -0.2479 -0.2624 -0.0642
   16DOPE  H11R 1994  -0.375   3.542  14.970  2.1136  0.3706 -0.4044
   16DOPE  H11S 1995  -0.360   3.542  15.136  0.6363 -0.1819  0.0185
   16DOPE  C212 1996  -0.442   3.358  15.080  0.2831 -0.4512  0.1309
   16DOPE  H12R 1997  -0.384   3.292  15.148  1.2842 -0.1608 -0.4220
   16DOPE  H12S 1998  -0.458   3.298  14.988 -1.0681  0.2421 -0.1022
   16DOPE  C213 1999  -0.576   3.396  15.149 -0.1211  0.4780 -0.1818
   16DOPE  H13R 2000  -0.536   3.458  15.231  0.7009 -0.4147  0.1036
   16DOPE  H13S 2001  -0.628   3.308  15.192 -1.9606  2.5130  2.0961
   16DOPE  C214 2002  -0.665   3.474  15.061  0.2276 -0.3595 -0.7933
   16DOPE  H14R 2003  -0.693   3.409  14.976 -0.0916 -3.0297  1.2128
   16DOPE  H14S 2004  -0.612   3.564  15.022 -1.2256  1.0617  0.3155
   16DOPE  C215 2005  -0.796   3.522  15.143 -0.8079 -0.1799  0.5771
   16DOPE  H15R 2006  -0.757   3.600  15.213  0.5392 -0.3667  0.0674
   16DOPE  H15S 2007  -0.830   3.434  15.202 -1.2992 -0.2862  0.1432
   16DOPE  C216 2008  -0.914   3.556  15.047  0.3937  0.8265  0.1089
   16DOPE  H16R 2009  -0.985   3.607  15.116  0.6257  0.7378  0.4205
   16DOPE  H16S 2010  -0.949   3.457  15.011 -0.5628  1.1006  0.2616
   16DOPE  C217 2011  -0.867   3.651  14.930  0.7837  0.7366 -0.4360
   16DOPE  H17R 2012  -0.775   3.610  14.883  0.4215 -0.7506  0.1037
   16DOPE  H17S 2013  -0.846   3.753  14.967 -2.1893  1.4102 -0.3650
   16DOPE  C218 2014  -0.985   3.665  14.829 -0.5052  0.3292 -0.5335
   16DOPE  H18R 2015  -1.013   3.563  14.796 -0.9955 -0.1486  1.2578
   16DOPE  H18S 2016  -0.954   3.729  14.743  3.7835 -1.9500 -0.9598
   16DOPE  H18T 2017  -1.073   3.700  14.886  1.5246  2.4885  1.4956
   16DOPE   C33 2018   0.704   3.084  15.394 -0.2748 -1.1430  0.3865
   16DOPE   H3X 2019   0.711   3.071  15.283 -0.3310 -0.1496  0.2612
   16DOPE   H3Y 2020   0.600   3.058  15.423 -0.4688 -1.5993 -0.6602
   16DOPE   C34 2021   0.814   2.999  15.462 -0.2048  0.6801  0.3659
   16DOPE   H4X 2022   0.910   3.056  15.465 -0.5166  1.2140  0.3893
   16DOPE   H4Y 2023   0.795   2.982  15.570  0.0747 -0.5730  0.2281
   16DOPE   C35 2024   0.862   2.877  15.380  0.1784 -0.6103  0.3288
   16DOPE   H5X 2025   0.908   2.909  15.284  0.0845  1.7966  1.0397
   16DOPE   H5Y 2026   0.771   2.816  15.363 -0.8449  0.2944  2.2403
   16DOPE   C36 2027   0.972   2.796  15.456 -0.3798  0.0207  0.5030
   16DOPE   H6X 2028   0.940   2.788  15.562 -1.5070  0.3212  0.1994
   16DOPE   H6Y 2029   1.065   2.856  15.443 -0.6700  0.5773  0.9434
   16DOPE   C37 2030   1.004   2.657  15.398  0.4890  0.3731 -0.2821
   16DOPE   H7X 2031   1.084   2.606  15.455 -0.1113 -0.6589 -0.3451
   16DOPE   H7Y 2032   0.911   2.597  15.407  0.4314  0.5810  0.5545
   16DOPE   C38 2033   1.057   2.670  15.258 -0.1816 -0.4173  0.2901
   16DOPE   H8X 2034   1.154   2.724  15.262  1.4537 -3.0515 -0.8479
   16DOPE   H8Y 2035   0.989   2.725  15.191 -0.7213 -1.0500  0.3149
   16DOPE   C39 2036   1.081   2.524  15.215  0.6619  0.7477 -0.2282
   16DOPE   H9X 2037   1.143   2.461  15.280 -1.6620 -2.3055 -0.7683
   16DOPE  C310 2038   1.024   2.465  15.106 -0.1345  0.4308 -0.4080
   16DOPE  H10X 2039   1.051   2.359  15.098  2.0608  0.5905  3.0043
   16DOPE  C311 2040   0.943   2.513  14.981 -0.0386 -0.3834  0.0549
   16DOPE  H11X 2041   0.949   2.435  14.902 -1.3571  1.1372 -1.6582
   16DOPE  H11Y 2042   0.836   2.522  15.012  0.1628 -0.7491  0.8753
   16DOPE  C312 2043   0.995   2.648  14.928  0.4798 -0.7636 -1.5227
   16DOPE  H12X 2044   1.105   2.656  14.942  0.3122  1.3746 -1.1084
   16DOPE  H12Y 2045   0.949   2.732  14.984  0.4052 -2.2313  0.7267
   16DOPE  C313 2046   0.960   2.664  14.777 -0.2383  0.5716  0.2383
   16DOPE  H13X 2047   1.013   2.582  14.724 -0.8359 -0.1733  0.7894
   16DOPE  H13Y 2048   0.850   2.661  14.762 -0.4964  2.9741  1.1072
   16DOPE  C314 2049   1.016   2.791  14.717  0.0340  0.2258 -0.2509
   16DOPE  H14X 2050   1.121   2.803  14.749  0.9708  1.1152 -3.3278
   16DOPE  H14Y 2051   0.964   2.883  14.750  0.1023 -0.5720  2.2655
   16DOPE  C315 2052   1.025   2.779  14.564 -0.0912 -0.7764  0.0843
   16DOPE  H15X 2053   1.085   2.689  14.538  1.5252  0.2748  0.0391
   16DOPE  H15Y 2054   1.088   2.869  14.548 -1.6234  0.7686  2.1010
   16DOPE  C316 2055   0.886   2.798  14.497 -0.1239 -0.0482  0.5489
   16DOPE  H16X 2056   0.832   2.883  14.544 -0.4251  1.5359 -2.4147
   16DOPE  H16Y 2057   0.835   2.700  14.486  0.8949 -0.3765 -1.8230
   16DOPE  C317 2058   0.886   2.853  14.364 -0.9159  0.7391  0.2942
   16DOPE  H17X 2059   0.914   2.960  14.366  1.3571  0.1832  0.7749
   16DOPE  H17Y 2060   0.956   2.801  14.296 -1.5722 -0.0899  0.2322
   16DOPE  C318 2061   0.742   2.837  14.309 -0.4652 -0.8559 -0.4065
   16DOPE  H18X 2062   0.732   2.879  14.206 -2.8111 -0.0746  0.0851
   16DOPE  H18Y 2063   0.692   2.737  14.310  0.4848 -1.3380  0.4237
   16DOPE  H18Z 2064   0.676   2.905  14.366  0.3870  0.8915 -1.4103
   17DOPE     N 2065   3.032   0.601  15.886  0.2270 -0.5754 -0.5025
   17DOPE   HN1 2066   3.083   0.638  15.969 -1.0122 -4.6390  2.4006
   17DOPE   HN2 2067   2.980   0.521  15.926 -1.2008  1.4311  1.9840
   17DOPE   HN3 2068   3.094   0.575  15.807 -0.6551 -2.2066 -0.6912
   17DOPE   C12 2069   2.931   0.698  15.827 -0.3518  0.0240 -0.1156
   17DOPE  H12A 2070   2.999   0.776  15.785  0.3337 -0.4072  0.1832
   17DOPE  H12B 2071   2.852   0.727  15.900 -2.6400 -2.4569 -1.4349
   17DOPE   C11 2072   2.863   0.620  15.701 -0.5573  0.1998 -0.1930
   17DOPE  H11A 2073   2.936   0.559  15.643 -2.2315  1.1583 -3.5260
   17DOPE  H11B 2074   2.819   0.701  15.639 -3.9667  0.0468  1.8010
   17DOPE     P 2075   2.740   0.393  15.696 -0.2043 -0.0842  0.1440
   17DOPE   O13 2076   2.635   0.329  15.777  0.9530 -0.0499  0.5247
   17DOPE   O14 2077   2.869   0.322  15.694 -0.8567 -0.0325  0.5411
   17DOPE   O11 2078   2.693   0.411  15.546  0.0624  0.2995 -0.0722
   17DOPE   O12 2079   2.748   0.548  15.747  0.4462 -0.6064  0.3671
   17DOPE    C1 2080   2.576   0.477  15.502 -0.0209 -0.7355 -0.1048
   17DOPE    HA 2081   2.581   0.582  15.539  0.6254 -1.1315  0.9726
   17DOPE    HB 2082   2.483   0.432  15.545 -0.8909  1.3291  0.3086
   17DOPE    C2 2083   2.566   0.483  15.340 -0.2904  0.4169 -0.8554
   17DOPE    HS 2084   2.462   0.517  15.320  0.0755  1.3880 -1.1100
   17DOPE   O21 2085   2.593   0.351  15.281  0.3128 -0.2130  0.0806
   17DOPE   C21 2086   2.504   0.257  15.291 -0.1897  0.0731 -0.2021
   17DOPE   O22 2087   2.387   0.272  15.329 -0.1186  0.2606 -0.6600
   17DOPE   C22 2088   2.570   0.127  15.242 -0.2744 -0.3361  0.0374
   17DOPE   H2R 2089   2.656   0.107  15.309 -0.3237 -1.1582 -0.1320
   17DOPE   H2S 2090   2.604   0.153  15.139 -1.7767  2.4112  0.1593
   17DOPE    C3 2091   2.665   0.591  15.286 -0.8507 -0.3900  0.1654
   17DOPE    HX 2092   2.765   0.554  15.314  1.3986  2.2211 -3.4919
   17DOPE    HY 2093   2.639   0.686  15.338  0.9364  1.5147 -2.1647
   17DOPE   O31 2094   2.675   0.613  15.137  0.5719 -0.3268 -0.1247
   17DOPE   C31 2095   2.580   0.703  15.101  0.5010  0.0366 -0.4389
   17DOPE   O32 2096   2.517   0.772  15.176 -0.1703 -0.3232 -0.3479
   17DOPE   C32 2097   2.555   0.673  14.954  0.0565  0.3830 -0.8324
   17DOPE   H2X 2098   2.653   0.673  14.901 -0.8347  0.6543 -2.5518
   17DOPE   H2Y 2099   2.513   0.571  14.946 -1.1945  0.8367 -0.3448
   17DOPE   C23 2100   2.483  -0.002  15.240 -0.0391 -0.0146  0.8732
   17DOPE   H3R 2101   2.387   0.010  15.186  0.7933 -1.4321 -1.0562
   17DOPE   H3S 2102   2.462  -0.028  15.345 -0.4540  0.0806  0.8154
   17DOPE   C24 2103   2.538  -0.118  15.167 -0.3750  0.4822  0.4379
   17DOPE   H4R 2104   2.643  -0.137  15.199 -0.5927 -0.9423  0.3755
   17DOPE   H4S 2105   2.533  -0.089  15.060 -0.8395  0.3553  0.4218
   17DOPE   C25 2106   2.441  -0.242  15.168  0.0971 -0.7108 -0.4188
   17DOPE   H5R 2107   2.336  -0.208  15.176  1.0649  2.1898  1.6002
   17DOPE   H5S 2108   2.466  -0.300  15.260 -0.7230 -0.6554 -0.1528
   17DOPE   C26 2109   2.436  -0.327  15.033  0.1514  0.3396  0.5941
   17DOPE   H6R 2110   2.388  -0.268  14.952  0.7968  0.1072  0.0389
   17DOPE   H6S 2111   2.380  -0.420  15.056  3.5186 -1.7923  0.7749
   17DOPE   C27 2112   2.569  -0.369  14.978  0.3319  0.3944  0.3972
   17DOPE   H7R 2113   2.643  -0.379  15.061  0.6955  0.2335  0.0559
   17DOPE   H7S 2114   2.608  -0.293  14.907 -0.5428  2.2157  1.7759
   17DOPE   C28 2115   2.576  -0.506  14.904  0.2524 -0.6066  0.4003
   17DOPE   H8R 2116   2.507  -0.578  14.953 -0.6384  0.7293  1.2022
   17DOPE   H8S 2117   2.677  -0.550  14.892  1.5803  1.7871  1.9845
   17DOPE   C29 2118   2.519  -0.483  14.764 -0.3959 -0.4838 -0.5786
   17DOPE   H9R 2119   2.555  -0.395  14.708  0.7525 -1.5738 -1.6471
   17DOPE  C210 2120   2.423  -0.555  14.709 -0.3672  0.7519  0.6410
   17DOPE  H10R 2121   2.404  -0.523  14.606 -0.5781  0.4722  0.5903
   17DOPE  C211 2122   2.342  -0.669  14.762  0.0771  0.1816 -0.0667
   17DOPE  H11R 2123   2.366  -0.709  14.863 -1.1877  1.5331  0.8143
   17DOPE  H11S 2124   2.358  -0.746  14.685 -0.4257  0.2032 -0.1957
   17DOPE  C212 2125   2.188  -0.644  14.768 -0.0496 -0.4477  0.3885
   17DOPE  H12R 2126   2.141  -0.729  14.822  0.5782 -2.0452 -1.4846
   17DOPE  H12S 2127   2.153  -0.645  14.663 -1.7408 -1.9080  0.9259
   17DOPE  C213 2128   2.144  -0.520  14.855  0.1457 -0.2429 -0.4674
   17DOPE  H13R 2129   2.151  -0.429  14.791 -1.9331  0.3545  0.0644
   17DOPE  H13S 2130   2.205  -0.507  14.947 -1.2209 -0.5337  0.5021
   17DOPE  C214 2131   1.998  -0.543  14.895 -0.6025 -0.1622  0.6687
   17DOPE  H14R 2132   1.964  -0.456  14.955  0.6141  1.3050 -0.6772
   17DOPE  H14S 2133   2.002  -0.639  14.950 -1.6940 -0.2602  0.5955
   17DOPE  C215 2134   1.890  -0.565  14.786 -0.3107 -0.5344  0.5042
   17DOPE  H15R 2135   1.786  -0.581  14.822 -2.2140  0.3747 -3.8570
   17DOPE  H15S 2136   1.916  -0.656  14.729 -0.1962 -2.0841  2.9069
   17DOPE  C216 2137   1.874  -0.442  14.686 -0.1933  0.7607 -0.3299
   17DOPE  H16R 2138   1.952  -0.430  14.608 -0.9687 -0.4759 -1.3293
   17DOPE  H16S 2139   1.880  -0.355  14.756  0.4903  0.0604  0.5090
   17DOPE  C217 2140   1.739  -0.443  14.617  0.5414  0.2832  0.0348
   17DOPE  H17R 2141   1.657  -0.479  14.684  0.0346  0.1251 -0.6619
   17DOPE  H17S 2142   1.740  -0.511  14.530  1.2858  0.3517 -0.0123
   17DOPE  C218 2143   1.701  -0.306  14.550 -0.2317  0.3504  0.0657
   17DOPE  H18R 2144   1.605  -0.309  14.493 -1.7005  0.8887  2.3926
   17DOPE  H18S 2145   1.777  -0.286  14.471  1.3601  0.9365  1.6980
   17DOPE  H18T 2146   1.689  -0.226  14.625  0.9677  0.1093  0.5309
   17DOPE   C33 2147   2.450   0.770  14.899 -0.7603 -0.2723  0.9126
   17DOPE   H3X 2148   2.464   0.877  14.923  1.0515  0.2302 -1.7919
   17DOPE   H3Y 2149   2.354   0.733  14.940 -0.2327 -0.4169  2.0667
   17DOPE   C34 2150   2.439   0.764  14.741  0.5087  0.3995 -0.0035
   17DOPE   H4X 2151   2.404   0.661  14.717  3.8703 -0.7364 -0.5437
   17DOPE   H4Y 2152   2.361   0.839  14.716  1.0499  0.8267 -0.4222
   17DOPE   C35 2153   2.562   0.812  14.665 -0.0613  0.7957  0.4097
   17DOPE   H5X 2154   2.653   0.761  14.704  0.0697  1.0185  0.4000
   17DOPE   H5Y 2155   2.585   0.918  14.687  1.4471  0.8939 -1.4334
   17DOPE   C36 2156   2.577   0.788  14.517  0.9793 -0.1373 -0.9425
   17DOPE   H6X 2157   2.490   0.838  14.470 -0.9456 -1.6892  0.7491
   17DOPE   H6Y 2158   2.562   0.680  14.497  0.7140 -0.4210  0.6481
   17DOPE   C37 2159   2.706   0.823  14.457 -0.4105  0.1095 -0.1576
   17DOPE   H7X 2160   2.742   0.927  14.447  1.2080 -0.4710 -0.6068
   17DOPE   H7Y 2161   2.785   0.770  14.514 -1.0916 -0.2690  0.4532
   17DOPE   C38 2162   2.719   0.759  14.311  0.3574 -0.4365 -0.2572
   17DOPE   H8X 2163   2.661   0.830  14.249 -0.1928  0.2895  1.0356
   17DOPE   H8Y 2164   2.679   0.656  14.306  1.4782 -1.1458  2.7561
   17DOPE   C39 2165   2.859   0.745  14.272  0.0525 -0.1097  0.1695
   17DOPE   H9X 2166   2.922   0.693  14.345  0.5480 -0.6440 -0.6153
   17DOPE  C310 2167   2.928   0.792  14.167  0.0505  0.0970  0.2110
   17DOPE  H10X 2168   3.032   0.758  14.155 -0.2039 -0.0514 -2.0246
   17DOPE  C311 2169   2.872   0.871  14.050 -0.3608  0.1441 -0.2441
   17DOPE  H11X 2170   2.903   0.815  13.959  0.2240  0.1396 -0.0435
   17DOPE  H11Y 2171   2.761   0.857  14.050 -0.4784  1.0289 -0.3612
   17DOPE  C312 2172   2.924   1.013  14.041 -0.2566  0.0191 -0.0798
   17DOPE  H12X 2173   3.030   0.997  14.011 -1.3398 -2.5169 -3.1621
   17DOPE  H12Y 2174   2.913   1.071  14.135 -2.2231 -0.2757 -0.0848
   17DOPE  C313 2175   2.871   1.099  13.923 -0.9444 -0.3397 -0.4849
   17DOPE  H13X 2176   2.907   1.196  13.965  2.3678 -1.4413 -0.5103
   17DOPE  H13Y 2177   2.936   1.079  13.835 -0.9254 -2.5155 -0.0185
   17DOPE  C314 2178   2.719   1.115  13.897 -0.0807  0.2822 -0.6931
   17DOPE  H14X 2179   2.670   1.117  13.997  3.0550 -0.6577  0.9877
   17DOPE  H14Y 2180   2.704   1.016  13.849  0.8785  0.4149 -1.2815
   17DOPE  C315 2181   2.675   1.224  13.809 -0.0150  0.2238  0.0696
   17DOPE  H15X 2182   2.725   1.217  13.710 -0.3597 -1.4976 -0.0092
   17DOPE  H15Y 2183   2.700   1.323  13.853 -2.6017  1.2084 -0.4980
   17DOPE  C316 2184   2.527   1.227  13.803 -0.0015 -0.0232 -0.3433
   17DOPE  H16X 2185   2.480   1.268  13.894 -0.2903 -0.0037 -0.4976
   17DOPE  H16Y 2186   2.493   1.122  13.787  1.9890 -1.0994  1.8736
   17DOPE  C317 2187   2.485   1.317  13.681 -0.1304  0.1825  0.6929
   17DOPE  H17X 2188   2.546   1.269  13.602  0.2901  1.9397 -0.0934
   17DOPE  H17Y 2189   2.376   1.307  13.660  0.0118  0.0338 -0.0090
   17DOPE  C318 2190   2.509   1.466  13.700  0.6723 -0.0144  0.0393
   17DOPE  H18X 2191   2.610   1.496  13.735  0.4406  0.5005  0.2806
   17DOPE  H18Y 2192   2.468   1.530  13.619 -1.2683 -0.1027  0.8851
   17DOPE  H18Z 2193   2.436   1.504  13.775  0.0250 -2.2318  0.6111
   18DOPE     N 2194   7.209   3.882  16.213  0.1689 -0.2402 -0.6071
   18DOPE   HN1 2195   7.221   3.985  16.201 -0.0478 -0.1107  0.1858
   18DOPE   HN2 2196   7.106   3.864  16.210 -0.1280  1.1907 -0.1223
   18DOPE   HN3 2197   7.246   3.846  16.303 -2.7000 -0.0562  0.7591
   18DOPE   C12 2198   7.286   3.797  16.103  0.3397  0.0055 -0.2926
   18DOPE  H12A 2199   7.225   3.798  16.010 -4.2688 -0.2567  2.4430
   18DOPE  H12B 2200   7.291   3.692  16.139 -2.4579 -0.4624 -1.0485
   18DOPE   C11 2201   7.431   3.847  16.076  0.3063 -0.3774  0.2905
   18DOPE  H11A 2202   7.424   3.950  16.034  2.7805 -0.6830 -1.0743
   18DOPE  H11B 2203   7.465   3.775  15.998 -1.3918 -0.5016 -0.3684
   18DOPE     P 2204   7.596   3.948  16.250 -0.2751  0.3829 -0.5574
   18DOPE   O13 2205   7.698   3.890  16.332 -0.0868 -0.0308  0.6560
   18DOPE   O14 2206   7.520   4.062  16.308 -0.3318 -0.1796 -0.4491
   18DOPE   O11 2207   7.661   3.991  16.115  0.4363 -0.0574  0.0429
   18DOPE   O12 2208   7.514   3.840  16.191 -0.2337 -0.1809  0.2840
   18DOPE    C1 2209   7.732   3.909  16.022 -0.5977 -0.3393  0.4756
   18DOPE    HA 2210   7.689   3.807  16.011  0.1740 -0.6874  0.5992
   18DOPE    HB 2211   7.829   3.888  16.073  0.7999  2.8258 -0.6266
   18DOPE    C2 2212   7.745   3.978  15.876  0.3633 -0.3286  0.2397
   18DOPE    HS 2213   7.765   4.086  15.892 -0.9121  0.0850 -0.7769
   18DOPE   O21 2214   7.623   3.949  15.804 -0.2593  0.0353 -0.7872
   18DOPE   C21 2215   7.587   4.048  15.716  0.3117  0.5064 -0.5245
   18DOPE   O22 2216   7.651   4.148  15.688 -0.3038 -0.2390  0.2061
   18DOPE   C22 2217   7.439   4.031  15.672  0.2091  0.3591  0.2338
   18DOPE   H2R 2218   7.381   4.062  15.762  0.4361  0.9321  0.1834
   18DOPE   H2S 2219   7.433   3.920  15.668 -0.7826  0.3197  1.7925
   18DOPE    C3 2220   7.858   3.917  15.798 -0.0033  1.2667  0.1678
   18DOPE    HX 2221   7.819   3.825  15.751  1.0293  1.6703 -1.5833
   18DOPE    HY 2222   7.938   3.888  15.870 -0.8665 -1.0635  0.2513
   18DOPE   O31 2223   7.909   3.999  15.696  0.8780 -0.2211  0.0254
   18DOPE   C31 2224   7.986   4.103  15.737  0.6096  0.5391 -0.1866
   18DOPE   O32 2225   8.037   4.119  15.847 -0.1694 -0.5922  0.3078
   18DOPE   C32 2226   8.011   4.186  15.609  0.4014 -0.1698 -0.0410
   18DOPE   H2X 2227   7.989   4.116  15.525  1.6465  1.0634 -1.4749
   18DOPE   H2Y 2228   7.928   4.258  15.598 -0.4295 -1.3557 -1.9762
   18DOPE   C23 2229   7.394   4.098  15.541  0.2829  0.2294  0.1719
   18DOPE   H3R 2230   7.448   4.043  15.461 -0.1972  2.1186 -1.5138
   18DOPE   H3S 2231   7.423   4.205  15.545  1.6603 -0.1367  0.9496
   18DOPE   C24 2232   7.243   4.073  15.515  0.7801  0.1333 -0.1611
   18DOPE   H4R 2233   7.239   3.969  15.476  2.9104  0.0702 -0.3495
   18DOPE   H4S 2234   7.210   4.141  15.433  0.8161  0.5120  0.1352
   18DOPE   C25 2235   7.144   4.080  15.630  0.1055 -0.6143 -0.4488
   18DOPE   H5R 2236   7.172   4.015  15.716  3.4165  0.2232 -0.7529
   18DOPE   H5S 2237   7.042   4.058  15.593  0.5015 -1.1706 -1.2263
   18DOPE   C26 2238   7.141   4.218  15.704  0.5027 -0.4411  0.3549
   18DOPE   H6R 2239   7.238   4.258  15.740 -0.3878  0.2266  2.1512
   18DOPE   H6S 2240   7.093   4.215  15.805 -0.1528 -2.2116  0.0360
   18DOPE   C27 2241   7.069   4.316  15.613  0.0820 -0.1193 -0.6089
   18DOPE   H7R 2242   6.974   4.285  15.566  0.4871  1.0691 -2.3091
   18DOPE   H7S 2243   7.137   4.333  15.526 -0.7908 -1.2615 -1.5349
   18DOPE   C28 2244   7.059   4.453  15.693 -0.4289 -0.2804  0.1318
   18DOPE   H8R 2245   7.149   4.471  15.755 -1.1786 -0.1317  1.2136
   18DOPE   H8S 2246   6.987   4.430  15.775  0.9653  2.6084  2.3574
   18DOPE   C29 2247   7.030   4.586  15.629  0.4330  0.5731 -0.2566
   18DOPE   H9R 2248   6.932   4.627  15.659  0.6699 -0.8332  2.7739
   18DOPE  C210 2249   7.121   4.668  15.569  0.5426  0.0542 -0.3153
   18DOPE  H10R 2250   7.076   4.754  15.517 -0.0629  0.7659  1.3291
   18DOPE  C211 2251   7.264   4.632  15.549 -0.0806 -0.5772 -0.2169
   18DOPE  H11R 2252   7.294   4.532  15.587 -2.3304 -0.7777  1.2205
   18DOPE  H11S 2253   7.332   4.696  15.611  0.3073 -2.8444  1.8582
   18DOPE  C212 2254   7.317   4.651  15.406 -0.6075  0.7465 -0.1137
   18DOPE  H12R 2255   7.253   4.582  15.346 -0.4239  0.8528 -0.4380
   18DOPE  H12S 2256   7.420   4.608  15.402 -1.0193 -0.5857  1.8905
   18DOPE  C213 2257   7.327   4.797  15.359  0.2560  0.2706  0.6372
   18DOPE  H13R 2258   7.406   4.856  15.410 -1.4018  0.6130  2.9849
   18DOPE  H13S 2259   7.231   4.852  15.357 -0.3912 -0.8339 -1.0395
   18DOPE  C214 2260   7.364   4.809  15.215 -0.4083 -0.0661  0.5200
   18DOPE  H14R 2261   7.315   4.725  15.162  0.8442  0.1919 -1.1561
   18DOPE  H14S 2262   7.465   4.762  15.213  0.0794  0.9440  0.2551
   18DOPE  C215 2263   7.351   4.950  15.155 -0.0002 -0.4096  0.4108
   18DOPE  H15R 2264   7.437   5.008  15.194 -0.0468 -1.5942  2.3916
   18DOPE  H15S 2265   7.261   4.999  15.198 -0.5182 -1.5946  0.7254
   18DOPE  C216 2266   7.357   4.947  15.000  0.2054 -0.6907 -0.1615
   18DOPE  H16R 2267   7.368   5.052  14.966  1.8333 -0.5105  0.7994
   18DOPE  H16S 2268   7.257   4.907  14.973 -0.0025  0.2194 -0.7867
   18DOPE  C217 2269   7.476   4.867  14.928 -0.2492 -0.7074 -0.5751
   18DOPE  H17R 2270   7.461   4.765  14.970  0.6691 -0.9899 -0.9152
   18DOPE  H17S 2271   7.574   4.906  14.962 -0.2248 -0.4598 -0.9257
   18DOPE  C218 2272   7.469   4.869  14.777 -0.6280  0.5288 -0.0328
   18DOPE  H18R 2273   7.454   4.970  14.733 -0.7917  0.2881 -0.5317
   18DOPE  H18S 2274   7.388   4.811  14.728  0.2918  0.0351 -1.0254
   18DOPE  H18T 2275   7.567   4.842  14.732 -1.2543  1.8348 -2.3719
   18DOPE   C33 2276   8.146   4.258  15.606  0.3007  0.3904  0.2706
   18DOPE   H3X 2277   8.167   4.321  15.695  3.4834 -0.5737  0.3619
   18DOPE   H3Y 2278   8.141   4.336  15.527 -1.6156  0.5961  0.5493
   18DOPE   C34 2279   8.278   4.167  15.594  0.1674 -0.1428 -0.6556
   18DOPE   H4X 2280   8.355   4.242  15.622  1.3615 -1.5927  0.0618
   18DOPE   H4Y 2281   8.286   4.102  15.684  3.6904 -0.5614 -1.1519
   18DOPE   C35 2282   8.296   4.097  15.465 -0.6710  0.5756  0.1612
   18DOPE   H5X 2283   8.311   4.170  15.383 -0.6824  1.7578  1.1815
   18DOPE   H5Y 2284   8.200   4.046  15.441 -0.0723  0.5889 -2.5401
   18DOPE   C36 2285   8.411   3.990  15.470 -0.0761 -0.7370 -0.2544
   18DOPE   H6X 2286   8.407   3.948  15.573 -0.9151 -0.9926 -0.3873
   18DOPE   H6Y 2287   8.510   4.040  15.460 -0.0000 -0.8014  0.1517
   18DOPE   C37 2288   8.395   3.870  15.378  0.3904 -0.8419 -0.0395
   18DOPE   H7X 2289   8.467   3.795  15.417  0.3345 -1.3152 -0.8328
   18DOPE   H7Y 2290   8.294   3.826  15.390  0.4811 -1.4007 -1.2317
   18DOPE   C38 2291   8.430   3.910  15.234 -0.5761 -0.0143 -0.9108
   18DOPE   H8X 2292   8.535   3.947  15.232  0.9558 -3.8556 -0.9309
   18DOPE   H8Y 2293   8.369   3.997  15.202 -0.2513 -0.0929 -1.7746
   18DOPE   C39 2294   8.419   3.801  15.133 -0.3875 -0.3707  0.2881
   18DOPE   H9X 2295   8.331   3.739  15.153 -1.4443  1.8489  3.3602
   18DOPE  C310 2296   8.521   3.756  15.055 -0.0582 -0.5971 -0.4069
   18DOPE  H10X 2297   8.505   3.666  14.993  0.1496 -1.4899  0.8080
   18DOPE  C311 2298   8.662   3.810  15.049 -0.9881 -0.6451  0.6802
   18DOPE  H11X 2299   8.702   3.859  15.141  1.2984 -1.4150  0.1573
   18DOPE  H11Y 2300   8.734   3.726  15.035 -0.1317  0.2357 -0.4179
   18DOPE  C312 2301   8.682   3.913  14.936 -0.1545 -0.3232  0.7315
   18DOPE  H12X 2302   8.600   3.987  14.950 -0.2587 -0.6040  1.7463
   18DOPE  H12Y 2303   8.650   3.872  14.838 -0.3882 -1.2939  1.1983
   18DOPE  C313 2304   8.823   3.977  14.934  0.1497 -0.6206  0.0678
   18DOPE  H13X 2305   8.839   4.045  15.020  0.9935  0.0461 -0.5936
   18DOPE  H13Y 2306   8.898   3.895  14.938  0.1502 -0.6066  0.3913
   18DOPE  C314 2307   8.849   4.046  14.802 -0.4806  0.5205 -0.1478
   18DOPE  H14X 2308   8.759   4.107  14.780 -0.4738  1.4497  2.0950
   18DOPE  H14Y 2309   8.853   3.965  14.727 -2.4467  0.2506 -0.0101
   18DOPE  C315 2310   8.985   4.112  14.813 -0.7958 -0.0705  0.5298
   18DOPE  H15X 2311   9.058   4.046  14.864 -2.4736 -0.7799  2.1192
   18DOPE  H15Y 2312   8.991   4.204  14.875 -0.6149  1.7912 -2.0545
   18DOPE  C316 2313   9.046   4.165  14.680  0.1356  0.2813 -0.3439
   18DOPE  H16X 2314   8.983   4.251  14.648  1.8707  2.5931  2.0406
   18DOPE  H16Y 2315   9.033   4.076  14.614 -1.2472  1.5285 -1.8684
   18DOPE  C317 2316   9.186   4.208  14.695  0.1065 -0.0115 -0.9296
   18DOPE  H17X 2317   9.184   4.286  14.774 -3.1805 -1.1084  0.2572
   18DOPE  H17Y 2318   9.255   4.135  14.743  0.9217  0.3291 -1.5598
   18DOPE  C318 2319   9.248   4.246  14.562  0.6532 -0.5472  0.1791
   18DOPE  H18X 2320   9.349   4.291  14.575  0.4924 -0.4365  1.0722
   18DOPE  H18Y 2321   9.249   4.158  14.495 -0.4844 -0.0491 -0.5148
   18DOPE  H18Z 2322   9.188   4.329  14.518  0.7133 -0.4948  0.1940
   19DOPE     N 2323   7.997   4.933  16.459 -0.1878 -0.5402 -0.5095
   19DOPE   HN1 2324   7.909   4.988  16.453 -0.1117 -0.1506  1.3773
   19DOPE   HN2 2325   7.985   4.840  16.414 -0.0206 -0.6907 -0.2416
   19DOPE   HN3 2326   8.022   4.915  16.558 -1.1706 -1.8997 -0.4729
   19DOPE   C12 2327   8.098   5.006  16.373 -0.9206 -0.4702 -1.3131
   19DOPE  H12A 2328   8.190   4.944  16.376 -1.4528 -1.2738  1.0566
   19DOPE  H12B 2329   8.117   5.105  16.420 -2.2993 -0.4635 -0.7092
   19DOPE   C11 2330   8.046   5.024  16.230 -0.0154 -0.1114  0.2964
   19DOPE  H11A 2331   8.119   5.084  16.172 -0.7935 -0.3179 -0.9282
   19DOPE  H11B 2332   7.953   5.084  16.224 -0.9234 -1.6384 -2.0828
   19DOPE     P 2333   7.904   4.835  16.115 -0.1081  0.1771 -0.2775
   19DOPE   O13 2334   7.835   4.819  16.240 -0.2454 -0.1775 -0.2550
   19DOPE   O14 2335   7.926   4.714  16.034  0.6444  0.3357  0.0171
   19DOPE   O11 2336   7.847   4.948  16.033  0.3770 -0.4172  0.0728
   19DOPE   O12 2337   8.047   4.896  16.156 -0.4589 -0.0951  0.4578
   19DOPE    C1 2338   7.927   4.992  15.923  0.0235 -0.1464 -0.5008
   19DOPE    HA 2339   7.913   4.931  15.830 -1.5212 -0.1241 -0.2964
   19DOPE    HB 2340   8.035   4.997  15.949  0.3129 -0.4664 -1.5596
   19DOPE    C2 2341   7.873   5.128  15.875 -0.2101 -0.6129  0.5830
   19DOPE    HS 2342   7.858   5.179  15.972  2.5266 -0.8907  1.2502
   19DOPE   O21 2343   7.746   5.106  15.822  0.1387  0.1749 -0.2510
   19DOPE   C21 2344   7.687   5.204  15.753  0.5645  0.1172  0.1168
   19DOPE   O22 2345   7.714   5.322  15.756 -0.1109 -0.1555 -0.0141
   19DOPE   C22 2346   7.548   5.153  15.685  0.0484 -0.4570 -0.2089
   19DOPE   H2R 2347   7.502   5.252  15.666  1.6414  1.4761  4.3901
   19DOPE   H2S 2348   7.479   5.097  15.751 -0.0632 -1.3465 -1.0650
   19DOPE    C3 2349   7.979   5.203  15.791 -0.7716 -0.0228 -0.3217
   19DOPE    HX 2350   8.071   5.215  15.852 -1.5866 -0.6049  1.0778
   19DOPE    HY 2351   7.941   5.300  15.755  1.4775  0.2468 -2.2418
   19DOPE   O31 2352   8.017   5.119  15.689 -0.6357 -0.0347  0.5472
   19DOPE   C31 2353   8.124   5.140  15.615 -0.1263 -0.0287  0.3277
   19DOPE   O32 2354   8.187   5.242  15.607 -0.3026 -0.0146 -0.9734
   19DOPE   C32 2355   8.167   5.020  15.528  0.3507  0.0734 -0.0120
   19DOPE   H2X 2356   8.277   5.022  15.515  0.3937  1.1967  0.3900
   19DOPE   H2Y 2357   8.142   4.919  15.565  1.0414 -0.7611 -1.7183
   19DOPE   C23 2358   7.577   5.075  15.552 -0.5256 -1.1424 -0.4527
   19DOPE   H3R 2359   7.651   5.121  15.483  0.9273 -0.9216  1.1539
   19DOPE   H3S 2360   7.479   5.058  15.503 -0.2247 -0.0117 -1.4951
   19DOPE   C24 2361   7.647   4.938  15.571 -0.5314 -0.0827  0.0872
   19DOPE   H4R 2362   7.571   4.867  15.609 -1.6198 -0.0262 -1.8257
   19DOPE   H4S 2363   7.726   4.944  15.650 -1.0024  1.5461  0.4732
   19DOPE   C25 2364   7.708   4.894  15.435 -0.2045  0.0151 -0.8189
   19DOPE   H5R 2365   7.805   4.948  15.432 -0.1371  0.1172  1.4520
   19DOPE   H5S 2366   7.643   4.935  15.355 -0.7776  0.5950 -0.0739
   19DOPE   C26 2367   7.722   4.745  15.413  0.0743  0.2421 -0.1999
   19DOPE   H6R 2368   7.752   4.738  15.307 -3.0941  2.7182 -1.4531
   19DOPE   H6S 2369   7.620   4.700  15.412 -0.0843  0.5780  0.1910
   19DOPE   C27 2370   7.826   4.677  15.501 -0.2253 -0.2666  0.7366
   19DOPE   H7R 2371   7.794   4.692  15.606  1.6559  1.9227  1.0762
   19DOPE   H7S 2372   7.916   4.739  15.482 -0.5670 -0.8296 -3.7594
   19DOPE   C28 2373   7.851   4.530  15.458 -0.1729 -0.1836  0.2613
   19DOPE   H8R 2374   7.932   4.494  15.524  0.1792 -0.6180 -0.3916
   19DOPE   H8S 2375   7.900   4.528  15.358  0.7853 -0.7293  0.7305
   19DOPE   C29 2376   7.730   4.442  15.457 -0.2215  0.4399 -0.7288
   19DOPE   H9R 2377   7.707   4.392  15.552  0.5690 -2.1249 -1.8113
   19DOPE  C210 2378   7.661   4.395  15.346 -0.1798  0.2949 -0.3371
   19DOPE  H10R 2379   7.588   4.315  15.363 -0.2152 -0.4812 -3.5352
   19DOPE  C211 2380   7.673   4.433  15.199  0.3395 -0.1960 -0.7120
   19DOPE  H11R 2381   7.738   4.350  15.163  1.5539 -0.0787  1.0699
   19DOPE  H11S 2382   7.745   4.516  15.182  1.2643 -0.5932  1.0492
   19DOPE  C212 2383   7.548   4.465  15.111  0.2314 -0.1560 -0.3163
   19DOPE  H12R 2384   7.477   4.538  15.156  0.1357 -0.0848 -0.5817
   19DOPE  H12S 2385   7.489   4.372  15.097  1.4423 -0.8415 -1.0414
   19DOPE  C213 2386   7.580   4.524  14.971 -0.5494  0.0676 -0.5869
   19DOPE  H13R 2387   7.638   4.618  14.978  0.5408 -0.6289 -0.2035
   19DOPE  H13S 2388   7.485   4.554  14.921 -1.2792 -0.2650  0.5629
   19DOPE  C214 2389   7.648   4.424  14.864 -0.1671  0.1716 -0.0574
   19DOPE  H14R 2390   7.594   4.329  14.881  0.8644 -0.4671 -0.3038
   19DOPE  H14S 2391   7.753   4.402  14.894 -0.6893  1.3880  3.1360
   19DOPE  C215 2392   7.627   4.465  14.720 -0.4895 -0.0721  0.2834
   19DOPE  H15R 2393   7.695   4.552  14.706 -0.4994 -0.2244 -0.8117
   19DOPE  H15S 2394   7.526   4.503  14.696 -0.6605 -0.3899  0.4996
   19DOPE  C216 2395   7.667   4.352  14.626  0.7224  0.6737 -0.0385
   19DOPE  H16R 2396   7.591   4.273  14.644  1.0964 -0.0228 -1.3784
   19DOPE  H16S 2397   7.768   4.313  14.650  0.7998  0.6754 -0.3518
   19DOPE  C217 2398   7.642   4.394  14.476 -0.4666 -0.3875 -0.8221
   19DOPE  H17R 2399   7.714   4.476  14.457 -1.1156  0.4595  0.2647
   19DOPE  H17S 2400   7.537   4.430  14.466 -0.2038  0.3129 -1.0674
   19DOPE  C218 2401   7.662   4.284  14.385  0.0559 -0.4605 -0.2481
   19DOPE  H18R 2402   7.761   4.234  14.396 -0.2800 -0.9646  0.6352
   19DOPE  H18S 2403   7.648   4.333  14.286  0.4560 -0.0669 -0.1119
   19DOPE  H18T 2404   7.583   4.208  14.403  0.3077 -0.2712  1.9973
   19DOPE   C33 2405   8.105   5.023  15.385  0.5111 -0.1423  0.2143
   19DOPE   H3X 2406   8.121   5.121  15.336 -1.6656  0.9360  1.5555
   19DOPE   H3Y 2407   7.996   5.016  15.401  0.7385 -0.7147  1.5983
   19DOPE   C34 2408   8.134   4.901  15.304 -0.1949  0.1751 -0.6149
   19DOPE   H4X 2409   8.237   4.907  15.263  0.4022 -0.0960  0.7939
   19DOPE   H4Y 2410   8.133   4.805  15.360 -0.3973  2.2413  3.2180
   19DOPE   C35 2411   8.029   4.891  15.184 -0.1478  0.1016  0.0084
   19DOPE   H5X 2412   8.040   4.987  15.128 -0.0071  0.6460  0.9464
   19DOPE   H5Y 2413   7.929   4.871  15.228  1.3786 -4.5195  1.9699
   19DOPE   C36 2414   8.071   4.787  15.077  0.1471  0.0209 -0.6493
   19DOPE   H6X 2415   8.061   4.685  15.121 -1.8435  0.1353 -0.7370
   19DOPE   H6Y 2416   8.176   4.813  15.052  0.3310  2.1225  1.8904
   19DOPE   C37 2417   7.971   4.790  14.958  0.3722 -0.2625 -0.1940
   19DOPE   H7X 2418   7.864   4.799  14.986 -0.0523  1.1536 -2.0699
   19DOPE   H7Y 2419   7.991   4.879  14.895 -0.2253 -0.4986 -0.7283
   19DOPE   C38 2420   7.979   4.664  14.864  0.0638  0.5513  0.8088
   19DOPE   H8X 2421   7.898   4.662  14.789  0.9886 -0.6611 -0.2035
   19DOPE   H8Y 2422   7.973   4.571  14.925 -0.5215  0.6710  0.9390
   19DOPE   C39 2423   8.105   4.664  14.779 -0.2277  0.0689  0.3194
   19DOPE   H9X 2424   8.182   4.743  14.777  0.4532 -0.5823 -1.2378
   19DOPE  C310 2425   8.131   4.556  14.701 -0.1205 -0.6904  0.1542
   19DOPE  H10X 2426   8.222   4.559  14.640 -0.0534 -0.4618  0.2667
   19DOPE  C311 2427   8.048   4.432  14.677  0.3933 -0.6282  0.6079
   19DOPE  H11X 2428   7.942   4.461  14.694  0.8949  3.1203 -1.6348
   19DOPE  H11Y 2429   8.064   4.415  14.568 -0.4933  4.2410 -0.4872
   19DOPE  C312 2430   8.074   4.302  14.752  0.3002  0.1870 -0.0663
   19DOPE  H12X 2431   8.000   4.228  14.713 -1.7613  1.6653  0.8115
   19DOPE  H12Y 2432   8.023   4.325  14.848 -2.1089 -4.1268 -0.0533
   19DOPE  C313 2433   8.224   4.262  14.763  0.7401  0.1973  0.2690
   19DOPE  H13X 2434   8.266   4.252  14.660  2.6111  0.4915  0.9575
   19DOPE  H13Y 2435   8.283   4.348  14.799  1.3387  1.2024 -2.7896
   19DOPE  C314 2436   8.249   4.135  14.851  0.5198 -0.1283  0.7016
   19DOPE  H14X 2437   8.186   4.149  14.942 -1.3605 -1.2131 -0.3814
   19DOPE  H14Y 2438   8.357   4.130  14.876  0.3119  0.7577  1.8951
   19DOPE  C315 2439   8.218   3.998  14.777 -0.9078 -0.3014  0.0841
   19DOPE  H15X 2440   8.240   3.908  14.838 -1.4495 -0.3442  0.2261
   19DOPE  H15Y 2441   8.297   3.993  14.699 -3.3567  2.1081 -2.8278
   19DOPE  C316 2442   8.079   3.977  14.717 -0.3501  0.2877 -0.2480
   19DOPE  H16X 2443   8.058   4.031  14.623  0.6103 -2.4532 -2.1632
   19DOPE  H16Y 2444   8.001   4.017  14.786 -0.8585  1.4152 -1.4393
   19DOPE  C317 2445   8.056   3.828  14.701 -0.5501 -0.5600 -0.1103
   19DOPE  H17X 2446   8.141   3.783  14.645  0.3293  2.0093 -1.0059
   19DOPE  H17Y 2447   8.052   3.786  14.803  2.1862  0.3320  0.4471
   19DOPE  C318 2448   7.928   3.803  14.632  0.8269  0.0357 -0.0327
   19DOPE  H18X 2449   7.885   3.704  14.658 -1.3917  0.9751  0.0328
   19DOPE  H18Y 2450   7.850   3.877  14.661  0.5283 -0.0260 -0.6786
   19DOPE  H18Z 2451   7.928   3.799  14.521 -3.4950  0.4129 -0.2134
   20DOPE     N 2452   5.819   8.192  15.945 -0.1454 -0.6067 -0.3006
   20DOPE   HN1 2453   5.895   8.245  15.990 -1.0288  2.1424 -1.8312
   20DOPE   HN2 2454   5.726   8.232  15.970  0.1829 -0.7532  1.2306
   20DOPE   HN3 2455   5.820   8.102  15.998 -1.5130 -1.4284 -1.5766
   20DOPE   C12 2456   5.834   8.160  15.799  0.2083  0.2798 -0.1655
   20DOPE  H12A 2457   5.853   8.259  15.753  0.2370  0.5031  0.3156
   20DOPE  H12B 2458   5.745   8.105  15.762  0.8587 -1.2907  0.5251
   20DOPE   C11 2459   5.948   8.069  15.777 -0.5902  0.0783  0.5344
   20DOPE  H11A 2460   6.040   8.125  15.807 -1.2637  1.6242 -0.1936
   20DOPE  H11B 2461   5.950   8.064  15.666  1.5165  1.0575  0.4649
   20DOPE     P 2462   6.030   7.826  15.855  0.3813  0.1029 -0.2587
   20DOPE   O13 2463   5.968   7.696  15.860  0.0750 -0.0269 -0.2865
   20DOPE   O14 2464   6.126   7.854  15.965  0.2341 -0.0915 -0.5845
   20DOPE   O11 2465   6.114   7.843  15.717 -0.2276  0.1034 -0.1650
   20DOPE   O12 2466   5.922   7.951  15.846  0.3371  0.4719 -0.0527
   20DOPE    C1 2467   6.045   7.842  15.595  0.1623 -0.0559 -0.7052
   20DOPE    HA 2468   6.097   7.911  15.525  1.2563 -1.0350 -0.9078
   20DOPE    HB 2469   5.940   7.873  15.612 -0.1168 -1.8699  1.3479
   20DOPE    C2 2470   6.043   7.694  15.536  0.3948 -0.1160 -0.1048
   20DOPE    HS 2471   6.006   7.619  15.609  2.9627 -0.4920  0.8916
   20DOPE   O21 2472   6.169   7.661  15.483 -0.0902 -0.4345  0.3876
   20DOPE   C21 2473   6.259   7.598  15.562  0.3826  0.1017 -0.2253
   20DOPE   O22 2474   6.244   7.557  15.674 -0.1930  0.1510 -0.1765
   20DOPE   C22 2475   6.393   7.584  15.481  0.2428 -0.1929  0.1413
   20DOPE   H2R 2476   6.469   7.526  15.539  1.5056  0.7866 -0.4745
   20DOPE   H2S 2477   6.429   7.686  15.456  0.6727 -0.7657 -1.6904
   20DOPE    C3 2478   5.935   7.698  15.426 -0.5979 -0.0105  0.2033
   20DOPE    HX 2479   5.956   7.764  15.339 -0.4718 -1.7244 -1.1168
   20DOPE    HY 2480   5.840   7.742  15.464 -0.7759  0.5573 -0.8429
   20DOPE   O31 2481   5.926   7.565  15.370 -0.3533  0.1977  0.2562
   20DOPE   C31 2482   5.806   7.504  15.363 -0.3483 -0.7347  0.0545
   20DOPE   O32 2483   5.705   7.550  15.409  0.5671  0.1279 -0.2385
   20DOPE   C32 2484   5.818   7.370  15.282  0.7788 -0.0518  0.0595
   20DOPE   H2X 2485   5.721   7.366  15.229  0.3296 -1.6434  0.9310
   20DOPE   H2Y 2486   5.899   7.395  15.211  0.6125 -0.2119 -0.1886
   20DOPE   C23 2487   6.363   7.504  15.350  0.1391  0.6942 -0.0280
   20DOPE   H3R 2488   6.455   7.496  15.287  0.3783 -1.7640  0.5116
   20DOPE   H3S 2489   6.288   7.550  15.282 -0.1426  1.3757  0.7331
   20DOPE   C24 2490   6.320   7.360  15.384 -0.0607  0.0139 -0.2944
   20DOPE   H4R 2491   6.222   7.349  15.435  0.4834 -3.3543  0.2509
   20DOPE   H4S 2492   6.385   7.317  15.464  0.2676  0.0241 -0.5519
   20DOPE   C25 2493   6.335   7.255  15.269  0.2348 -0.2016  0.2772
   20DOPE   H5R 2494   6.274   7.290  15.183 -0.4169 -1.1437  0.3367
   20DOPE   H5S 2495   6.291   7.161  15.307  0.0697 -0.3256 -0.2083
   20DOPE   C26 2496   6.483   7.225  15.237 -1.0167  0.1119 -0.3330
   20DOPE   H6R 2497   6.539   7.317  15.212  2.5151 -1.8153 -0.1757
   20DOPE   H6S 2498   6.472   7.161  15.147 -0.8083  1.0511 -1.0376
   20DOPE   C27 2499   6.572   7.162  15.346 -0.0064 -0.3896  0.2236
   20DOPE   H7R 2500   6.585   7.230  15.433  2.9345 -0.2822 -0.1894
   20DOPE   H7S 2501   6.674   7.164  15.303  0.4027  0.8955  1.1999
   20DOPE   C28 2502   6.528   7.022  15.385  0.3991  0.2395  0.0765
   20DOPE   H8R 2503   6.534   6.950  15.302 -0.0762  0.2321  0.0492
   20DOPE   H8S 2504   6.422   7.032  15.416  0.3903  0.8058 -0.1275
   20DOPE   C29 2505   6.616   6.980  15.507 -0.3104 -0.7076  0.2606
   20DOPE   H9R 2506   6.639   7.052  15.586  0.6592  0.3048 -0.9014
   20DOPE  C210 2507   6.679   6.859  15.518 -0.0315  0.3263  0.6971
   20DOPE  H10R 2508   6.734   6.840  15.612  0.9557  1.1549  0.3121
   20DOPE  C211 2509   6.672   6.739  15.423  0.2164 -0.6658 -0.0378
   20DOPE  H11R 2510   6.768   6.737  15.368  0.1308  1.6459 -0.3689
   20DOPE  H11S 2511   6.593   6.745  15.345 -1.4351  0.8158  1.6462
   20DOPE  C212 2512   6.637   6.607  15.491 -0.4262  0.3030 -0.4672
   20DOPE  H12R 2513   6.536   6.626  15.535 -0.1779  1.8125 -0.4866
   20DOPE  H12S 2514   6.704   6.595  15.578 -1.0847  1.8798  0.3042
   20DOPE  C213 2515   6.640   6.479  15.406 -0.2457  0.6581 -0.2066
   20DOPE  H13R 2516   6.598   6.398  15.469  0.8664  1.7477  2.0509
   20DOPE  H13S 2517   6.746   6.455  15.381 -1.1818 -0.4593 -3.6745
   20DOPE  C214 2518   6.564   6.502  15.281  0.5317 -0.5471  0.1843
   20DOPE  H14R 2519   6.611   6.580  15.217 -0.2052 -0.3364 -0.1085
   20DOPE  H14S 2520   6.468   6.551  15.306  3.0195  3.9949  2.0820
   20DOPE  C215 2521   6.543   6.370  15.207  0.3288  0.0034 -0.7941
   20DOPE  H15R 2522   6.471   6.410  15.133 -0.0593  2.1571  0.6305
   20DOPE  H15S 2523   6.487   6.293  15.265  2.1616 -0.7221  0.0916
   20DOPE  C216 2524   6.666   6.308  15.147  0.6858 -0.2956 -0.2766
   20DOPE  H16R 2525   6.649   6.215  15.088 -2.4896  0.0844 -0.0851
   20DOPE  H16S 2526   6.728   6.284  15.236  3.1180  1.1417 -1.4563
   20DOPE  C217 2527   6.762   6.403  15.076  0.5249  0.4437  0.4410
   20DOPE  H17R 2528   6.792   6.489  15.140 -2.5581  0.8073  1.5600
   20DOPE  H17S 2529   6.707   6.445  14.989 -0.4794  0.8842  1.2663
   20DOPE  C218 2530   6.880   6.326  15.018 -0.3411 -0.3245 -0.2431
   20DOPE  H18R 2531   6.953   6.297  15.097  0.5403 -1.1816 -1.3437
   20DOPE  H18S 2532   6.935   6.389  14.945 -0.1781  0.3760  0.4680
   20DOPE  H18T 2533   6.851   6.234  14.963  0.6705 -0.1592 -1.0766
   20DOPE   C33 2534   5.858   7.239  15.361  0.2705  0.6976  0.4034
   20DOPE   H3X 2535   5.783   7.232  15.442  0.5213 -1.5221  0.5244
   20DOPE   H3Y 2536   5.958   7.247  15.410  0.0610  2.4635  0.5895
   20DOPE   C34 2537   5.848   7.110  15.266 -0.2192  0.0212 -0.2256
   20DOPE   H4X 2538   5.906   7.030  15.317  0.5697 -0.1385 -1.3454
   20DOPE   H4Y 2539   5.742   7.085  15.244  0.2360 -2.1426 -0.1433
   20DOPE   C35 2540   5.924   7.144  15.136 -0.4612 -0.3923  0.6016
   20DOPE   H5X 2541   6.022   7.172  15.180 -0.3719  0.3311 -0.0261
   20DOPE   H5Y 2542   5.868   7.221  15.078  0.4588 -0.9094 -1.0541
   20DOPE   C36 2543   5.944   7.024  15.047 -0.8320 -0.0747  0.1104
   20DOPE   H6X 2544   5.848   6.972  15.024  0.0872 -1.0788 -1.6245
   20DOPE   H6Y 2545   5.998   6.950  15.110  0.4014 -0.0745 -0.9228
   20DOPE   C37 2546   6.025   7.074  14.919  0.5599  0.3621  0.2133
   20DOPE   H7X 2547   5.985   7.173  14.890 -1.7040 -0.5605 -0.0014
   20DOPE   H7Y 2548   6.130   7.076  14.954  0.3464  1.9244  0.8265
   20DOPE   C38 2549   6.000   7.000  14.787  0.4685  0.6788  0.2650
   20DOPE   H8X 2550   6.025   6.894  14.809  0.2709  0.7536  0.8658
   20DOPE   H8Y 2551   6.071   7.027  14.706 -1.0076  2.0466 -0.6346
   20DOPE   C39 2552   5.855   7.012  14.743 -0.2402  0.0424 -0.2423
   20DOPE   H9X 2553   5.811   7.113  14.745 -0.2914  0.0119  0.5755
   20DOPE  C310 2554   5.781   6.899  14.715  0.7022 -0.5234  0.2508
   20DOPE  H10X 2555   5.675   6.916  14.689  0.6968  0.2610  0.7482
   20DOPE  C311 2556   5.825   6.758  14.690  0.1122  0.2131  0.6254
   20DOPE  H11X 2557   5.936   6.747  14.689  0.2789  1.0105  3.3310
   20DOPE  H11Y 2558   5.794   6.690  14.771 -2.0503  0.5387  0.1357
   20DOPE  C312 2559   5.767   6.702  14.559  0.4359 -0.0612 -0.6586
   20DOPE  H12X 2560   5.819   6.742  14.469 -1.0572  3.5073 -0.1022
   20DOPE  H12Y 2561   5.664   6.733  14.531  0.6219  2.1892  0.8562
   20DOPE  C313 2562   5.780   6.546  14.553 -0.1527 -0.5013  0.1677
   20DOPE  H13X 2563   5.891   6.538  14.545 -0.0353  1.8594 -1.5291
   20DOPE  H13Y 2564   5.753   6.491  14.646 -0.1068 -2.1018 -0.7293
   20DOPE  C314 2565   5.704   6.486  14.442  0.2618 -0.8080  0.2860
   20DOPE  H14X 2566   5.595   6.504  14.452  0.2363  0.3333 -1.6358
   20DOPE  H14Y 2567   5.715   6.375  14.447 -2.1464 -1.1537 -0.4764
   20DOPE  C315 2568   5.732   6.522  14.297 -0.9052  0.0451  0.5909
   20DOPE  H15X 2569   5.841   6.516  14.272 -0.9596  2.4454 -0.4721
   20DOPE  H15Y 2570   5.690   6.623  14.279 -0.6435  0.3437  1.5983
   20DOPE  C316 2571   5.656   6.421  14.202 -0.5076 -1.1512  0.1398
   20DOPE  H16X 2572   5.552   6.403  14.239 -0.3986 -0.4297  0.8100
   20DOPE  H16Y 2573   5.713   6.328  14.222 -0.6887 -1.0514  1.1762
   20DOPE  C317 2574   5.655   6.462  14.054  0.0363  0.1818 -0.0245
   20DOPE  H17X 2575   5.595   6.555  14.045  1.7341  1.2522 -0.7781
   20DOPE  H17Y 2576   5.760   6.491  14.032  0.0369 -0.5217 -1.0699
   20DOPE  C318 2577   5.598   6.349  13.965  0.9483  0.5660  0.3918
   20DOPE  H18X 2578   5.505   6.307  14.009  1.7872 -1.2067  0.5467
   20DOPE  H18Y 2579   5.580   6.383  13.861 -2.3977  0.2580  0.7358
   20DOPE  H18Z 2580   5.660   6.257  13.962 -0.9348 -0.7360 -0.6222
   21DOPE     N 2581   3.657   0.346  15.681 -0.1490 -0.2817  0.1546
   21DOPE   HN1 2582   3.728   0.269  15.683 -1.7654 -2.1245 -3.7345
   21DOPE   HN2 2583   3.649   0.383  15.777  1.6128  0.3390  0.1072
   21DOPE   HN3 2584   3.563   0.306  15.663 -0.4144  0.2429  0.3601
   21DOPE   C12 2585   3.683   0.460  15.584  0.1210 -0.5575  0.7134
   21DOPE  H12A 2586   3.665   0.420  15.482  1.1680  1.0729 -0.1609
   21DOPE  H12B 2587   3.792   0.481  15.585  0.2275 -0.9222 -0.8655
   21DOPE   C11 2588   3.609   0.593  15.621  0.3951 -0.4122 -0.5082
   21DOPE  H11A 2589   3.627   0.662  15.536  1.2523  0.5581  0.4339
   21DOPE  H11B 2590   3.666   0.638  15.705  2.4469 -1.2528 -1.3774
   21DOPE     P 2591   3.376   0.671  15.723  0.3860 -0.0219  0.3722
   21DOPE   O13 2592   3.440   0.689  15.857  0.1275  0.2791 -0.2698
   21DOPE   O14 2593   3.235   0.625  15.717  0.3922 -0.1445  0.0192
   21DOPE   O11 2594   3.390   0.800  15.641 -0.5989  0.0449  0.0230
   21DOPE   O12 2595   3.472   0.572  15.648  0.0100  0.3739  0.5370
   21DOPE    C1 2596   3.269   0.873  15.601  0.1754  0.3359  0.0609
   21DOPE    HA 2597   3.282   0.978  15.634  2.9392 -0.2523  1.1227
   21DOPE    HB 2598   3.178   0.835  15.652 -0.1692  0.9893 -0.0569
   21DOPE    C2 2599   3.244   0.879  15.449  0.6516  0.1232 -0.1512
   21DOPE    HS 2600   3.157   0.949  15.443 -0.6015 -1.5181 -2.3841
   21DOPE   O21 2601   3.199   0.751  15.394 -0.1279 -0.3803 -0.1038
   21DOPE   C21 2602   3.074   0.714  15.413 -0.2617  0.0779 -0.4123
   21DOPE   O22 2603   2.987   0.779  15.470 -0.2824  0.5518  0.4576
   21DOPE   C22 2604   3.059   0.576  15.345  0.2611 -0.0150 -0.1443
   21DOPE   H2R 2605   2.973   0.523  15.392 -0.0220  0.5336 -0.0330
   21DOPE   H2S 2606   3.146   0.515  15.377  0.2672  0.3131  0.4699
   21DOPE    C3 2607   3.363   0.933  15.371  0.4626  0.2920 -0.3113
   21DOPE    HX 2608   3.448   0.869  15.403  1.4519  1.4263 -0.6117
   21DOPE    HY 2609   3.364   1.041  15.395 -2.9797  1.2395 -3.4618
   21DOPE   O31 2610   3.340   0.930  15.230  0.5889 -0.2264 -0.3819
   21DOPE   C31 2611   3.372   0.828  15.164 -0.5890  0.5504 -0.1637
   21DOPE   O32 2612   3.439   0.734  15.209 -0.1753 -0.5944 -0.2008
   21DOPE   C32 2613   3.313   0.846  15.020 -0.6268 -0.6805  0.3119
   21DOPE   H2X 2614   3.204   0.826  15.023 -0.6132 -0.7461  0.3724
   21DOPE   H2Y 2615   3.325   0.954  14.995 -0.2276 -0.3664  1.7865
   21DOPE   C23 2616   3.060   0.589  15.189 -0.1706  0.4793 -0.9518
   21DOPE   H3R 2617   3.152   0.631  15.143  0.5436  0.2245  0.2110
   21DOPE   H3S 2618   2.977   0.659  15.167  0.3218  1.5521  0.4516
   21DOPE   C24 2619   3.018   0.460  15.123 -0.3239  1.0369 -0.7885
   21DOPE   H4R 2620   2.909   0.437  15.129 -0.1374 -0.4402 -2.3404
   21DOPE   H4S 2621   3.055   0.367  15.170 -2.9523 -0.1956 -0.9701
   21DOPE   C25 2622   3.068   0.467  14.974  0.5467 -0.1780 -0.0459
   21DOPE   H5R 2623   3.176   0.490  14.963  0.1886  0.4611 -3.2419
   21DOPE   H5S 2624   3.011   0.545  14.920  2.4737  1.0290 -0.4162
   21DOPE   C26 2625   3.044   0.332  14.914 -0.8131 -0.0568 -0.3249
   21DOPE   H6R 2626   2.936   0.307  14.904 -1.0728  0.6261  0.5859
   21DOPE   H6S 2627   3.085   0.250  14.976  3.2869  2.5064  0.7369
   21DOPE   C27 2628   3.104   0.315  14.771 -0.3301 -1.0482 -0.3751
   21DOPE   H7R 2629   3.065   0.218  14.734  1.1305 -0.9494 -2.3389
   21DOPE   H7S 2630   3.213   0.296  14.776 -0.3824 -1.0406  1.0687
   21DOPE   C28 2631   3.076   0.422  14.666 -0.3648 -0.0214  0.5371
   21DOPE   H8R 2632   3.135   0.398  14.575  0.9432  2.8357  0.5325
   21DOPE   H8S 2633   3.113   0.518  14.708  0.0306  0.2068 -0.3033
   21DOPE   C29 2634   2.927   0.441  14.634 -0.5074 -0.1906 -0.4484
   21DOPE   H9R 2635   2.871   0.503  14.706  0.6913  0.5191 -0.0974
   21DOPE  C210 2636   2.861   0.386  14.535 -0.1257  0.3076  0.1100
   21DOPE  H10R 2637   2.762   0.427  14.507  0.3686  0.6265 -1.2735
   21DOPE  C211 2638   2.921   0.295  14.433 -0.0468  0.6102  0.5097
   21DOPE  H11R 2639   2.841   0.228  14.396 -0.9208  2.6652 -1.5979
   21DOPE  H11S 2640   3.005   0.242  14.482 -0.8157  0.7183  1.9759
   21DOPE  C212 2641   2.972   0.373  14.310 -0.2126 -0.7316  0.6028
   21DOPE  H12R 2642   3.071   0.420  14.327 -0.4524 -0.3627  0.9827
   21DOPE  H12S 2643   2.904   0.450  14.269 -1.4791 -2.1209 -0.0152
   21DOPE  C213 2644   2.990   0.281  14.182 -0.9393 -0.4393 -0.0544
   21DOPE  H13R 2645   2.889   0.245  14.153 -1.7152  1.0519  0.6979
   21DOPE  H13S 2646   3.054   0.198  14.219 -1.2442 -0.3785  0.6148
   21DOPE  C214 2647   3.070   0.347  14.069  0.6866  0.0803  0.2448
   21DOPE  H14R 2648   3.106   0.272  13.996  1.5349  0.0201  0.7112
   21DOPE  H14S 2649   3.157   0.398  14.115 -0.2806  1.9117  0.1477
   21DOPE  C215 2650   2.991   0.451  13.984 -0.3193  0.1513 -0.6829
   21DOPE  H15R 2651   3.071   0.492  13.918  0.7915 -0.2960  0.3401
   21DOPE  H15S 2652   2.958   0.538  14.044  1.9181  2.5152 -2.6435
   21DOPE  C216 2653   2.871   0.402  13.903  0.0099  0.3286  0.9475
   21DOPE  H16R 2654   2.790   0.375  13.974 -0.3206 -0.5317  0.2663
   21DOPE  H16S 2655   2.887   0.312  13.840  0.6390  1.4370 -0.5478
   21DOPE  C217 2656   2.801   0.514  13.822 -0.3558  0.4183  0.1814
   21DOPE  H17R 2657   2.874   0.557  13.750 -1.6006  0.5981 -1.0184
   21DOPE  H17S 2658   2.765   0.602  13.878 -1.8628 -0.3119  0.4005
   21DOPE  C218 2659   2.688   0.450  13.737 -0.0175 -0.0180 -0.1156
   21DOPE  H18R 2660   2.637   0.517  13.665  0.9986 -0.6603 -1.4903
   21DOPE  H18S 2661   2.606   0.419  13.805 -0.1315 -0.9091 -0.6436
   21DOPE  H18T 2662   2.721   0.359  13.682  0.8747 -0.3078  0.8604
   21DOPE   C33 2663   3.388   0.758  14.919 -0.1055 -0.1766  0.6475
   21DOPE   H3X 2664   3.376   0.654  14.957 -1.4522 -0.2626  0.0586
   21DOPE   H3Y 2665   3.496   0.782  14.917  0.0754 -0.9310 -1.2864
   21DOPE   C34 2666   3.320   0.780  14.780 -0.1257 -0.9452  0.0794
   21DOPE   H4X 2667   3.211   0.766  14.788  0.0799 -3.9141 -1.2368
   21DOPE   H4Y 2668   3.342   0.886  14.751 -0.9052 -0.1195  2.2777
   21DOPE   C35 2669   3.374   0.689  14.670  0.0397  0.2453 -0.3922
   21DOPE   H5X 2670   3.362   0.580  14.685  2.1818 -0.1874 -1.3613
   21DOPE   H5Y 2671   3.485   0.691  14.676  0.1609 -1.9885 -1.1451
   21DOPE   C36 2672   3.331   0.732  14.531 -0.1064 -0.0529  0.3491
   21DOPE   H6X 2673   3.345   0.842  14.531  2.7751 -0.3355 -0.4917
   21DOPE   H6Y 2674   3.229   0.697  14.502  0.7675 -0.3910 -2.6059
   21DOPE   C37 2675   3.424   0.695  14.411  0.2369 -0.9359 -0.4093
   21DOPE   H7X 2676   3.512   0.763  14.399 -0.5407 -0.2420 -2.8455
   21DOPE   H7Y 2677   3.467   0.594  14.430  2.2600  0.0226  0.4161
   21DOPE   C38 2678   3.364   0.691  14.272  0.1892 -0.2458 -0.2553
   21DOPE   H8X 2679   3.273   0.627  14.269 -0.2899  0.3580  0.5132
   21DOPE   H8Y 2680   3.438   0.639  14.209  1.0027  0.0425  0.4413
   21DOPE   C39 2681   3.321   0.833  14.224  0.5229  0.5632 -0.0652
   21DOPE   H9X 2682   3.246   0.875  14.292  2.1796  1.0282  1.5792
   21DOPE  C310 2683   3.357   0.900  14.116  0.1591 -0.5258 -0.1080
   21DOPE  H10X 2684   3.304   0.994  14.095  1.4774  0.1775 -0.3675
   21DOPE  C311 2685   3.451   0.867  14.009  1.0098  0.8587  0.3147
   21DOPE  H11X 2686   3.508   0.956  13.978  3.1481 -1.1417 -1.9396
   21DOPE  H11Y 2687   3.527   0.792  14.038 -0.9629 -0.4968  2.3684
   21DOPE  C312 2688   3.385   0.814  13.882  0.6446  0.8365 -1.0242
   21DOPE  H12X 2689   3.341   0.902  13.830 -2.2251  1.0674  1.5516
   21DOPE  H12Y 2690   3.307   0.742  13.914  4.0962 -0.7876  5.4471
   21DOPE  C313 2691   3.485   0.739  13.793 -0.1759 -0.2690 -0.3969
   21DOPE  H13X 2692   3.571   0.802  13.763  0.7741 -0.3624  1.9637
   21DOPE  H13Y 2693   3.518   0.652  13.853 -0.3255 -0.5173 -0.6679
   21DOPE  C314 2694   3.406   0.677  13.678  0.0038  0.4376 -0.4105
   21DOPE  H14X 2695   3.335   0.751  13.635  0.6444 -0.3801 -3.0678
   21DOPE  H14Y 2696   3.324   0.607  13.705  1.1957 -0.8927 -0.1284
   21DOPE  C315 2697   3.497   0.608  13.579 -0.0270  0.0734  0.1148
   21DOPE  H15X 2698   3.536   0.515  13.627 -3.9422 -2.4999 -1.1831
   21DOPE  H15Y 2699   3.578   0.678  13.552  0.3345 -0.2728  0.2866
   21DOPE  C316 2700   3.423   0.568  13.449  0.2688 -0.2782 -0.2449
   21DOPE  H16X 2701   3.317   0.551  13.477 -0.2122  2.2243 -0.3412
   21DOPE  H16Y 2702   3.458   0.474  13.400 -1.8786 -0.7996 -0.8908
   21DOPE  C317 2703   3.428   0.673  13.334  0.6385 -0.0701  0.0291
   21DOPE  H17X 2704   3.370   0.763  13.363  1.2341 -0.4856  2.7675
   21DOPE  H17Y 2705   3.529   0.704  13.300  0.2839  0.0853 -0.9296
   21DOPE  C318 2706   3.339   0.630  13.205 -0.4269 -0.7274 -0.0487
   21DOPE  H18X 2707   3.369   0.693  13.119 -1.1206 -0.5886 -0.1902
   21DOPE  H18Y 2708   3.364   0.525  13.181  0.1387 -0.3370 -1.2709
   21DOPE  H18Z 2709   3.231   0.644  13.227 -0.2880 -0.0667  0.2419
   22DOPE     N 2710   0.236   4.654  16.398 -0.3303  0.5796  0.0134
   22DOPE   HN1 2711   0.185   4.656  16.488 -2.0344 -0.9067 -0.8693
   22DOPE   HN2 2712   0.219   4.561  16.354 -1.4532  0.3793  0.8098
   22DOPE   HN3 2713   0.339   4.667  16.407 -0.0355 -1.2289 -0.3276
   22DOPE   C12 2714   0.175   4.751  16.300 -0.0764 -0.2393  0.2189
   22DOPE  H12A 2715   0.186   4.853  16.344  0.7403 -0.6614  1.0280
   22DOPE  H12B 2716   0.067   4.730  16.284 -0.8252  2.5337  0.9635
   22DOPE   C11 2717   0.237   4.741  16.152 -0.3472 -0.0965 -0.0542
   22DOPE  H11A 2718   0.202   4.833  16.101 -0.2761 -0.0854 -0.0826
   22DOPE  H11B 2719   0.192   4.659  16.092 -0.1976 -0.4352  0.2917
   22DOPE     P 2720   0.472   4.829  16.068 -0.4187 -0.0951 -0.1721
   22DOPE   O13 2721   0.605   4.802  16.115 -0.0840 -0.1850  0.0471
   22DOPE   O14 2722   0.430   4.970  16.069  0.0106 -0.1886 -0.1606
   22DOPE   O11 2723   0.477   4.778  15.925 -0.5532  0.7756  0.0588
   22DOPE   O12 2724   0.378   4.738  16.164 -0.5023 -0.0997 -0.2500
   22DOPE    C1 2725   0.420   4.665  15.863 -0.3423 -0.1187  0.6202
   22DOPE    HA 2726   0.355   4.698  15.779  0.3948  0.8996  0.4367
   22DOPE    HB 2727   0.358   4.613  15.940 -0.3213 -0.2631  0.5393
   22DOPE    C2 2728   0.526   4.554  15.815  0.1922 -0.7302  0.2016
   22DOPE    HS 2729   0.593   4.549  15.903 -1.6093 -0.4688  1.6668
   22DOPE   O21 2730   0.591   4.610  15.701 -0.3848  0.1491  0.4008
   22DOPE   C21 2731   0.701   4.563  15.648 -0.7408 -0.9806 -0.1475
   22DOPE   O22 2732   0.781   4.495  15.704 -1.1578 -0.2848  0.0578
   22DOPE   C22 2733   0.711   4.609  15.501  0.6178 -0.6228  0.3329
   22DOPE   H2R 2734   0.732   4.718  15.499 -0.7890 -0.2975  1.8078
   22DOPE   H2S 2735   0.608   4.602  15.461 -0.7719 -1.3977  3.7024
   22DOPE    C3 2736   0.455   4.425  15.775  0.5044 -0.6231 -0.4395
   22DOPE    HX 2737   0.409   4.400  15.873 -0.0603  1.9410  0.0122
   22DOPE    HY 2738   0.531   4.350  15.745 -0.1983 -0.9488 -1.5039
   22DOPE   O31 2739   0.353   4.450  15.674 -0.0408  0.4439  0.1119
   22DOPE   C31 2740   0.326   4.333  15.610  1.2274 -0.7793  0.2808
   22DOPE   O32 2741   0.377   4.225  15.636  0.1868 -0.4554 -0.5923
   22DOPE   C32 2742   0.222   4.357  15.510 -0.4877  0.0503  0.1777
   22DOPE   H2X 2743   0.127   4.348  15.566 -1.4015 -0.1144 -1.3478
   22DOPE   H2Y 2744   0.217   4.462  15.475 -0.4000  0.1639  0.5047
   22DOPE   C23 2745   0.820   4.527  15.419  0.2204 -0.1807 -0.6073
   22DOPE   H3R 2746   0.798   4.418  15.422 -1.6217  0.1077 -1.8682
   22DOPE   H3S 2747   0.920   4.549  15.462  0.2979 -0.3222 -0.7164
   22DOPE   C24 2748   0.817   4.567  15.274 -0.1409 -0.6983 -0.1370
   22DOPE   H4R 2749   0.797   4.676  15.271 -3.7674 -1.2393 -0.2515
   22DOPE   H4S 2750   0.729   4.517  15.228  0.2998 -1.7124  0.0891
   22DOPE   C25 2751   0.946   4.540  15.204  0.5934 -0.1378  0.5226
   22DOPE   H5R 2752   0.967   4.437  15.240 -1.1015 -0.9369 -0.6250
   22DOPE   H5S 2753   1.022   4.618  15.226  1.6574 -0.2296 -2.4694
   22DOPE   C26 2754   0.936   4.538  15.049  0.7236 -0.0009  0.5656
   22DOPE   H6R 2755   0.891   4.637  15.023  0.1919 -0.3147  0.2595
   22DOPE   H6S 2756   0.875   4.450  15.021  0.7399 -0.0315  0.6260
   22DOPE   C27 2757   1.073   4.531  14.982 -0.4683  0.1231  1.1181
   22DOPE   H7R 2758   1.127   4.442  15.021 -0.2334 -0.2910 -0.1077
   22DOPE   H7S 2759   1.143   4.609  15.019  0.9897 -1.4738  1.8653
   22DOPE   C28 2760   1.061   4.539  14.820  0.1832  0.6738 -0.2476
   22DOPE   H8R 2761   1.013   4.444  14.789  0.4219  0.6668 -0.5920
   22DOPE   H8S 2762   1.163   4.533  14.779  0.1302 -2.9170 -0.1784
   22DOPE   C29 2763   0.990   4.654  14.761  0.1614  0.1388  0.2946
   22DOPE   H9R 2764   0.960   4.731  14.834 -1.1206  0.7048 -0.7877
   22DOPE  C210 2765   0.954   4.679  14.632 -0.3128 -0.1358 -0.9426
   22DOPE  H10R 2766   0.904   4.775  14.613  0.8066  0.6780  0.0659
   22DOPE  C211 2767   0.990   4.598  14.515  0.3374  0.1538  0.2095
   22DOPE  H11R 2768   0.899   4.551  14.470  0.3337  1.3690 -1.1403
   22DOPE  H11S 2769   1.053   4.510  14.539  0.9167  0.5185  0.0627
   22DOPE  C212 2770   1.066   4.679  14.409  0.1185  0.4082 -0.7841
   22DOPE  H12R 2771   1.153   4.723  14.463 -0.8694  1.5990 -0.1336
   22DOPE  H12S 2772   1.005   4.770  14.392 -0.4899  0.1167 -0.2037
   22DOPE  C213 2773   1.097   4.607  14.275 -0.2439  0.7699  0.7039
   22DOPE  H13R 2774   1.087   4.673  14.186  0.9614  0.1168  0.0703
   22DOPE  H13S 2775   1.029   4.523  14.250  0.4974  0.2599  0.3867
   22DOPE  C214 2776   1.243   4.558  14.283 -0.1830 -0.8353  0.3783
   22DOPE  H14R 2777   1.246   4.458  14.333 -0.6439 -1.3665 -0.6269
   22DOPE  H14S 2778   1.316   4.627  14.330  0.2718 -1.3891  0.5013
   22DOPE  C215 2779   1.305   4.538  14.136 -0.0278 -0.2739 -1.1386
   22DOPE  H15R 2780   1.262   4.615  14.068  0.5860 -0.1120 -1.3458
   22DOPE  H15S 2781   1.271   4.441  14.095 -1.4540 -0.0041 -0.6548
   22DOPE  C216 2782   1.460   4.529  14.128 -0.3248  0.3939  0.0093
   22DOPE  H16R 2783   1.495   4.631  14.156 -0.8892 -0.0770  2.6527
   22DOPE  H16S 2784   1.483   4.509  14.021 -0.3883  0.1118  0.0485
   22DOPE  C217 2785   1.528   4.433  14.219 -0.6678 -0.7097  0.3045
   22DOPE  H17R 2786   1.494   4.328  14.206 -1.6759 -0.1417 -2.2118
   22DOPE  H17S 2787   1.515   4.454  14.327 -2.2590 -0.5250  0.1041
   22DOPE  C218 2788   1.680   4.423  14.182 -0.1084 -0.3657 -0.5538
   22DOPE  H18R 2789   1.723   4.329  14.221  0.0386  0.4712  1.4156
   22DOPE  H18S 2790   1.737   4.511  14.219 -1.1181 -0.5345  1.5317
   22DOPE  H18T 2791   1.691   4.415  14.072  0.9648 -1.2563 -0.4016
   22DOPE   C33 2792   0.243   4.240  15.403 -0.2263  0.2858  0.4172
   22DOPE   H3X 2793   0.153   4.241  15.338  1.1889 -0.9903 -1.6556
   22DOPE   H3Y 2794   0.262   4.152  15.468  0.7726  2.1958  2.8882
   22DOPE   C34 2795   0.358   4.269  15.310 -0.0242  0.1707 -0.1141
   22DOPE   H4X 2796   0.453   4.260  15.366  0.4855  0.5811 -0.8996
   22DOPE   H4Y 2797   0.365   4.187  15.236  1.7610  0.3843 -0.2085
   22DOPE   C35 2798   0.360   4.406  15.239  0.1439 -0.1107 -0.3816
   22DOPE   H5X 2799   0.386   4.487  15.310 -1.3892  0.2151 -0.1699
   22DOPE   H5Y 2800   0.263   4.424  15.188 -0.5380 -2.3559  0.0074
   22DOPE   C36 2801   0.463   4.401  15.121  0.2996  0.4142  0.5389
   22DOPE   H6X 2802   0.428   4.329  15.043 -1.9673 -0.5319  2.2930
   22DOPE   H6Y 2803   0.561   4.373  15.164  0.2810  1.0456  1.0018
   22DOPE   C37 2804   0.481   4.542  15.048 -0.0987  0.3168 -0.1528
   22DOPE   H7X 2805   0.380   4.569  15.010 -0.3694 -0.2406  0.1711
   22DOPE   H7Y 2806   0.519   4.612  15.125 -0.6975  1.7642 -1.1177
   22DOPE   C38 2807   0.584   4.542  14.934  0.1806 -0.7971  0.4398
   22DOPE   H8X 2808   0.545   4.477  14.853 -0.5565  0.6507 -0.3944
   22DOPE   H8Y 2809   0.681   4.502  14.970  1.3497  2.0550  0.6625
   22DOPE   C39 2810   0.614   4.685  14.884  0.0578  0.3179  0.3299
   22DOPE   H9X 2811   0.680   4.733  14.958 -1.4984  3.2124  0.0025
   22DOPE  C310 2812   0.557   4.764  14.789  0.7520  0.4430  0.1172
   22DOPE  H10X 2813   0.600   4.864  14.775 -1.5188  1.4105 -0.3413
   22DOPE  C311 2814   0.445   4.734  14.696  0.4115 -0.9681 -0.7246
   22DOPE  H11X 2815   0.347   4.712  14.743 -0.6690 -0.2272 -2.5154
   22DOPE  H11Y 2816   0.428   4.827  14.637 -1.8067  0.8270  2.4643
   22DOPE  C312 2817   0.474   4.625  14.594  0.7152 -1.0055 -0.7881
   22DOPE  H12X 2818   0.380   4.606  14.539  1.5557 -0.8569 -2.3443
   22DOPE  H12Y 2819   0.497   4.532  14.649 -0.5493 -1.2095 -0.5869
   22DOPE  C313 2820   0.588   4.660  14.500  0.2998 -0.4995 -0.0593
   22DOPE  H13X 2821   0.580   4.759  14.452  0.5066  0.0921  1.0873
   22DOPE  H13Y 2822   0.683   4.658  14.557 -1.1167  2.6476  2.7463
   22DOPE  C314 2823   0.585   4.548  14.393  0.1237 -0.1168  0.4976
   22DOPE  H14X 2824   0.485   4.568  14.348  0.2031  1.5064  0.9606
   22DOPE  H14Y 2825   0.590   4.444  14.430  1.5690 -1.3606 -2.8577
   22DOPE  C315 2826   0.690   4.572  14.280  0.1564 -0.1462  0.1804
   22DOPE  H15X 2827   0.787   4.524  14.304 -0.0879 -1.5276 -1.4230
   22DOPE  H15Y 2828   0.713   4.678  14.256 -0.7411 -0.1735 -0.9111
   22DOPE  C316 2829   0.649   4.507  14.149 -0.3228 -0.4392 -0.3139
   22DOPE  H16X 2830   0.582   4.568  14.085  0.2743 -0.7984 -1.2941
   22DOPE  H16Y 2831   0.611   4.404  14.165 -1.7433  0.0861 -0.1036
   22DOPE  C317 2832   0.766   4.475  14.054  0.0529  0.5649 -0.1173
   22DOPE  H17X 2833   0.817   4.573  14.061 -2.8152  2.1034  1.1218
   22DOPE  H17Y 2834   0.833   4.393  14.085  1.0911  0.7168 -1.8553
   22DOPE  C318 2835   0.727   4.448  13.910 -0.0666 -0.3929 -0.2260
   22DOPE  H18X 2836   0.682   4.347  13.909 -4.3494  1.3100 -0.9656
   22DOPE  H18Y 2837   0.651   4.524  13.882  1.8573  2.0999  0.9816
   22DOPE  H18Z 2838   0.810   4.461  13.838 -0.6497  1.1668 -0.6560
   23DOPE     N 2839   6.595   0.354  16.518 -0.1037 -0.3899 -0.2466
   23DOPE   HN1 2840   6.619   0.264  16.566  1.3120  0.3601  0.5186
   23DOPE   HN2 2841   6.667   0.376  16.446 -1.5338  1.4777 -1.1914
   23DOPE   HN3 2842   6.601   0.443  16.570 -0.8240  1.0208 -2.4539
   23DOPE   C12 2843   6.465   0.338  16.437 -0.8755  0.3153 -0.5538
   23DOPE  H12A 2844   6.446   0.438  16.393  2.4722  1.1991 -0.3166
   23DOPE  H12B 2845   6.389   0.311  16.514 -0.5154 -3.2410 -1.2751
   23DOPE   C11 2846   6.484   0.234  16.325  0.6800 -0.1927  0.9475
   23DOPE  H11A 2847   6.389   0.220  16.269 -0.0831  0.6999  1.9935
   23DOPE  H11B 2848   6.513   0.137  16.372  2.0241 -0.6330 -0.6569
   23DOPE     P 2849   6.604   0.202  16.095  0.0032 -0.5783  0.1985
   23DOPE   O13 2850   6.580   0.059  16.108  0.9570  1.0555  0.4297
   23DOPE   O14 2851   6.734   0.246  16.026  0.6425  0.0456  0.5093
   23DOPE   O11 2852   6.485   0.268  16.011 -0.0114  0.0319  0.9717
   23DOPE   O12 2853   6.593   0.272  16.238 -0.2516 -0.8874 -0.1193
   23DOPE    C1 2854   6.491   0.411  15.990  0.6427  0.3239  0.2735
   23DOPE    HA 2855   6.584   0.461  16.021 -0.8096  1.6379  2.7689
   23DOPE    HB 2856   6.416   0.456  16.057 -1.4492 -0.6715 -1.2589
   23DOPE    C2 2857   6.473   0.452  15.840 -0.0149 -0.5558 -0.5012
   23DOPE    HS 2858   6.478   0.563  15.843 -0.4183 -0.5143  2.9295
   23DOPE   O21 2859   6.349   0.405  15.799  0.4488 -0.3483 -0.2144
   23DOPE   C21 2860   6.240   0.463  15.849  0.0648  0.1413  0.2062
   23DOPE   O22 2861   6.232   0.563  15.916 -0.4617  0.0529 -0.4036
   23DOPE   C22 2862   6.115   0.389  15.805 -0.2167 -0.4137  1.5434
   23DOPE   H2R 2863   6.059   0.348  15.892 -0.4526 -4.9427 -0.4635
   23DOPE   H2S 2864   6.147   0.299  15.749  2.1278  0.3222  1.5918
   23DOPE    C3 2865   6.586   0.378  15.752 -0.0139 -0.0845 -0.1050
   23DOPE    HX 2866   6.561   0.270  15.761 -1.9780  0.1543 -1.7673
   23DOPE    HY 2867   6.684   0.401  15.800  0.9368  1.7222 -2.6521
   23DOPE   O31 2868   6.592   0.422  15.614  0.4096  0.3366  0.4302
   23DOPE   C31 2869   6.660   0.328  15.545 -0.3927 -0.1349 -0.1432
   23DOPE   O32 2870   6.715   0.230  15.597  0.0516 -0.2565  0.6553
   23DOPE   C32 2871   6.659   0.352  15.395  0.3997 -0.1141  0.3284
   23DOPE   H2X 2872   6.684   0.459  15.382  0.4499 -0.3972 -2.5125
   23DOPE   H2Y 2873   6.745   0.293  15.356  1.1650 -2.2117  4.6362
   23DOPE   C23 2874   6.030   0.476  15.702 -0.6168  0.5378 -0.0267
   23DOPE   H3R 2875   6.011   0.573  15.752 -0.7622 -0.3721  1.7690
   23DOPE   H3S 2876   5.932   0.430  15.682 -1.2660  1.3870  1.0692
   23DOPE   C24 2877   6.116   0.500  15.572 -0.9215 -0.2617 -0.5696
   23DOPE   H4R 2878   6.148   0.400  15.536  0.3600 -0.0625 -0.0640
   23DOPE   H4S 2879   6.209   0.552  15.604 -1.0364 -0.8060  0.7304
   23DOPE   C25 2880   6.040   0.583  15.469  0.8006  0.1039 -0.2262
   23DOPE   H5R 2881   6.094   0.583  15.372 -0.2452  2.7507 -0.9115
   23DOPE   H5S 2882   6.036   0.686  15.509 -3.3943 -0.0169  0.1957
   23DOPE   C26 2883   5.894   0.550  15.444  0.0557 -0.0054 -0.3816
   23DOPE   H6R 2884   5.847   0.621  15.373 -0.8913 -2.7014 -2.6625
   23DOPE   H6S 2885   5.834   0.565  15.536  2.1149 -1.5672  1.3489
   23DOPE   C27 2886   5.859   0.406  15.398 -0.1382  0.3807 -0.6620
   23DOPE   H7R 2887   5.779   0.359  15.460 -0.1076 -0.3749 -1.1762
   23DOPE   H7S 2888   5.946   0.341  15.421  0.3075  1.6498  1.5765
   23DOPE   C28 2889   5.821   0.409  15.257  0.5801  0.5991 -0.6006
   23DOPE   H8R 2890   5.821   0.305  15.218 -0.6576  0.1724  0.4333
   23DOPE   H8S 2891   5.906   0.458  15.204  1.9736 -1.1839 -0.1278
   23DOPE   C29 2892   5.694   0.484  15.225 -0.4362 -0.5596  0.5391
   23DOPE   H9R 2893   5.651   0.540  15.309 -1.0953 -0.9110  0.4386
   23DOPE  C210 2894   5.618   0.471  15.121 -0.3640 -0.2701  0.4594
   23DOPE  H10R 2895   5.523   0.527  15.123  1.1453  2.4542  2.1282
   23DOPE  C211 2896   5.645   0.406  14.988  1.1758 -0.1728  0.1524
   23DOPE  H11R 2897   5.717   0.322  14.998 -2.4206 -3.9046 -2.2806
   23DOPE  H11S 2898   5.690   0.487  14.926  1.1195 -0.1082  0.1967
   23DOPE  C212 2899   5.535   0.350  14.906  0.4161 -0.4192  0.1704
   23DOPE  H12R 2900   5.459   0.428  14.884  2.1929  1.1625 -0.7150
   23DOPE  H12S 2901   5.484   0.267  14.959  0.1912  0.2622  1.0390
   23DOPE  C213 2902   5.586   0.320  14.768 -0.2838 -0.2279 -0.8395
   23DOPE  H13R 2903   5.661   0.239  14.752  1.3898  1.3966 -1.6195
   23DOPE  H13S 2904   5.619   0.413  14.717  1.4942 -0.0228  0.5797
   23DOPE  C214 2905   5.468   0.273  14.685 -0.4609  0.5431  0.2189
   23DOPE  H14R 2906   5.403   0.357  14.654  0.1377  1.6192  1.7728
   23DOPE  H14S 2907   5.399   0.205  14.740 -2.9494  1.4068 -1.6321
   23DOPE  C215 2908   5.507   0.203  14.562 -0.1302 -0.5193  0.0004
   23DOPE  H15R 2909   5.569   0.119  14.598 -1.5253 -1.2258  0.7963
   23DOPE  H15S 2910   5.573   0.266  14.498  0.3801 -1.7662 -0.7287
   23DOPE  C216 2911   5.400   0.139  14.474 -0.1974 -0.2559  0.0152
   23DOPE  H16R 2912   5.341   0.073  14.541  1.7130 -0.1886  1.8655
   23DOPE  H16S 2913   5.458   0.082  14.398 -0.5911 -1.6211  0.7012
   23DOPE  C217 2914   5.320   0.244  14.394  0.8343  0.0925 -0.4058
   23DOPE  H17R 2915   5.300   0.329  14.462  0.6369 -1.0220  0.9842
   23DOPE  H17S 2916   5.220   0.199  14.376  0.9452 -0.8054  1.0371
   23DOPE  C218 2917   5.388   0.299  14.274  0.0023 -0.6484 -0.5260
   23DOPE  H18R 2918   5.484   0.353  14.292  0.7922 -1.2895 -2.5125
   23DOPE  H18S 2919   5.318   0.367  14.220 -1.0657 -0.2113  1.3275
   23DOPE  H18T 2920   5.410   0.210  14.211  0.6663  0.2285 -1.5723
   23DOPE   C33 2921   6.523   0.320  15.326  0.0516  0.1644  0.3803
   23DOPE   H3X 2922   6.516   0.366  15.225 -1.0700 -1.4217 -0.3100
   23DOPE   H3Y 2923   6.439   0.363  15.384  0.6007  1.9680 -0.0871
   23DOPE   C34 2924   6.502   0.171  15.305  0.1480 -0.3921  0.2461
   23DOPE   H4X 2925   6.585   0.122  15.251 -0.4826 -1.3960  0.1605
   23DOPE   H4Y 2926   6.487   0.124  15.404  0.5409 -0.9595  0.0363
   23DOPE   C35 2927   6.379   0.138  15.216 -0.1856 -0.0512 -0.0885
   23DOPE   H5X 2928   6.372   0.027  15.208  1.6717 -0.2691  0.6833
   23DOPE   H5Y 2929   6.394   0.171  15.111 -2.7430  0.6503 -0.2981
   23DOPE   C36 2930   6.245   0.188  15.273 -0.4196 -0.5522 -0.0047
   23DOPE   H6X 2931   6.240   0.298  15.285  2.5558  0.0865 -3.2314
   23DOPE   H6Y 2932   6.235   0.130  15.368  0.2628 -0.1162  0.3392
   23DOPE   C37 2933   6.128   0.168  15.165  0.0363 -0.5023 -0.7014
   23DOPE   H7X 2934   6.121   0.062  15.132  1.2136 -0.6449 -0.5348
   23DOPE   H7Y 2935   6.033   0.201  15.213  0.2525 -2.5389  1.2942
   23DOPE   C38 2936   6.150   0.261  15.040 -0.5744  0.0130 -0.2864
   23DOPE   H8X 2937   6.231   0.226  14.972 -1.7908 -0.8150 -1.3757
   23DOPE   H8Y 2938   6.178   0.361  15.078  0.6553 -0.4033 -0.0582
   23DOPE   C39 2939   6.024   0.272  14.953  0.4596  0.3059 -0.2074
   23DOPE   H9X 2940   5.987   0.375  14.941 -0.3517 -0.1054 -1.5061
   23DOPE  C310 2941   5.968   0.174  14.878 -0.1418  0.2242  0.6075
   23DOPE  H10X 2942   5.874   0.198  14.827 -0.8434  1.2629  2.3441
   23DOPE  C311 2943   6.006   0.025  14.863 -0.7079 -0.2803  0.2599
   23DOPE  H11X 2944   6.117   0.017  14.858 -0.5565  1.4331  0.2022
   23DOPE  H11Y 2945   5.965  -0.042  14.941  0.1627 -1.3832 -0.2033
   23DOPE  C312 2946   5.949  -0.030  14.728  0.2323  0.3687 -0.5390
   23DOPE  H12X 2947   6.008  -0.123  14.711  1.3219  1.1813 -1.4124
   23DOPE  H12Y 2948   5.987   0.041  14.650  1.0339  1.7655  1.0450
   23DOPE  C313 2949   5.798  -0.064  14.727  0.1671  0.0957  0.8103
   23DOPE  H13X 2950   5.779  -0.129  14.815  2.0983 -0.5820  0.7889
   23DOPE  H13Y 2951   5.729   0.023  14.730 -0.8165 -0.6874  1.1911
   23DOPE  C314 2952   5.759  -0.143  14.598 -0.5164  0.6992 -0.2488
   23DOPE  H14X 2953   5.836  -0.222  14.588  0.4748  1.5974  0.0790
   23DOPE  H14Y 2954   5.766  -0.068  14.516 -0.4211  0.0289 -0.8612
   23DOPE  C315 2955   5.619  -0.201  14.619 -0.2066 -0.3486 -0.5940
   23DOPE  H15X 2956   5.559  -0.111  14.645  0.1948 -0.3824  0.5027
   23DOPE  H15Y 2957   5.614  -0.264  14.710  0.3667  0.8266  0.2763
   23DOPE  C316 2958   5.547  -0.255  14.494  0.4080 -0.3105 -0.1857
   23DOPE  H16X 2959   5.520  -0.171  14.427  1.8389  0.5547  0.2818
   23DOPE  H16Y 2960   5.458  -0.307  14.534  2.2162 -2.1695  1.7129
   23DOPE  C317 2961   5.625  -0.367  14.428 -0.1769 -0.0487  0.2188
   23DOPE  H17X 2962   5.561  -0.404  14.345  0.1070  1.0410 -0.4985
   23DOPE  H17Y 2963   5.720  -0.328  14.385  1.9341 -0.0424  4.2997
   23DOPE  C318 2964   5.666  -0.474  14.537  0.3281  0.2159 -0.1763
   23DOPE  H18X 2965   5.764  -0.448  14.581  0.6123  0.5292 -0.9740
   23DOPE  H18Y 2966   5.597  -0.483  14.624 -0.5545 -0.6766 -0.9481
   23DOPE  H18Z 2967   5.668  -0.573  14.486  1.3255 -0.1778  0.6014
   24DOPE     N 2968   7.375   5.118  16.166 -0.5339 -0.5692  0.7796
   24DOPE   HN1 2969   7.278   5.099  16.198 -2.9047  4.5047 -2.1419
   24DOPE   HN2 2970   7.407   5.040  16.104 -2.7081 -1.1985  0.3656
   24DOPE   HN3 2971   7.442   5.124  16.246  0.1611  0.4566  0.1482
   24DOPE   C12 2972   7.353   5.243  16.081 -0.2397 -0.3470 -0.5606
   24DOPE  H12A 2973   7.287   5.207  16.000 -1.4890 -0.2665  0.3966
   24DOPE  H12B 2974   7.447   5.284  16.037  1.1068  0.6933  2.9123
   24DOPE   C11 2975   7.284   5.351  16.166  0.1415 -0.2704  0.2567
   24DOPE  H11A 2976   7.264   5.433  16.094  0.5060 -0.6104 -0.2379
   24DOPE  H11B 2977   7.333   5.396  16.255  1.1758  0.3029 -0.5808
   24DOPE     P 2978   7.049   5.391  16.267  0.1941 -0.1843 -0.0405
   24DOPE   O13 2979   7.111   5.493  16.350  0.2414  0.2502  0.4970
   24DOPE   O14 2980   6.945   5.313  16.340  0.7694 -0.3526  0.1197
   24DOPE   O11 2981   6.982   5.455  16.145 -0.3517  0.1723  0.2629
   24DOPE   O12 2982   7.160   5.297  16.208 -0.1227 -1.0498  0.5445
   24DOPE    C1 2983   6.911   5.386  16.043  0.6981  0.3222 -1.0061
   24DOPE    HA 2984   6.845   5.454  15.986 -0.3386 -1.6128 -2.2352
   24DOPE    HB 2985   6.839   5.319  16.095  0.0080  2.0641  0.3546
   24DOPE    C2 2986   7.000   5.334  15.931 -0.4645 -0.0410  0.4969
   24DOPE    HS 2987   7.072   5.264  15.977  0.9553  0.8281 -0.3081
   24DOPE   O21 2988   7.065   5.445  15.866  0.6973 -0.0929  0.6644
   24DOPE   C21 2989   7.174   5.411  15.801 -0.3233 -0.0850 -0.3904
   24DOPE   O22 2990   7.223   5.300  15.799 -0.2086  0.0645 -0.4409
   24DOPE   C22 2991   7.255   5.534  15.760 -0.4267  0.1335  0.5468
   24DOPE   H2R 2992   7.310   5.566  15.852 -0.4850 -1.1142  1.0300
   24DOPE   H2S 2993   7.190   5.622  15.740  0.3261  0.3339 -1.2153
   24DOPE    C3 2994   6.915   5.248  15.824 -0.2109 -0.5913 -0.1452
   24DOPE    HX 2995   6.862   5.177  15.891 -2.0137  2.3227  1.7360
   24DOPE    HY 2996   6.985   5.197  15.755  1.4186 -1.8492  2.3145
   24DOPE   O31 2997   6.823   5.344  15.756  0.5416  0.1888 -0.0097
   24DOPE   C31 2998   6.796   5.293  15.635  0.4709  0.2092 -0.0989
   24DOPE   O32 2999   6.815   5.176  15.608 -0.2049  0.4069  0.0289
   24DOPE   C32 3000   6.720   5.388  15.553  0.5236  0.5262 -0.2280
   24DOPE   H2X 3001   6.704   5.342  15.454  1.3422  0.8020 -0.4972
   24DOPE   H2Y 3002   6.621   5.409  15.600  1.0060  1.0186  0.5853
   24DOPE   C23 3003   7.363   5.510  15.652  0.1049 -0.1627  0.1613
   24DOPE   H3R 3004   7.405   5.409  15.673 -1.0806 -1.2630 -2.2945
   24DOPE   H3S 3005   7.439   5.590  15.666 -1.2981  0.7996  2.9719
   24DOPE   C24 3006   7.305   5.523  15.504  0.1113 -0.2988 -0.2474
   24DOPE   H4R 3007   7.393   5.527  15.437  0.0426  0.9839 -0.2774
   24DOPE   H4S 3008   7.246   5.617  15.494  0.9098  0.0805 -1.5845
   24DOPE   C25 3009   7.211   5.404  15.473 -0.5187 -0.4284 -0.3668
   24DOPE   H5R 3010   7.117   5.415  15.531  0.1658 -1.9709  1.1012
   24DOPE   H5S 3011   7.256   5.312  15.515 -1.2929  0.3053  2.2081
   24DOPE   C26 3012   7.173   5.391  15.326 -0.3317 -0.3526  0.0782
   24DOPE   H6R 3013   7.262   5.368  15.264 -0.8391  1.3066 -1.3478
   24DOPE   H6S 3014   7.139   5.488  15.284  1.3273 -0.2900 -1.2155
   24DOPE   C27 3015   7.062   5.295  15.301 -0.6176  0.6764 -0.0112
   24DOPE   H7R 3016   6.966   5.329  15.346 -0.2553 -0.3278  1.6055
   24DOPE   H7S 3017   7.083   5.204  15.361  0.9175  0.7921 -0.3464
   24DOPE   C28 3018   7.043   5.274  15.147  0.5234  0.1869 -0.0276
   24DOPE   H8R 3019   7.150   5.254  15.122  1.3225  1.6092  2.0696
   24DOPE   H8S 3020   7.017   5.373  15.104  1.2405  0.2362 -0.3756
   24DOPE   C29 3021   6.945   5.170  15.110  0.7670 -0.1440  0.2286
   24DOPE   H9R 3022   6.913   5.104  15.192 -0.3000  0.2798  0.1724
   24DOPE  C210 3023   6.925   5.124  14.984 -0.5112 -0.5952  0.4517
   24DOPE  H10R 3024   6.857   5.040  14.965 -0.3317 -0.8091  0.7423
   24DOPE  C211 3025   7.006   5.180  14.863 -0.3183  0.4202 -0.0332
   24DOPE  H11R 3026   7.083   5.251  14.898 -0.5277  0.9088 -0.5472
   24DOPE  H11S 3027   6.938   5.244  14.803 -0.7695 -0.8125 -0.8855
   24DOPE  C212 3028   7.077   5.079  14.775  0.2098 -0.3672  0.8908
   24DOPE  H12R 3029   7.003   5.009  14.731  0.6251 -0.6259  0.5854
   24DOPE  H12S 3030   7.144   5.013  14.835  0.4745  0.6055  1.6780
   24DOPE  C213 3031   7.148   5.149  14.658 -0.1472  0.0617  0.5879
   24DOPE  H13R 3032   7.234   5.211  14.692 -0.4122  1.1709 -0.6546
   24DOPE  H13S 3033   7.088   5.233  14.616 -2.1225 -0.8858  1.4142
   24DOPE  C214 3034   7.169   5.053  14.544  0.0561  0.1677  0.4219
   24DOPE  H14R 3035   7.075   5.009  14.507  0.1233  1.4756 -1.4094
   24DOPE  H14S 3036   7.223   4.969  14.594  1.1441  1.1040  0.8651
   24DOPE  C215 3037   7.260   5.100  14.430 -0.0380  0.4157  0.2305
   24DOPE  H15R 3038   7.295   5.008  14.378 -2.8563 -0.2132 -0.7242
   24DOPE  H15S 3039   7.347   5.157  14.470  0.6150  0.6064 -1.3523
   24DOPE  C216 3040   7.184   5.170  14.315  0.0069  0.0217  0.1959
   24DOPE  H16R 3041   7.255   5.214  14.241 -1.9790 -0.9358 -2.4322
   24DOPE  H16S 3042   7.125   5.255  14.355 -0.8419  0.0438 -1.0298
   24DOPE  C217 3043   7.081   5.080  14.246  0.2286  0.8968 -0.2051
   24DOPE  H17R 3044   6.998   5.057  14.317 -1.2147  2.6152 -1.2398
   24DOPE  H17S 3045   7.128   4.984  14.216 -0.1064 -0.4609  3.0858
   24DOPE  C218 3046   7.017   5.149  14.129 -0.2422 -0.0230  0.1983
   24DOPE  H18R 3047   6.983   5.251  14.159  1.5575  0.1902  1.7231
   24DOPE  H18S 3048   6.925   5.102  14.089 -0.5822  0.5048  0.3459
   24DOPE  H18T 3049   7.094   5.166  14.050 -1.1467 -0.6093 -0.8217
   24DOPE   C33 3050   6.804   5.519  15.532 -0.0676  0.3942  0.8685
   24DOPE   H3X 3051   6.891   5.499  15.466 -0.1482 -1.5981  1.2798
   24DOPE   H3Y 3052   6.855   5.547  15.627  1.3187  0.0358  0.2617
   24DOPE   C34 3053   6.725   5.630  15.475  0.5133  0.1237 -0.0414
   24DOPE   H4X 3054   6.670   5.688  15.552  1.3877  1.4666 -0.3944
   24DOPE   H4Y 3055   6.801   5.702  15.438 -0.3146 -0.0480 -2.2486
   24DOPE   C35 3056   6.626   5.591  15.357  0.1012 -0.7191  0.0981
   24DOPE   H5X 3057   6.565   5.677  15.321  0.2606 -1.0929 -1.1186
   24DOPE   H5Y 3058   6.554   5.513  15.392 -2.8002  2.1058  0.9200
   24DOPE   C36 3059   6.688   5.526  15.229 -0.0236 -0.1615 -0.3968
   24DOPE   H6X 3060   6.750   5.438  15.256  0.7868 -0.0969 -1.9462
   24DOPE   H6Y 3061   6.757   5.600  15.182  0.4735  0.4250  1.1865
   24DOPE   C37 3062   6.578   5.463  15.134 -0.0274 -0.2211  0.2046
   24DOPE   H7X 3063   6.541   5.365  15.171  0.2309 -0.0552  0.9017
   24DOPE   H7Y 3064   6.501   5.537  15.101 -0.7471 -2.3848 -3.6318
   24DOPE   C38 3065   6.634   5.427  14.996 -0.4669 -0.0681 -0.0376
   24DOPE   H8X 3066   6.548   5.393  14.934 -0.3932  0.9144 -0.7041
   24DOPE   H8Y 3067   6.705   5.346  15.023 -0.6653 -0.2434 -0.0351
   24DOPE   C39 3068   6.698   5.550  14.937  1.0261 -0.0110  0.0401
   24DOPE   H9X 3069   6.781   5.597  14.991 -0.2726  1.8767  0.4991
   24DOPE  C310 3070   6.654   5.614  14.825  0.0029 -0.3551  0.4724
   24DOPE  H10X 3071   6.713   5.704  14.805  1.5034 -1.2460  0.6907
   24DOPE  C311 3072   6.547   5.582  14.724  0.2120  0.1062  0.6069
   24DOPE  H11X 3073   6.587   5.582  14.621 -0.4757  1.7733  0.3197
   24DOPE  H11Y 3074   6.500   5.481  14.734 -0.9184  0.3940 -1.2745
   24DOPE  C312 3075   6.433   5.684  14.743  0.3693  0.9221 -0.8191
   24DOPE  H12X 3076   6.390   5.692  14.845  1.7184 -0.0719 -0.1383
   24DOPE  H12Y 3077   6.349   5.664  14.673 -0.1913 -0.0769  0.1045
   24DOPE  C313 3078   6.481   5.829  14.713  0.6162 -0.0131  0.5656
   24DOPE  H13X 3079   6.519   5.879  14.805  0.8319  0.2366  0.3435
   24DOPE  H13Y 3080   6.571   5.826  14.649  0.8773  1.8853  0.7698
   24DOPE  C314 3081   6.381   5.914  14.656  0.6970  0.4177 -0.3038
   24DOPE  H14X 3082   6.302   5.938  14.731  2.0430 -1.4045  1.8092
   24DOPE  H14Y 3083   6.324   5.862  14.576  1.7839 -0.8182 -0.3031
   24DOPE  C315 3084   6.439   6.047  14.597 -0.2976 -0.0287 -0.5381
   24DOPE  H15X 3085   6.500   6.041  14.505  3.1138 -0.1503  1.5672
   24DOPE  H15Y 3086   6.500   6.096  14.675 -1.3901 -3.5639  2.8948
   24DOPE  C316 3087   6.325   6.148  14.571  0.6569 -0.1237 -0.3736
   24DOPE  H16X 3088   6.285   6.179  14.669 -0.3928  2.1323 -1.4505
   24DOPE  H16Y 3089   6.256   6.095  14.502  0.4215 -2.4892  1.5433
   24DOPE  C317 3090   6.373   6.270  14.507  0.6805 -0.2191  0.1549
   24DOPE  H17X 3091   6.438   6.330  14.574 -0.7338  1.2382  0.3089
   24DOPE  H17Y 3092   6.441   6.250  14.422  1.3171  1.6308  0.1896
   24DOPE  C318 3093   6.251   6.349  14.459 -0.5294  1.1397 -0.3778
   24DOPE  H18X 3094   6.196   6.291  14.382  2.6481 -1.0199 -1.2257
   24DOPE  H18Y 3095   6.192   6.378  14.548  0.4847  0.7150  0.4534
   24DOPE  H18Z 3096   6.292   6.440  14.410 -0.7524  1.2650 -0.3300
   25DOPE     N 3097   1.181   6.780  15.425 -0.3492 -0.0293  0.3539
   25DOPE   HN1 3098   1.130   6.857  15.473  1.4282  2.9416 -2.1582
   25DOPE   HN2 3099   1.208   6.702  15.488  0.8140  0.1666  0.1172
   25DOPE   HN3 3100   1.259   6.827  15.375 -1.3292  2.4620  0.9882
   25DOPE   C12 3101   1.085   6.712  15.331 -1.0908  0.1774 -0.0635
   25DOPE  H12A 3102   1.011   6.660  15.395  0.3451  1.2606  2.6891
   25DOPE  H12B 3103   1.137   6.637  15.268 -0.1227 -0.4859  1.4686
   25DOPE   C11 3104   0.997   6.807  15.245  0.0688  0.0361 -0.0352
   25DOPE  H11A 3105   0.934   6.749  15.175  0.5699 -0.0913 -0.3869
   25DOPE  H11B 3106   1.058   6.866  15.173 -0.3311 -0.2007 -0.5740
   25DOPE     P 3107   0.795   6.875  15.402  0.4291 -0.1435 -0.0487
   25DOPE   O13 3108   0.704   6.997  15.387  0.0462 -0.2708 -0.1687
   25DOPE   O14 3109   0.825   6.840  15.544  0.1611  0.3593  0.0321
   25DOPE   O11 3110   0.730   6.753  15.336 -0.3870 -0.7349 -0.1748
   25DOPE   O12 3111   0.929   6.900  15.329 -0.7251  0.5037 -0.2871
   25DOPE    C1 3112   0.626   6.761  15.240 -1.1276 -0.1540  0.3147
   25DOPE    HA 3113   0.657   6.712  15.145  0.4061  0.8791  0.2497
   25DOPE    HB 3114   0.613   6.864  15.202  1.0195  0.3945  0.9268
   25DOPE    C2 3115   0.494   6.717  15.301 -0.5660 -0.0930  0.5875
   25DOPE    HS 3116   0.497   6.767  15.401  1.9925  0.9135  0.0782
   25DOPE   O21 3117   0.493   6.573  15.314  0.1007 -0.2005  0.3919
   25DOPE   C21 3118   0.400   6.522  15.385 -0.6091 -0.7051  0.5856
   25DOPE   O22 3119   0.314   6.582  15.445  0.0483  0.0636 -0.8912
   25DOPE   C22 3120   0.423   6.372  15.402 -0.3915 -0.2451  0.4465
   25DOPE   H2R 3121   0.364   6.334  15.488 -0.0947 -0.0444  0.7387
   25DOPE   H2S 3122   0.528   6.351  15.431 -1.4019 -0.5811  4.4850
   25DOPE    C3 3123   0.369   6.780  15.228  0.0430  0.7693  0.5056
   25DOPE    HX 3124   0.384   6.888  15.251 -0.7953  0.8899  0.5125
   25DOPE    HY 3125   0.271   6.747  15.267 -0.2725  0.4958 -0.5004
   25DOPE   O31 3126   0.379   6.756  15.087 -0.2783 -0.2679  0.4128
   25DOPE   C31 3127   0.305   6.653  15.044 -0.3527 -0.8702  0.1058
   25DOPE   O32 3128   0.240   6.578  15.116 -0.0660 -0.7156  0.1081
   25DOPE   C32 3129   0.292   6.658  14.895  0.1222 -0.7166  0.0123
   25DOPE   H2X 3130   0.202   6.720  14.876  1.1260  0.6972 -0.3416
   25DOPE   H2Y 3131   0.374   6.720  14.853  0.7116 -1.6711 -0.2538
   25DOPE   C23 3132   0.390   6.293  15.268  0.0270  0.3082 -0.4476
   25DOPE   H3R 3133   0.444   6.196  15.266  0.5756  0.6158 -0.9599
   25DOPE   H3S 3134   0.439   6.356  15.191  0.6918 -0.9547 -1.0827
   25DOPE   C24 3135   0.239   6.266  15.232 -0.6698  0.2761  0.3179
   25DOPE   H4R 3136   0.231   6.190  15.152 -1.5971 -1.2482  1.8006
   25DOPE   H4S 3137   0.195   6.362  15.196  0.2435  0.2215 -1.0346
   25DOPE   C25 3138   0.157   6.211  15.348  0.2081  0.2232  0.1094
   25DOPE   H5R 3139   0.137   6.293  15.419 -0.3937  1.2766 -1.2394
   25DOPE   H5S 3140   0.217   6.136  15.405  0.5995  0.1901 -0.3328
   25DOPE   C26 3141   0.030   6.138  15.297 -0.1765  0.1503 -0.1700
   25DOPE   H6R 3142  -0.036   6.107  15.380 -0.3738 -2.6177 -1.2496
   25DOPE   H6S 3143   0.065   6.044  15.248  0.1917 -0.2072  0.7638
   25DOPE   C27 3144  -0.049   6.217  15.192 -0.7929  0.2136  0.7094
   25DOPE   H7R 3145   0.009   6.223  15.098  0.3400 -0.0350  1.3738
   25DOPE   H7S 3146  -0.082   6.320  15.218  0.0037  0.4416  0.8372
   25DOPE   C28 3147  -0.184   6.146  15.167 -0.2386 -0.3132  0.2660
   25DOPE   H8R 3148  -0.251   6.143  15.256  0.3160 -1.6232  0.6739
   25DOPE   H8S 3149  -0.151   6.043  15.140 -2.0461 -1.3248  1.6478
   25DOPE   C29 3150  -0.264   6.192  15.049  1.2640  0.6732 -0.2817
   25DOPE   H9R 3151  -0.218   6.179  14.950  1.7238  2.7530 -0.3766
   25DOPE  C210 3152  -0.393   6.252  15.052 -1.0434  1.4729  0.6116
   25DOPE  H10R 3153  -0.436   6.286  14.957 -1.6137  1.5086  0.8779
   25DOPE  C211 3154  -0.470   6.304  15.171  0.2181 -0.2065  0.0787
   25DOPE  H11R 3155  -0.440   6.411  15.172  0.4887 -0.2874  0.9273
   25DOPE  H11S 3156  -0.438   6.263  15.268 -2.4503 -0.7675  0.8064
   25DOPE  C212 3157  -0.627   6.285  15.163 -0.6875 -0.2264  0.5170
   25DOPE  H12R 3158  -0.664   6.352  15.083 -0.6981  0.8049  1.3686
   25DOPE  H12S 3159  -0.676   6.314  15.258 -3.6545  0.6305 -1.1819
   25DOPE  C213 3160  -0.679   6.146  15.128  0.0583  0.0167  0.0491
   25DOPE  H13R 3161  -0.630   6.097  15.041  1.3561 -0.5592  1.0641
   25DOPE  H13S 3162  -0.788   6.148  15.110  0.0641  0.7009  0.0673
   25DOPE  C214 3163  -0.656   6.042  15.244 -0.3340 -0.5568 -0.1458
   25DOPE  H14R 3164  -0.703   6.072  15.340  0.4034 -3.7382  1.3413
   25DOPE  H14S 3165  -0.547   6.031  15.265 -0.1648  1.4435  0.1972
   25DOPE  C215 3166  -0.717   5.908  15.224 -0.2278 -0.4114 -0.0428
   25DOPE  H15R 3167  -0.676   5.834  15.296  1.5439  0.3682 -0.2111
   25DOPE  H15S 3168  -0.690   5.863  15.127  0.6598 -0.2429  0.1187
   25DOPE  C216 3169  -0.867   5.903  15.228 -1.2642  0.1907 -0.2661
   25DOPE  H16R 3170  -0.904   5.958  15.139  2.9908 -0.1743 -2.5238
   25DOPE  H16S 3171  -0.909   5.947  15.321  1.6063 -1.4989  2.0199
   25DOPE  C217 3172  -0.920   5.761  15.199 -0.4266 -0.9121  0.2948
   25DOPE  H17R 3173  -0.908   5.701  15.292 -1.7452  0.9451  1.7504
   25DOPE  H17S 3174  -0.856   5.716  15.121 -2.3514 -0.0304 -1.9155
   25DOPE  C218 3175  -1.069   5.763  15.155  0.0815 -0.0533 -0.2955
   25DOPE  H18R 3176  -1.122   5.833  15.222 -1.8264 -0.5254 -1.2196
   25DOPE  H18S 3177  -1.121   5.664  15.160 -2.0297  0.9818 -0.6735
   25DOPE  H18T 3178  -1.076   5.792  15.048 -1.7628  1.1924  0.1168
   25DOPE   C33 3179   0.289   6.518  14.828 -0.5308  0.8702 -0.6283
   25DOPE   H3X 3180   0.193   6.467  14.850 -0.3414  1.4079  1.7455
   25DOPE   H3Y 3181   0.365   6.461  14.887 -2.1676  0.2601  0.9968
   25DOPE   C34 3182   0.313   6.527  14.680 -0.2386 -0.1921 -0.1384
   25DOPE   H4X 3183   0.411   6.579  14.676 -2.2026  3.9665  0.2032
   25DOPE   H4Y 3184   0.316   6.424  14.638  0.2858 -0.1124 -0.3042
   25DOPE   C35 3185   0.223   6.631  14.601  0.2377  1.5071  1.0002
   25DOPE   H5X 3186   0.212   6.715  14.673  0.3089  1.9272  0.5314
   25DOPE   H5Y 3187   0.115   6.609  14.587 -0.0186  2.1548  1.8739
   25DOPE   C36 3188   0.296   6.678  14.472 -0.3634  0.2401 -0.6225
   25DOPE   H6X 3189   0.394   6.724  14.499  0.1488  0.0035 -1.9964
   25DOPE   H6Y 3190   0.234   6.760  14.428  0.0120  0.5259 -0.6275
   25DOPE   C37 3191   0.325   6.564  14.378  0.1517  0.1229 -0.6826
   25DOPE   H7X 3192   0.393   6.494  14.431 -1.0623 -0.7967 -0.3042
   25DOPE   H7Y 3193   0.223   6.523  14.361 -0.6502  1.2372  1.1714
   25DOPE   C38 3194   0.400   6.598  14.255 -0.6665 -0.5572 -0.3018
   25DOPE   H8X 3195   0.486   6.664  14.279 -1.2046  0.3316 -0.7572
   25DOPE   H8Y 3196   0.339   6.662  14.187 -2.3723 -1.8910 -0.1097
   25DOPE   C39 3197   0.444   6.474  14.189  0.6778  1.0339 -0.6788
   25DOPE   H9X 3198   0.375   6.430  14.116  1.9769  1.7648 -2.3984
   25DOPE  C310 3199   0.564   6.409  14.218 -0.0646  0.2436  0.5809
   25DOPE  H10X 3200   0.591   6.326  14.150  0.5411  0.9518 -0.0572
   25DOPE  C311 3201   0.670   6.457  14.311 -0.6488  0.0555  0.4863
   25DOPE  H11X 3202   0.628   6.542  14.370 -1.4308  1.8086 -2.3700
   25DOPE  H11Y 3203   0.689   6.373  14.381 -1.6164  0.2393  0.9916
   25DOPE  C312 3204   0.816   6.483  14.245  0.5374 -0.4642 -0.1353
   25DOPE  H12X 3205   0.891   6.499  14.325 -0.3641 -2.2664  1.1251
   25DOPE  H12Y 3206   0.803   6.576  14.185 -1.5762  0.1937  1.2197
   25DOPE  C313 3207   0.861   6.376  14.148 -0.4047 -0.5465 -0.0853
   25DOPE  H13X 3208   0.894   6.286  14.204  0.7330 -0.1720 -0.1254
   25DOPE  H13Y 3209   0.787   6.343  14.073  1.1182 -2.5030 -0.7893
   25DOPE  C314 3210   0.981   6.414  14.070  0.0295 -0.2909  0.2160
   25DOPE  H14X 3211   1.074   6.428  14.129  1.2428 -0.7863 -1.4980
   25DOPE  H14Y 3212   0.956   6.515  14.033  1.1155  0.0978  0.5238
   25DOPE  C315 3213   1.007   6.321  13.954 -0.1597  0.5367 -0.1635
   25DOPE  H15X 3214   0.914   6.289  13.901  1.4952 -1.1192 -2.2961
   25DOPE  H15Y 3215   1.034   6.220  13.993  1.1316  0.7439 -0.4610
   25DOPE  C316 3216   1.114   6.371  13.857 -0.0782  0.3564 -0.4768
   25DOPE  H16X 3217   1.214   6.384  13.905 -0.1572  2.3110 -0.7499
   25DOPE  H16Y 3218   1.102   6.471  13.809 -0.4348  0.9721  0.8428
   25DOPE  C317 3219   1.138   6.260  13.742  0.5704 -0.3773 -0.0541
   25DOPE  H17X 3220   1.172   6.170  13.797  1.0400 -0.0824  0.1365
   25DOPE  H17Y 3221   1.048   6.241  13.679 -0.0993 -0.8009  1.0032
   25DOPE  C318 3222   1.245   6.302  13.641  0.2496  0.3816 -0.6677
   25DOPE  H18X 3223   1.216   6.392  13.582  2.9319 -0.2406 -3.1953
   25DOPE  H18Y 3224   1.343   6.315  13.691 -0.5736 -0.0882  1.1779
   25DOPE  H18Z 3225   1.256   6.221  13.566 -1.2970 -0.8619  0.3721
   26DOPE     N 3226   8.331   8.065  15.951 -0.9701 -0.1480 -0.1895
   26DOPE   HN1 3227   8.412   8.131  15.957 -1.8956  1.1623 -1.3215
   26DOPE   HN2 3228   8.250   8.124  15.979 -1.1394 -0.7436  0.6160
   26DOPE   HN3 3229   8.343   7.993  16.025 -0.2574 -0.8074 -0.9241
   26DOPE   C12 3230   8.324   7.993  15.820 -0.1462  0.2032  0.4020
   26DOPE  H12A 3231   8.312   8.071  15.742 -2.3832 -0.2108  0.2369
   26DOPE  H12B 3232   8.232   7.930  15.819 -1.4852  1.9109  3.5487
   26DOPE   C11 3233   8.438   7.901  15.798  0.1790  0.4322 -0.3722
   26DOPE  H11A 3234   8.537   7.932  15.837  1.5060 -1.5426 -1.9890
   26DOPE  H11B 3235   8.446   7.889  15.688 -2.9026  1.0195 -0.7586
   26DOPE     P 3236   8.533   7.678  15.905  0.3806 -0.0818 -0.6680
   26DOPE   O13 3237   8.491   7.543  15.873 -0.0104  0.3142 -1.4299
   26DOPE   O14 3238   8.561   7.699  16.050 -0.3875  0.0747 -0.1733
   26DOPE   O11 3239   8.656   7.723  15.823 -0.2508 -0.0863 -0.2299
   26DOPE   O12 3240   8.413   7.773  15.853 -0.2827 -0.2617  0.3167
   26DOPE    C1 3241   8.672   7.649  15.695  0.2809 -0.0952  0.4113
   26DOPE    HA 3242   8.576   7.619  15.646  1.2997  1.9295 -3.2179
   26DOPE    HB 3243   8.736   7.559  15.699 -0.1500 -0.7376 -3.4039
   26DOPE    C2 3244   8.732   7.743  15.585  0.0267  0.0435  0.2680
   26DOPE    HS 3245   8.827   7.781  15.627 -0.1829 -0.1640  0.9345
   26DOPE   O21 3246   8.638   7.851  15.569 -0.4617  0.4636  0.4549
   26DOPE   C21 3247   8.689   7.958  15.508  0.2471 -0.3254  0.5940
   26DOPE   O22 3248   8.809   7.989  15.501  0.1921 -0.3450 -0.1059
   26DOPE   C22 3249   8.581   8.046  15.446 -0.4794  0.0900  0.4376
   26DOPE   H2R 3250   8.628   8.137  15.404 -1.4716 -0.5264 -2.2222
   26DOPE   H2S 3251   8.505   8.084  15.518 -0.0813 -1.9011  1.9885
   26DOPE    C3 3252   8.751   7.671  15.444  0.1654  0.0590 -1.0082
   26DOPE    HX 3253   8.839   7.603  15.454 -0.7022 -1.1700 -1.5003
   26DOPE    HY 3254   8.783   7.749  15.372  2.7387  0.1706  0.1139
   26DOPE   O31 3255   8.638   7.593  15.402  0.0772  0.4145  0.5102
   26DOPE   C31 3256   8.665   7.510  15.298  0.0165  0.1078  0.7824
   26DOPE   O32 3257   8.783   7.499  15.261 -0.2701  0.3026 -0.1480
   26DOPE   C32 3258   8.544   7.448  15.236 -0.1497  0.3906  0.4688
   26DOPE   H2X 3259   8.567   7.340  15.222 -0.1977  0.3229  0.9104
   26DOPE   H2Y 3260   8.458   7.459  15.306 -3.1209 -0.9474 -2.6824
   26DOPE   C23 3261   8.512   7.972  15.328 -0.8156  0.1803  0.7610
   26DOPE   H3R 3262   8.480   7.873  15.365  1.1966 -0.2482  1.4698
   26DOPE   H3S 3263   8.584   7.959  15.245  0.8696  1.0448  2.0306
   26DOPE   C24 3264   8.384   8.035  15.271  0.0423  0.7633 -0.2793
   26DOPE   H4R 3265   8.396   8.141  15.241 -1.8473  1.1045  0.0739
   26DOPE   H4S 3266   8.309   8.036  15.353 -2.0065 -0.6923 -1.9930
   26DOPE   C25 3267   8.314   7.953  15.154 -0.3217  0.0337 -0.6674
   26DOPE   H5R 3268   8.226   8.011  15.118  1.1489  0.6239 -3.6743
   26DOPE   H5S 3269   8.282   7.855  15.195  1.6188 -1.1330 -1.7776
   26DOPE   C26 3270   8.406   7.916  15.039  0.1334 -0.2155  0.7914
   26DOPE   H6R 3271   8.483   7.844  15.072 -0.0017 -0.0464  1.4873
   26DOPE   H6S 3272   8.462   8.009  15.014  0.2945 -1.1629 -2.9787
   26DOPE   C27 3273   8.323   7.861  14.917 -0.4150  0.3060  0.0839
   26DOPE   H7R 3274   8.258   7.939  14.871  1.3261  1.0285 -1.2737
   26DOPE   H7S 3275   8.267   7.776  14.962  1.7234 -0.7657  0.8690
   26DOPE   C28 3276   8.407   7.797  14.802  0.1145  0.1429 -0.2245
   26DOPE   H8R 3277   8.346   7.747  14.723 -0.3110  2.2012 -1.2637
   26DOPE   H8S 3278   8.460   7.712  14.850 -0.6660 -0.9918 -1.3153
   26DOPE   C29 3279   8.498   7.904  14.750 -0.1202 -0.3673 -0.2494
   26DOPE   H9R 3280   8.601   7.892  14.786 -0.2130 -1.5578 -0.3398
   26DOPE  C210 3281   8.463   8.009  14.678  0.3741 -0.0590 -0.3976
   26DOPE  H10R 3282   8.537   8.085  14.649  1.3627 -1.2834 -1.1867
   26DOPE  C211 3283   8.329   8.036  14.608  0.3391  0.1997 -0.3692
   26DOPE  H11R 3284   8.284   8.133  14.640  0.4310  0.1077  0.0378
   26DOPE  H11S 3285   8.260   7.951  14.628  0.7172 -0.8216 -2.9414
   26DOPE  C212 3286   8.341   8.054  14.455 -0.0857 -0.1052  0.6222
   26DOPE  H12R 3287   8.426   8.124  14.437 -0.0032 -0.4971 -0.5962
   26DOPE  H12S 3288   8.248   8.088  14.404 -1.0416 -0.4565  2.0679
   26DOPE  C213 3289   8.382   7.925  14.375 -0.6036 -0.3427 -0.1052
   26DOPE  H13R 3290   8.488   7.897  14.392  0.3442  2.7582 -0.3835
   26DOPE  H13S 3291   8.380   7.946  14.266 -1.8075 -0.1029 -0.0516
   26DOPE  C214 3292   8.287   7.800  14.398 -0.0103 -0.1661  0.3097
   26DOPE  H14R 3293   8.186   7.845  14.383  0.4450  0.2903 -1.5743
   26DOPE  H14S 3294   8.297   7.746  14.494 -1.3557  1.4170  1.4024
   26DOPE  C215 3295   8.295   7.692  14.293 -0.8572 -0.4749  0.1799
   26DOPE  H15R 3296   8.274   7.743  14.197  0.2408 -1.1185 -0.4345
   26DOPE  H15S 3297   8.221   7.610  14.306 -0.4434 -0.7440  0.8588
   26DOPE  C216 3298   8.439   7.631  14.275  0.1218 -0.0040  0.0873
   26DOPE  H16R 3299   8.498   7.701  14.212 -3.2274  2.3594 -0.6927
   26DOPE  H16S 3300   8.420   7.541  14.212 -3.2055  0.3641  0.3694
   26DOPE  C217 3301   8.509   7.597  14.409  0.0219 -0.2723  0.8156
   26DOPE  H17R 3302   8.429   7.564  14.478  1.6084 -1.9852  1.9270
   26DOPE  H17S 3303   8.564   7.686  14.446 -1.2320  0.8753  0.0312
   26DOPE  C218 3304   8.600   7.482  14.400 -0.3782  0.3745  0.1520
   26DOPE  H18R 3305   8.653   7.462  14.496  0.8538 -1.3301 -0.8271
   26DOPE  H18S 3306   8.686   7.498  14.332  0.0242 -2.0499 -0.0243
   26DOPE  H18T 3307   8.548   7.389  14.368  1.9484 -0.9952  0.0869
   26DOPE   C33 3308   8.501   7.500  15.098  0.7949 -0.8924  0.2410
   26DOPE   H3X 3309   8.499   7.610  15.092 -1.9350 -0.7988  1.1670
   26DOPE   H3Y 3310   8.396   7.464  15.086  0.3790  0.1210  0.7241
   26DOPE   C34 3311   8.579   7.439  14.974 -0.1466 -0.5475 -0.7231
   26DOPE   H4X 3312   8.635   7.349  15.009  1.0927  1.3706  2.6196
   26DOPE   H4Y 3313   8.510   7.431  14.886 -0.0465  1.5052 -1.0281
   26DOPE   C35 3314   8.688   7.534  14.928 -0.2633  0.1091  0.4984
   26DOPE   H5X 3315   8.768   7.549  15.004  1.0352  1.7595 -1.0877
   26DOPE   H5Y 3316   8.640   7.631  14.903 -0.6566 -0.1390  0.2998
   26DOPE   C36 3317   8.770   7.491  14.802  0.5455  0.1393 -0.8212
   26DOPE   H6X 3318   8.709   7.466  14.712  1.6509 -1.9962 -1.0380
   26DOPE   H6Y 3319   8.812   7.390  14.819 -1.8536 -0.9561 -0.9165
   26DOPE   C37 3320   8.884   7.589  14.771  0.2461 -0.5142  0.2647
   26DOPE   H7X 3321   8.837   7.687  14.745  1.6995 -0.1908 -1.3027
   26DOPE   H7Y 3322   8.955   7.612  14.852 -0.3874  1.5788  0.2952
   26DOPE   C38 3323   8.956   7.563  14.633  0.0268  0.2456  0.5631
   26DOPE   H8X 3324   8.976   7.654  14.573 -0.7875 -0.3146 -0.5895
   26DOPE   H8Y 3325   8.879   7.508  14.575  0.0279 -0.3795  1.1387
   26DOPE   C39 3326   9.076   7.480  14.661 -0.3833  0.2690 -0.6098
   26DOPE   H9X 3327   9.118   7.486  14.763 -1.2518 -0.6702 -0.1821
   26DOPE  C310 3328   9.135   7.376  14.588 -0.4767  0.3124 -0.0868
   26DOPE  H10X 3329   9.211   7.317  14.641 -1.9662  0.0125  1.8339
   26DOPE  C311 3330   9.089   7.343  14.449  0.1772 -0.5141 -0.5749
   26DOPE  H11X 3331   9.043   7.242  14.437  0.2858 -0.4302 -1.8023
   26DOPE  H11Y 3332   9.014   7.413  14.408 -0.1481 -0.5902 -0.1210
   26DOPE  C312 3333   9.203   7.364  14.348 -0.2604  0.5194 -0.2915
   26DOPE  H12X 3334   9.300   7.321  14.382 -0.5893 -0.6944 -0.8617
   26DOPE  H12Y 3335   9.221   7.473  14.335 -0.6752  0.5720 -0.4261
   26DOPE  C313 3336   9.169   7.299  14.213  0.2537 -0.6731 -0.2317
   26DOPE  H13X 3337   9.159   7.191  14.237  0.5546 -0.4105  1.1711
   26DOPE  H13Y 3338   9.070   7.340  14.183  1.3035  3.2354  0.9871
   26DOPE  C314 3339   9.261   7.331  14.094  0.5237  0.8737  0.1032
   26DOPE  H14X 3340   9.225   7.264  14.013 -1.5776  0.3999  1.3430
   26DOPE  H14Y 3341   9.369   7.319  14.119  0.6047  2.1400  0.4080
   26DOPE  C315 3342   9.258   7.467  14.018 -0.7907  0.2838  1.1604
   26DOPE  H15X 3343   9.283   7.554  14.082  2.3295 -1.1315  2.0587
   26DOPE  H15Y 3344   9.152   7.488  13.991 -0.8114 -1.1912 -0.0372
   26DOPE  C316 3345   9.352   7.464  13.894 -0.0161  0.1127  0.0855
   26DOPE  H16X 3346   9.347   7.563  13.845 -0.7608 -0.5323 -1.1677
   26DOPE  H16Y 3347   9.311   7.392  13.821 -0.6140  2.3628 -1.8848
   26DOPE  C317 3348   9.494   7.442  13.936  0.4704 -0.1961  0.2550
   26DOPE  H17X 3349   9.509   7.498  14.031  2.1916  0.0898 -0.1622
   26DOPE  H17Y 3350   9.507   7.333  13.949  1.6692 -0.2018 -0.8207
   26DOPE  C318 3351   9.602   7.503  13.848 -0.3676  0.3283 -0.2917
   26DOPE  H18X 3352   9.611   7.471  13.742  1.9069  1.3217 -0.4539
   26DOPE  H18Y 3353   9.584   7.612  13.835 -1.3724  0.0417 -1.5984
   26DOPE  H18Z 3354   9.696   7.490  13.905 -0.7500  1.4642  0.6301
   27DOPE     N 3355   7.416   0.168  16.345  0.1231 -0.3247  0.0612
   27DOPE   HN1 3356   7.353   0.103  16.296 -1.8175  0.6081  1.2043
   27DOPE   HN2 3357   7.469   0.110  16.413 -1.5182 -1.0008  0.8110
   27DOPE   HN3 3358   7.350   0.231  16.395 -0.0957 -0.7230  0.2777
   27DOPE   C12 3359   7.500   0.261  16.255 -0.0125 -0.1051  0.6638
   27DOPE  H12A 3360   7.475   0.364  16.289 -1.1425  0.6338 -2.1176
   27DOPE  H12B 3361   7.467   0.238  16.151  0.9747  1.9285 -0.1674
   27DOPE   C11 3362   7.649   0.241  16.275  0.4372  0.3404  0.4343
   27DOPE  H11A 3363   7.667   0.134  16.250 -0.7407  0.1856  0.1862
   27DOPE  H11B 3364   7.668   0.264  16.382  1.8462  0.6056  0.1454
   27DOPE     P 3365   7.860   0.287  16.133 -0.1404  0.0789  0.0944
   27DOPE   O13 3366   7.910   0.178  16.213 -0.0907  0.0506  0.2887
   27DOPE   O14 3367   7.945   0.403  16.115 -0.0126 -0.4974 -0.0811
   27DOPE   O11 3368   7.803   0.244  15.990 -0.1991  0.7232 -0.4928
   27DOPE   O12 3369   7.727   0.333  16.201 -0.1854 -0.2428 -0.4330
   27DOPE    C1 3370   7.765   0.109  15.968 -1.0239 -0.2527 -0.8159
   27DOPE    HA 3371   7.668   0.113  15.915 -1.5267 -0.5106  0.0516
   27DOPE    HB 3372   7.746   0.055  16.064 -2.1703  3.1346  1.0446
   27DOPE    C2 3373   7.876   0.027  15.893  0.3267 -0.0290 -0.9760
   27DOPE    HS 3374   7.967   0.021  15.957 -0.4456 -0.3166  0.1288
   27DOPE   O21 3375   7.894   0.088  15.762 -0.0858 -0.2235  0.2688
   27DOPE   C21 3376   8.016   0.076  15.718  0.0501 -0.1444  0.3949
   27DOPE   O22 3377   8.108   0.017  15.772 -0.7199  0.5559  0.1761
   27DOPE   C22 3378   8.027   0.158  15.590  0.4858 -0.2580  0.0407
   27DOPE   H2R 3379   8.132   0.193  15.586  0.2753  0.5227  0.9458
   27DOPE   H2S 3380   7.966   0.248  15.610  2.1702  1.3673 -1.7457
   27DOPE    C3 3381   7.834  -0.122  15.866 -0.5474 -0.0733 -0.0471
   27DOPE    HX 3382   7.816  -0.182  15.958 -0.0502 -1.0754 -0.5818
   27DOPE    HY 3383   7.920  -0.173  15.816  0.9610  1.2080  1.1151
   27DOPE   O31 3384   7.711  -0.135  15.794  0.0767 -0.3932  0.0893
   27DOPE   C31 3385   7.720  -0.185  15.667  0.3220  0.0382 -0.3280
   27DOPE   O32 3386   7.817  -0.232  15.618 -0.4091 -0.2709 -0.2716
   27DOPE   C32 3387   7.574  -0.176  15.602  0.1274 -0.6330  0.5579
   27DOPE   H2X 3388   7.499  -0.165  15.684  1.0117 -0.2201  1.3317
   27DOPE   H2Y 3389   7.571  -0.084  15.540  1.3480  0.1589  1.6234
   27DOPE   C23 3390   7.992   0.094  15.457  0.1490 -0.5057  0.7279
   27DOPE   H3R 3391   8.006   0.173  15.381  0.8055 -0.2706  1.0900
   27DOPE   H3S 3392   7.887   0.059  15.461  0.0840 -0.7545 -1.6649
   27DOPE   C24 3393   8.081  -0.022  15.422  0.0924 -0.0617 -0.3457
   27DOPE   H4R 3394   8.062  -0.113  15.482  1.1101 -1.8418 -2.5709
   27DOPE   H4S 3395   8.183   0.015  15.447 -0.3919  0.1643  1.4679
   27DOPE   C25 3396   8.067  -0.053  15.274 -0.2303 -0.2049 -0.4102
   27DOPE   H5R 3397   8.073   0.043  15.219 -2.3821  1.8127  2.5603
   27DOPE   H5S 3398   7.964  -0.089  15.254 -1.3985  3.1667 -1.0975
   27DOPE   C26 3399   8.172  -0.155  15.213 -0.3695 -0.2917 -0.2636
   27DOPE   H6R 3400   8.144  -0.259  15.242 -1.3166  0.2233  0.7108
   27DOPE   H6S 3401   8.274  -0.128  15.248  0.4714 -0.7918 -2.1583
   27DOPE   C27 3402   8.184  -0.135  15.063 -0.1465 -0.2968  0.3978
   27DOPE   H7R 3403   8.267  -0.198  15.024  0.4711  1.7477 -1.8810
   27DOPE   H7S 3404   8.196  -0.032  15.023  0.6401 -0.8972 -0.9643
   27DOPE   C28 3405   8.057  -0.186  14.984 -0.1446 -0.0884  0.0487
   27DOPE   H8R 3406   7.968  -0.130  15.021 -1.3789 -1.7184 -0.3629
   27DOPE   H8S 3407   8.052  -0.291  15.020 -0.1605 -0.3486 -0.6967
   27DOPE   C29 3408   8.080  -0.161  14.834  0.1946 -0.4645  0.7977
   27DOPE   H9R 3409   8.108  -0.058  14.812 -0.0464 -0.8336 -1.4881
   27DOPE  C210 3410   8.042  -0.246  14.734  0.3996  0.3064  0.6801
   27DOPE  H10R 3411   8.047  -0.216  14.629 -0.5369  1.9645  1.0644
   27DOPE  C211 3412   7.984  -0.380  14.763  0.2448 -0.6481  0.6878
   27DOPE  H11R 3413   7.936  -0.385  14.863  0.1641 -1.5769  0.6055
   27DOPE  H11S 3414   8.059  -0.462  14.761 -0.9834 -1.7868 -1.9441
   27DOPE  C212 3415   7.885  -0.420  14.655  0.2428 -0.1739  0.5143
   27DOPE  H12R 3416   7.810  -0.339  14.640 -0.8092 -1.5216 -2.1242
   27DOPE  H12S 3417   7.827  -0.509  14.689  1.1114 -0.8322  0.3182
   27DOPE  C213 3418   7.946  -0.463  14.522 -0.2053 -0.2709 -0.3751
   27DOPE  H13R 3419   8.009  -0.552  14.542  4.6873  2.8057 -0.5171
   27DOPE  H13S 3420   8.023  -0.388  14.496 -0.0690 -0.0311  0.6684
   27DOPE  C214 3421   7.840  -0.485  14.411 -0.2329  0.1053 -0.1248
   27DOPE  H14R 3422   7.789  -0.386  14.399 -0.6331 -0.1843 -0.8392
   27DOPE  H14S 3423   7.762  -0.551  14.454 -0.9416  1.2096  0.3518
   27DOPE  C215 3424   7.896  -0.537  14.274  0.6123 -0.2373  0.4764
   27DOPE  H15R 3425   7.811  -0.536  14.203  1.4895  1.2487 -0.6039
   27DOPE  H15S 3426   7.926  -0.643  14.290 -0.0372 -0.5266 -0.1580
   27DOPE  C216 3427   8.008  -0.444  14.220  0.1929  0.6242  0.4742
   27DOPE  H16R 3428   8.098  -0.427  14.284  0.4190  1.2268  0.0129
   27DOPE  H16S 3429   7.964  -0.342  14.211  1.5568  1.2680  0.7382
   27DOPE  C217 3430   8.071  -0.482  14.083  0.5667 -0.4557 -0.2567
   27DOPE  H17R 3431   7.998  -0.468  14.000  0.9280  1.6642 -0.2861
   27DOPE  H17S 3432   8.094  -0.591  14.087 -2.1525 -1.0480  1.1765
   27DOPE  C218 3433   8.197  -0.397  14.041  0.6589 -0.4743 -0.0030
   27DOPE  H18R 3434   8.288  -0.429  14.096  0.7759 -1.6621 -0.8552
   27DOPE  H18S 3435   8.190  -0.292  14.075  2.5984 -0.1177 -0.5969
   27DOPE  H18T 3436   8.226  -0.406  13.934  3.4950 -2.4302  0.8115
   27DOPE   C33 3437   7.547  -0.297  15.508 -0.1836  0.4302  0.0428
   27DOPE   H3X 3438   7.564  -0.400  15.548  0.2390  0.6499  0.4315
   27DOPE   H3Y 3439   7.613  -0.298  15.418 -3.9669 -3.4083 -3.1645
   27DOPE   C34 3440   7.406  -0.291  15.445 -0.1171  0.2076  0.1347
   27DOPE   H4X 3441   7.337  -0.278  15.531 -1.1971 -1.6307 -0.3986
   27DOPE   H4Y 3442   7.398  -0.200  15.383 -1.0490 -1.0586 -1.6817
   27DOPE   C35 3443   7.381  -0.421  15.357  0.0005  0.6107  0.2704
   27DOPE   H5X 3444   7.372  -0.507  15.426 -0.1155  0.8154  0.5095
   27DOPE   H5Y 3445   7.471  -0.438  15.293 -1.6964  3.6584 -3.3360
   27DOPE   C36 3446   7.262  -0.417  15.265  0.0373  0.0940  0.1833
   27DOPE   H6X 3447   7.248  -0.504  15.199  0.4869  2.0478 -2.6608
   27DOPE   H6Y 3448   7.275  -0.326  15.202  1.3020  0.6372  1.1741
   27DOPE   C37 3449   7.126  -0.395  15.335 -0.2641  0.9370  0.0831
   27DOPE   H7X 3450   7.118  -0.477  15.410  0.6276 -1.0648 -1.8619
   27DOPE   H7Y 3451   7.120  -0.298  15.387 -1.6633  0.4933  0.8175
   27DOPE   C38 3452   7.008  -0.401  15.242  0.1508 -0.3764 -0.0924
   27DOPE   H8X 3453   7.003  -0.507  15.211 -1.1919 -0.1480 -0.7542
   27DOPE   H8Y 3454   7.028  -0.333  15.157 -1.6971  2.9901  1.9273
   27DOPE   C39 3455   6.870  -0.372  15.305 -0.5520 -0.0071  0.4588
   27DOPE   H9X 3456   6.864  -0.419  15.403  1.0022 -2.0487 -0.3673
   27DOPE  C310 3457   6.771  -0.292  15.257 -0.4052 -0.3166  0.0247
   27DOPE  H10X 3458   6.682  -0.275  15.320 -0.1290  1.3300  0.0363
   27DOPE  C311 3459   6.779  -0.220  15.129 -0.0025 -0.5474 -0.1670
   27DOPE  H11X 3460   6.873  -0.237  15.072  0.4068 -1.2057  0.6951
   27DOPE  H11Y 3461   6.701  -0.263  15.063  1.0771  0.8434 -2.4903
   27DOPE  C312 3462   6.753  -0.066  15.141  0.4397  0.4740 -0.3404
   27DOPE  H12X 3463   6.847  -0.008  15.154  0.6351 -0.2090  1.5684
   27DOPE  H12Y 3464   6.685  -0.035  15.223 -1.4888  2.7309 -2.5843
   27DOPE  C313 3465   6.674  -0.014  15.019  0.5927  0.2520  0.5425
   27DOPE  H13X 3466   6.586  -0.080  14.999  1.0103 -0.7205  1.7689
   27DOPE  H13Y 3467   6.642   0.091  15.033 -0.6516 -0.2844  2.0583
   27DOPE  C314 3468   6.761  -0.017  14.893 -0.2034  0.2454 -0.2341
   27DOPE  H14X 3469   6.764  -0.122  14.859 -1.4774 -0.2569  1.1166
   27DOPE  H14Y 3470   6.861   0.020  14.926 -1.1685  3.1531 -0.3110
   27DOPE  C315 3471   6.710   0.069  14.775  0.0630  0.3666  0.0714
   27DOPE  H15X 3472   6.712   0.173  14.812  1.1890  0.9818 -1.5958
   27DOPE  H15Y 3473   6.603   0.039  14.774  0.1400  0.0862 -0.3666
   27DOPE  C316 3474   6.783   0.041  14.639 -0.0216  0.7539  0.4523
   27DOPE  H16X 3475   6.775  -0.066  14.609  1.7008  0.0228  2.3472
   27DOPE  H16Y 3476   6.892   0.042  14.657  0.1813 -1.7260 -0.2775
   27DOPE  C317 3477   6.749   0.141  14.521 -0.4321 -0.0964  0.2293
   27DOPE  H17X 3478   6.661   0.203  14.548 -0.8247 -0.6929  0.3584
   27DOPE  H17Y 3479   6.838   0.206  14.513  0.2151 -0.7197  1.8386
   27DOPE  C318 3480   6.728   0.080  14.379 -0.4197  0.2250  0.1860
   27DOPE  H18X 3481   6.716   0.167  14.312 -1.1421 -1.8401 -2.5040
   27DOPE  H18Y 3482   6.818   0.024  14.344 -0.3373 -0.6808  1.7079
   27DOPE  H18Z 3483   6.638   0.015  14.379 -0.4866  0.3140  0.6297
   28DOPE     N 3484   0.159   6.840  15.882  0.1577  0.4723  0.4538
   28DOPE   HN1 3485   0.123   6.935  15.862 -0.5009 -0.1307 -1.3733
   28DOPE   HN2 3486   0.209   6.829  15.973  0.4173 -0.9710  0.1594
   28DOPE   HN3 3487   0.230   6.818  15.810 -1.2806 -0.2825 -0.8044
   28DOPE   C12 3488   0.052   6.734  15.871 -0.6985 -0.1854  0.2671
   28DOPE  H12A 3489   0.002   6.728  15.970  0.8658  1.1059  1.1909
   28DOPE  H12B 3490   0.110   6.650  15.829 -0.1028  0.8666 -1.0792
   28DOPE   C11 3491  -0.051   6.787  15.776 -0.3087 -0.2576  0.7467
   28DOPE  H11A 3492  -0.111   6.694  15.772 -0.9779  0.2043 -0.8108
   28DOPE  H11B 3493  -0.003   6.814  15.679 -1.5868  1.4546  0.5443
   28DOPE     P 3494  -0.274   6.904  15.865  0.3250  0.3243 -0.3618
   28DOPE   O13 3495  -0.304   7.049  15.894  0.1165  0.0273  0.7611
   28DOPE   O14 3496  -0.296   6.812  15.977  0.2607 -0.0750  0.2259
   28DOPE   O11 3497  -0.352   6.848  15.741 -0.2343 -0.0030 -0.5194
   28DOPE   O12 3498  -0.119   6.901  15.823 -0.0217  0.5430 -0.1033
   28DOPE    C1 3499  -0.368   6.938  15.630  0.2766  0.1644 -0.8956
   28DOPE    HA 3500  -0.269   6.979  15.600  1.1567 -0.7887  0.5934
   28DOPE    HB 3501  -0.435   7.024  15.652 -1.4182 -1.2746 -0.1655
   28DOPE    C2 3502  -0.424   6.857  15.510  0.1455  0.9957 -0.5171
   28DOPE    HS 3503  -0.424   6.929  15.426 -0.2669 -1.6090 -2.8747
   28DOPE   O21 3504  -0.562   6.809  15.542  0.0887  0.2600  0.0340
   28DOPE   C21 3505  -0.653   6.895  15.520 -0.4076  0.1848 -0.3352
   28DOPE   O22 3506  -0.640   7.007  15.482 -0.1290 -0.1121  0.8181
   28DOPE   C22 3507  -0.790   6.832  15.537 -0.1940  0.1945 -0.8867
   28DOPE   H2R 3508  -0.843   6.893  15.613 -0.7260  0.1113 -1.1829
   28DOPE   H2S 3509  -0.777   6.729  15.578  1.0338  0.1275 -1.4122
   28DOPE    C3 3510  -0.327   6.733  15.468 -0.2234 -0.7447  0.6780
   28DOPE    HX 3511  -0.350   6.640  15.523 -2.1347 -1.1026 -0.6262
   28DOPE    HY 3512  -0.226   6.770  15.496  0.3957 -1.0415 -1.0401
   28DOPE   O31 3513  -0.320   6.716  15.327  1.1285 -0.8287 -0.1285
   28DOPE   C31 3514  -0.205   6.680  15.274 -0.9002  0.4211 -0.2494
   28DOPE   O32 3515  -0.101   6.658  15.336  0.1775 -0.0604  0.4434
   28DOPE   C32 3516  -0.226   6.671  15.129 -0.1562  0.0391 -0.4517
   28DOPE   H2X 3517  -0.311   6.603  15.109 -0.0126 -0.5576  0.8511
   28DOPE   H2Y 3518  -0.252   6.770  15.086 -1.7156 -0.9427 -1.8903
   28DOPE   C23 3519  -0.875   6.834  15.409  0.5737 -0.1734 -1.4167
   28DOPE   H3R 3520  -0.890   6.933  15.362  2.5458  0.0912 -1.5471
   28DOPE   H3S 3521  -0.975   6.794  15.438  0.2649  1.1030 -0.6217
   28DOPE   C24 3522  -0.809   6.737  15.312  0.7530 -0.2800  0.7096
   28DOPE   H4R 3523  -0.796   6.635  15.354  0.6492 -0.1342  1.0992
   28DOPE   H4S 3524  -0.708   6.775  15.288 -0.0605  1.4944 -0.1397
   28DOPE   C25 3525  -0.898   6.713  15.190  0.8790 -0.6707 -0.0649
   28DOPE   H5R 3526  -0.937   6.810  15.153  1.8965  0.8878  2.6339
   28DOPE   H5S 3527  -0.981   6.644  15.215  1.3776 -0.5777  2.0492
   28DOPE   C26 3528  -0.804   6.647  15.092  0.0255  0.4506  0.1544
   28DOPE   H6R 3529  -0.788   6.539  15.118  1.4383  0.3881 -0.8591
   28DOPE   H6S 3530  -0.706   6.697  15.077  0.2264 -0.6510 -2.6796
   28DOPE   C27 3531  -0.879   6.635  14.965  0.7191 -0.2102  1.0123
   28DOPE   H7R 3532  -0.911   6.735  14.928 -1.3039 -1.1175  0.1968
   28DOPE   H7S 3533  -0.967   6.569  14.979  1.4784 -1.6457 -0.5541
   28DOPE   C28 3534  -0.792   6.554  14.853 -0.0048  0.3181 -0.1393
   28DOPE   H8R 3535  -0.870   6.531  14.777  0.5183 -0.7942 -0.3557
   28DOPE   H8S 3536  -0.739   6.465  14.893  1.3428  1.0094 -0.3141
   28DOPE   C29 3537  -0.686   6.647  14.786  0.4899  1.2935 -0.3895
   28DOPE   H9R 3538  -0.595   6.665  14.846  0.0039  1.5064  0.2987
   28DOPE  C210 3539  -0.682   6.694  14.665  0.1578  0.3976  0.3196
   28DOPE  H10R 3540  -0.585   6.734  14.632  1.1524 -0.8965  1.5564
   28DOPE  C211 3541  -0.787   6.688  14.558  0.8742 -0.6576  0.6902
   28DOPE  H11R 3542  -0.879   6.639  14.597  0.6503 -0.7300  0.0853
   28DOPE  H11S 3543  -0.749   6.632  14.470 -0.7829  0.6728 -0.9458
   28DOPE  C212 3544  -0.838   6.820  14.498 -0.5780  0.0913  0.1848
   28DOPE  H12R 3545  -0.745   6.849  14.445 -0.4573 -2.2537 -0.9992
   28DOPE  H12S 3546  -0.861   6.900  14.572  3.5089  2.0683 -0.4519
   28DOPE  C213 3547  -0.944   6.793  14.387  0.3810 -0.3064 -0.3240
   28DOPE  H13R 3548  -1.039   6.745  14.417 -0.4192  0.8236 -0.9495
   28DOPE  H13S 3549  -0.898   6.727  14.311  0.8485  0.7845 -1.0110
   28DOPE  C214 3550  -0.981   6.917  14.300 -0.0994 -0.2730 -0.9005
   28DOPE  H14R 3551  -0.891   6.962  14.253  0.5946  1.3280  1.7881
   28DOPE  H14S 3552  -1.013   6.995  14.372 -1.2723  0.4361 -2.1564
   28DOPE  C215 3553  -1.097   6.895  14.198  0.0913  0.3124 -0.1106
   28DOPE  H15R 3554  -1.179   6.855  14.261  0.7673  0.0442  0.6070
   28DOPE  H15S 3555  -1.072   6.811  14.130 -1.4799 -1.4691  1.3991
   28DOPE  C216 3556  -1.141   7.023  14.123 -0.3033 -0.0316  0.2738
   28DOPE  H16R 3557  -1.211   7.006  14.038  0.9752  1.3087 -1.1074
   28DOPE  H16S 3558  -1.048   7.051  14.070 -0.3859 -1.3777 -0.6457
   28DOPE  C217 3559  -1.195   7.150  14.201 -0.4530 -0.2288 -0.1807
   28DOPE  H17R 3560  -1.119   7.206  14.259 -0.6362  0.6817 -0.8066
   28DOPE  H17S 3561  -1.284   7.117  14.259 -0.2279 -1.2468 -0.3929
   28DOPE  C218 3562  -1.251   7.252  14.096 -0.9322  0.0904 -0.0471
   28DOPE  H18R 3563  -1.168   7.298  14.038 -1.0979 -1.9181 -1.9988
   28DOPE  H18S 3564  -1.303   7.338  14.144 -2.3647 -0.4482 -0.5985
   28DOPE  H18T 3565  -1.325   7.195  14.037 -2.7215 -0.2677  2.3821
   28DOPE   C33 3566  -0.099   6.622  15.046  0.6551 -0.1147 -0.8597
   28DOPE   H3X 3567  -0.053   6.531  15.089 -0.5348 -2.0675 -3.4785
   28DOPE   H3Y 3568  -0.023   6.703  15.037 -0.9043  1.6284  0.6388
   28DOPE   C34 3569  -0.139   6.582  14.903  0.9366 -0.1570 -0.1625
   28DOPE   H4X 3570  -0.050   6.538  14.854  0.0651 -3.2169  0.8176
   28DOPE   H4Y 3571  -0.206   6.493  14.903 -0.8370  1.0525 -2.4217
   28DOPE   C35 3572  -0.198   6.693  14.817 -0.0303 -0.4265 -0.2664
   28DOPE   H5X 3573  -0.148   6.791  14.828  1.9533 -1.2004 -1.7798
   28DOPE   H5Y 3574  -0.306   6.706  14.838  0.1651 -1.3176  1.4051
   28DOPE   C36 3575  -0.188   6.659  14.663 -0.2819 -0.1708  0.1697
   28DOPE   H6X 3576  -0.232   6.560  14.638 -0.6065  0.7623 -3.7505
   28DOPE   H6Y 3577  -0.081   6.656  14.632 -0.5186  3.7262 -1.7405
   28DOPE   C37 3578  -0.269   6.749  14.561 -0.3262 -1.1007 -0.3655
   28DOPE   H7X 3579  -0.375   6.756  14.594 -0.0444  1.0540  0.2997
   28DOPE   H7Y 3580  -0.221   6.850  14.554  0.0747 -1.2908 -0.3906
   28DOPE   C38 3581  -0.249   6.695  14.417 -0.5680 -0.1218  0.0620
   28DOPE   H8X 3582  -0.319   6.752  14.352 -1.2843 -0.8877  0.1534
   28DOPE   H8Y 3583  -0.294   6.594  14.423 -0.3978 -0.2192 -0.3119
   28DOPE   C39 3584  -0.115   6.670  14.360 -0.3207 -0.3492 -0.0132
   28DOPE   H9X 3585  -0.069   6.576  14.394  0.6340  0.0413 -0.2110
   28DOPE  C310 3586  -0.039   6.762  14.298 -0.6119  0.3332 -0.5174
   28DOPE  H10X 3587   0.057   6.741  14.249 -1.0788 -2.4768 -0.3486
   28DOPE  C311 3588  -0.091   6.897  14.255 -0.1643 -0.0353 -0.2452
   28DOPE  H11X 3589  -0.125   6.896  14.149  0.2119  1.3105 -0.3961
   28DOPE  H11Y 3590  -0.179   6.931  14.315  0.2840  0.0528  0.3671
   28DOPE  C312 3591   0.007   7.018  14.265 -0.8447 -0.7195 -0.0292
   28DOPE  H12X 3592   0.088   6.987  14.196 -0.9234 -0.2872 -0.3206
   28DOPE  H12Y 3593   0.035   7.012  14.372 -3.5575  0.1582  0.8294
   28DOPE  C313 3594  -0.050   7.152  14.231 -0.2686 -0.3450 -0.5170
   28DOPE  H13X 3595  -0.128   7.172  14.307  0.8749 -0.2739  0.6873
   28DOPE  H13Y 3596   0.032   7.227  14.224 -0.3553 -0.3103 -1.2740
   28DOPE  C314 3597  -0.115   7.165  14.098  0.6738 -0.3971  0.7709
   28DOPE  H14X 3598  -0.199   7.093  14.095  1.0971 -0.8517 -1.4280
   28DOPE  H14Y 3599  -0.049   7.125  14.018  2.4041 -0.3695  2.1114
   28DOPE  C315 3600  -0.140   7.309  14.054 -0.1223  0.1998  0.2910
   28DOPE  H15X 3601  -0.051   7.374  14.064 -1.1031  1.6511 -0.1653
   28DOPE  H15Y 3602  -0.202   7.358  14.131  1.4715  2.1279  0.4108
   28DOPE  C316 3603  -0.198   7.327  13.913 -0.0839 -0.6075  0.2083
   28DOPE  H16X 3604  -0.261   7.238  13.890 -0.0015 -0.0847 -2.3585
   28DOPE  H16Y 3605  -0.114   7.324  13.840 -1.5368 -1.0850 -1.5335
   28DOPE  C317 3606  -0.274   7.459  13.900  0.4721 -0.0691  0.4023
   28DOPE  H17X 3607  -0.199   7.540  13.913 -1.1641  1.1696  2.9491
   28DOPE  H17Y 3608  -0.319   7.486  13.803 -0.9571  1.4600  1.4392
   28DOPE  C318 3609  -0.378   7.485  14.015  0.0945 -0.6825 -0.0942
   28DOPE  H18X 3610  -0.454   7.563  13.992  0.7036  0.5017  1.6420
   28DOPE  H18Y 3611  -0.433   7.390  14.034 -0.2918 -0.5538 -0.5539
   28DOPE  H18Z 3612  -0.319   7.523  14.101  0.7236 -1.6617 -0.0746
   29DOPE     N 3613   8.126   1.546  15.830  0.4331  0.2258 -0.7477
   29DOPE   HN1 3614   8.044   1.609  15.815  0.1153 -0.3972 -1.7342
   29DOPE   HN2 3615   8.153   1.532  15.930  3.0757 -0.1403 -1.4602
   29DOPE   HN3 3616   8.204   1.599  15.787  0.7358 -2.9228 -4.5700
   29DOPE   C12 3617   8.102   1.411  15.762  0.4798  0.4543 -0.2041
   29DOPE  H12A 3618   8.201   1.383  15.721 -0.2591  0.7888 -2.3080
   29DOPE  H12B 3619   8.029   1.406  15.679  0.2038 -0.8750  0.0985
   29DOPE   C11 3620   8.056   1.316  15.873  0.6118 -0.1378 -0.0515
   29DOPE  H11A 3621   8.033   1.218  15.825 -1.2437 -0.8253  2.0774
   29DOPE  H11B 3622   7.959   1.352  15.913  1.1370  0.1560  1.0020
   29DOPE     P 3623   8.115   1.211  16.103 -0.4291  0.0886  0.4152
   29DOPE   O13 3624   7.984   1.256  16.150 -0.7500 -0.0819 -0.3293
   29DOPE   O14 3625   8.233   1.236  16.194 -0.1966 -0.4636  0.7661
   29DOPE   O11 3626   8.105   1.061  16.049 -0.2171  0.2305  0.2496
   29DOPE   O12 3627   8.146   1.303  15.981  0.3725 -1.0560 -0.1014
   29DOPE    C1 3628   8.217   0.969  16.041 -0.0280  0.2397 -0.2508
   29DOPE    HA 3629   8.179   0.868  16.064 -1.9489  0.8188 -0.7077
   29DOPE    HB 3630   8.290   0.987  16.123  1.0326 -1.1671 -0.8402
   29DOPE    C2 3631   8.303   0.990  15.916 -0.1498  0.0420  0.3309
   29DOPE    HS 3632   8.365   1.082  15.926  1.1106 -1.0422  4.8847
   29DOPE   O21 3633   8.218   0.993  15.804  0.4656  0.2674 -0.1730
   29DOPE   C21 3634   8.247   1.081  15.707 -1.2277  0.2564 -0.3275
   29DOPE   O22 3635   8.346   1.149  15.708  0.1056 -0.1484  0.4376
   29DOPE   C22 3636   8.152   1.071  15.594  0.0014 -0.3182  0.0095
   29DOPE   H2R 3637   8.069   1.143  15.612  1.1882  0.3503  3.8056
   29DOPE   H2S 3638   8.103   0.972  15.609  0.3664 -0.2774  1.7505
   29DOPE    C3 3639   8.405   0.873  15.893 -0.1336  0.4836  0.3569
   29DOPE    HX 3640   8.347   0.781  15.916 -0.8402  0.5276 -1.1434
   29DOPE    HY 3641   8.483   0.886  15.971 -0.4845  1.5608  0.5569
   29DOPE   O31 3642   8.453   0.862  15.757  0.2812  0.0176  0.4092
   29DOPE   C31 3643   8.561   0.920  15.732  0.2100 -1.4603 -0.3200
   29DOPE   O32 3644   8.633   0.985  15.805  0.7448 -0.1072  0.2636
   29DOPE   C32 3645   8.587   0.917  15.583  0.0133 -0.1365  0.2729
   29DOPE   H2X 3646   8.574   1.019  15.541 -0.9541 -0.8204 -1.1339
   29DOPE   H2Y 3647   8.693   0.888  15.575 -0.2721 -0.9511 -0.6405
   29DOPE   C23 3648   8.219   1.095  15.460 -0.0542  1.1174  0.6502
   29DOPE   H3R 3649   8.310   1.034  15.449 -0.9218 -0.4899  1.9889
   29DOPE   H3S 3650   8.246   1.203  15.456 -0.8056  1.3519  1.5454
   29DOPE   C24 3651   8.127   1.055  15.341  0.0114 -0.3176  0.3582
   29DOPE   H4R 3652   8.178   1.098  15.252 -0.2519 -0.3222  0.2028
   29DOPE   H4S 3653   8.034   1.115  15.347  1.2159  1.7252 -0.5583
   29DOPE   C25 3654   8.101   0.905  15.319  1.0366  0.5228  0.6053
   29DOPE   H5R 3655   8.037   0.872  15.405 -0.1898 -0.9003 -0.7808
   29DOPE   H5S 3656   8.197   0.850  15.322  0.8798  0.2770  1.5271
   29DOPE   C26 3657   8.014   0.889  15.202  0.0555 -0.5200  0.8199
   29DOPE   H6R 3658   7.930   0.960  15.189 -0.0432 -0.3199  2.3236
   29DOPE   H6S 3659   7.984   0.782  15.200  2.2534 -1.1878  0.5214
   29DOPE   C27 3660   8.109   0.910  15.079 -0.1209  0.2864  1.1135
   29DOPE   H7R 3661   8.217   0.892  15.097 -0.3545 -1.3217  1.0662
   29DOPE   H7S 3662   8.108   1.018  15.052 -3.3413  0.0765 -0.0165
   29DOPE   C28 3663   8.060   0.827  14.962 -0.7712  0.5972 -0.5974
   29DOPE   H8R 3664   8.061   0.721  14.994  4.2595  0.3715 -0.7397
   29DOPE   H8S 3665   8.144   0.823  14.889  0.5854  0.9897  0.8990
   29DOPE   C29 3666   7.925   0.881  14.912 -0.2725  0.2841  0.0259
   29DOPE   H9R 3667   7.836   0.881  14.977 -0.4904  3.5839 -0.0944
   29DOPE  C210 3668   7.896   0.950  14.799  0.1141  0.5504  0.3703
   29DOPE  H10R 3669   7.791   0.980  14.787 -0.0984  0.0745  0.9558
   29DOPE  C211 3670   7.988   0.975  14.688 -0.2461 -0.2723 -1.0149
   29DOPE  H11R 3671   8.069   0.899  14.679  0.2764  0.3829 -2.0842
   29DOPE  H11S 3672   8.040   1.069  14.714 -0.4544 -1.0200  2.5363
   29DOPE  C212 3673   7.913   0.972  14.551 -0.0565  1.0171 -0.6750
   29DOPE  H12R 3674   7.838   1.054  14.547  0.2944  1.2971 -2.7407
   29DOPE  H12S 3675   7.862   0.874  14.534  1.1819  0.0347  1.0060
   29DOPE  C213 3676   8.011   1.002  14.437  0.7526  0.0124 -0.1479
   29DOPE  H13R 3677   8.099   0.934  14.436 -0.5750 -1.7623  0.1132
   29DOPE  H13S 3678   8.050   1.105  14.454 -0.4338  0.3773  0.4343
   29DOPE  C214 3679   7.935   1.008  14.302 -0.0971  0.0988 -0.1165
   29DOPE  H14R 3680   7.870   0.919  14.319  1.0470 -0.5191  1.2404
   29DOPE  H14S 3681   8.015   0.989  14.226  0.1998 -0.6963  0.3751
   29DOPE  C215 3682   7.852   1.132  14.279  0.4316  0.6410  0.2543
   29DOPE  H15R 3683   7.904   1.230  14.286  0.9710  0.5180 -1.5777
   29DOPE  H15S 3684   7.776   1.127  14.359 -1.9290  1.0171 -1.8417
   29DOPE  C216 3685   7.759   1.134  14.155  0.1650  0.1594  0.7537
   29DOPE  H16R 3686   7.695   1.043  14.161  1.1150 -0.7087 -1.3552
   29DOPE  H16S 3687   7.819   1.129  14.062 -0.5618 -0.7055  0.3170
   29DOPE  C217 3688   7.660   1.255  14.135  0.6425  0.2656  0.5177
   29DOPE  H17R 3689   7.699   1.354  14.168  1.3039  0.3681 -0.5507
   29DOPE  H17S 3690   7.572   1.243  14.202  0.3388  0.9499  0.2540
   29DOPE  C218 3691   7.606   1.275  13.997  0.1089 -0.3803  0.1489
   29DOPE  H18R 3692   7.561   1.183  13.955 -0.6034 -0.3853  0.8925
   29DOPE  H18S 3693   7.691   1.307  13.933  0.7689  0.2883  1.3213
   29DOPE  H18T 3694   7.535   1.357  13.970  0.6467 -0.3091 -1.1320
   29DOPE   C33 3695   8.511   0.806  15.502  0.4310  0.2368  0.1276
   29DOPE   H3X 3696   8.402   0.817  15.521  0.1122  1.1891 -1.9803
   29DOPE   H3Y 3697   8.553   0.707  15.530 -1.7740 -0.8288 -0.1340
   29DOPE   C34 3698   8.526   0.824  15.349  0.3954  0.4441 -0.4217
   29DOPE   H4X 3699   8.488   0.926  15.323 -5.3699 -1.3671 -0.4700
   29DOPE   H4Y 3700   8.637   0.823  15.336  0.8957  0.8765  2.9156
   29DOPE   C35 3701   8.469   0.712  15.266 -0.0623  0.1701  0.1359
   29DOPE   H5X 3702   8.359   0.723  15.274 -0.1438  0.9927 -1.5802
   29DOPE   H5Y 3703   8.497   0.613  15.308 -0.5171  0.5211  1.3072
   29DOPE   C36 3704   8.501   0.737  15.113 -0.1954  0.3634 -0.0357
   29DOPE   H6X 3705   8.570   0.823  15.110  1.1358 -0.6897 -0.6639
   29DOPE   H6Y 3706   8.411   0.752  15.050 -0.2891 -0.1874 -0.0378
   29DOPE   C37 3707   8.581   0.606  15.062 -0.5005 -0.2673  0.0848
   29DOPE   H7X 3708   8.669   0.598  15.130 -0.1200  1.1667 -0.2030
   29DOPE   H7Y 3709   8.519   0.515  15.072 -0.3281 -0.5868 -1.5059
   29DOPE   C38 3710   8.640   0.628  14.924  0.6970 -0.0119 -0.4625
   29DOPE   H8X 3711   8.723   0.559  14.899  1.3305  1.1014 -1.5491
   29DOPE   H8Y 3712   8.679   0.730  14.902  0.6045  0.1300  0.0132
   29DOPE   C39 3713   8.531   0.592  14.829  0.2287  0.0810 -0.1480
   29DOPE   H9X 3714   8.426   0.598  14.863 -0.6384 -0.9486 -2.4001
   29DOPE  C310 3715   8.544   0.561  14.702 -0.6520  0.8306  0.5227
   29DOPE  H10X 3716   8.456   0.520  14.650  0.9644 -2.3854  0.0422
   29DOPE  C311 3717   8.678   0.549  14.627 -0.0035  0.8114 -0.3985
   29DOPE  H11X 3718   8.766   0.570  14.692 -0.2025 -0.9798  0.5197
   29DOPE  H11Y 3719   8.682   0.442  14.599  0.1577  0.3762  1.1628
   29DOPE  C312 3720   8.682   0.645  14.510  0.3994 -0.1574 -0.6113
   29DOPE  H12X 3721   8.653   0.746  14.547  0.8942  0.0844 -0.8740
   29DOPE  H12Y 3722   8.607   0.623  14.431 -0.6213  1.4637 -0.1425
   29DOPE  C313 3723   8.818   0.652  14.443  0.8838  0.1124  0.1544
   29DOPE  H13X 3724   8.857   0.550  14.422 -1.3723 -0.4581 -1.6396
   29DOPE  H13Y 3725   8.804   0.693  14.341 -0.1050  0.1962  0.3185
   29DOPE  C314 3726   8.909   0.750  14.508 -0.2031 -0.3792  0.6127
   29DOPE  H14X 3727   8.910   0.730  14.617 -1.5881  0.6930  0.8505
   29DOPE  H14Y 3728   8.859   0.848  14.495 -1.3527 -0.6421  2.6285
   29DOPE  C315 3729   9.054   0.758  14.464 -0.0753 -0.1641  0.1366
   29DOPE  H15X 3730   9.101   0.851  14.503  0.1947 -0.0466 -0.4496
   29DOPE  H15Y 3731   9.062   0.767  14.353  1.8840  1.3358  0.3433
   29DOPE  C316 3732   9.151   0.644  14.511  0.3678 -0.3598 -0.2644
   29DOPE  H16X 3733   9.113   0.551  14.463  1.1624  0.2600 -2.1774
   29DOPE  H16Y 3734   9.130   0.632  14.620 -2.1779  1.5752 -0.4638
   29DOPE  C317 3735   9.299   0.657  14.486  0.5326  0.2845 -0.0534
   29DOPE  H17X 3736   9.355   0.568  14.523  0.2289  0.0465 -0.1639
   29DOPE  H17Y 3737   9.303   0.679  14.377 -2.7215  4.5679  0.3997
   29DOPE  C318 3738   9.354   0.783  14.551  0.5403  0.6469  0.2915
   29DOPE  H18X 3739   9.332   0.773  14.660 -0.6319  0.0553  0.0135
   29DOPE  H18Y 3740   9.463   0.767  14.541  0.3813 -0.7568  0.6491
   29DOPE  H18Z 3741   9.308   0.874  14.506 -0.6729 -0.0922 -0.0008
   30DOPE     N 3742   0.317   1.104  15.995 -0.6000 -0.1823  0.4269
   30DOPE   HN1 3743   0.297   1.205  16.010  0.2126  0.0778 -0.1741
   30DOPE   HN2 3744   0.261   1.078  15.912 -0.5265  3.2426 -0.8466
   30DOPE   HN3 3745   0.295   1.049  16.081 -1.1122  0.0045  0.4207
   30DOPE   C12 3746   0.469   1.088  15.975 -0.0035  0.0379  0.2971
   30DOPE  H12A 3747   0.517   1.096  16.075  0.9816  0.4393 -0.2038
   30DOPE  H12B 3748   0.498   1.167  15.903 -2.4671  0.3607 -0.4339
   30DOPE   C11 3749   0.498   0.950  15.925 -0.0928  0.3986  0.0616
   30DOPE  H11A 3750   0.609   0.943  15.929  0.1704  2.6152 -1.4158
   30DOPE  H11B 3751   0.471   0.950  15.817  0.6991 -0.3720 -0.1548
   30DOPE     P 3752   0.460   0.702  15.975 -0.3854  0.1857 -0.1698
   30DOPE   O13 3753   0.436   0.630  16.102  0.2089 -0.2119  0.0869
   30DOPE   O14 3754   0.591   0.692  15.910  0.2707 -0.0510  0.5184
   30DOPE   O11 3755   0.344   0.652  15.876  0.2194 -0.2570 -0.2804
   30DOPE   O12 3756   0.429   0.851  16.000 -0.5160 -0.1956 -0.0677
   30DOPE    C1 3757   0.210   0.617  15.910  0.1872  0.1850 -0.2734
   30DOPE    HA 3758   0.151   0.670  15.833  2.5466 -1.9200 -3.8315
   30DOPE    HB 3759   0.179   0.645  16.013 -1.0031 -2.0836  0.0544
   30DOPE    C2 3760   0.185   0.467  15.893  0.4200 -0.1232 -0.2773
   30DOPE    HS 3761   0.263   0.413  15.952 -1.2136 -1.4031  0.8086
   30DOPE   O21 3762   0.211   0.437  15.752  0.0513 -0.2099 -0.4907
   30DOPE   C21 3763   0.195   0.313  15.724 -0.3582 -0.0585 -0.1235
   30DOPE   O22 3764   0.179   0.223  15.803 -0.3328 -0.1422  0.7387
   30DOPE   C22 3765   0.194   0.295  15.576  0.8456  0.5916 -0.3336
   30DOPE   H2R 3766   0.297   0.280  15.536  0.5857  1.0060 -1.1813
   30DOPE   H2S 3767   0.151   0.384  15.524 -0.1422  0.2957 -0.0471
   30DOPE    C3 3768   0.040   0.432  15.945  0.0448  0.7614 -0.2388
   30DOPE    HX 3769   0.041   0.458  16.053  0.6827 -2.0213  0.4966
   30DOPE    HY 3770   0.015   0.324  15.933  1.9012  0.1260  1.0876
   30DOPE   O31 3771  -0.061   0.516  15.886  1.1126 -0.2871  0.6087
   30DOPE   C31 3772  -0.144   0.465  15.794  0.3165  0.1658  0.1243
   30DOPE   O32 3773  -0.156   0.347  15.767  0.7566  0.1774 -0.6083
   30DOPE   C32 3774  -0.230   0.580  15.738  0.7502 -0.0369  0.6091
   30DOPE   H2X 3775  -0.300   0.617  15.816 -3.3220 -0.4193 -2.4653
   30DOPE   H2Y 3776  -0.160   0.657  15.699  2.8495 -2.0982  0.1253
   30DOPE   C23 3777   0.115   0.169  15.548 -0.3372 -0.0727 -1.0709
   30DOPE   H3R 3778   0.021   0.155  15.604  1.0112 -1.5648  0.9416
   30DOPE   H3S 3779   0.178   0.084  15.582 -0.1701  0.0876 -0.9771
   30DOPE   C24 3780   0.072   0.156  15.401  0.4195 -0.2174  0.1968
   30DOPE   H4R 3781  -0.000   0.236  15.374  1.9515  0.5670 -1.8039
   30DOPE   H4S 3782   0.033   0.052  15.399  1.6514 -0.8779  3.6518
   30DOPE   C25 3783   0.182   0.157  15.299 -0.1411 -0.5502 -0.1624
   30DOPE   H5R 3784   0.258   0.078  15.320  3.3391  2.4030 -0.6322
   30DOPE   H5S 3785   0.235   0.254  15.295 -1.3176  0.1762  1.2628
   30DOPE   C26 3786   0.149   0.140  15.153 -0.1607 -0.3112  1.1635
   30DOPE   H6R 3787   0.244   0.156  15.098 -0.9159 -1.8012 -0.6717
   30DOPE   H6S 3788   0.082   0.216  15.107  1.6594 -0.1563 -1.4337
   30DOPE   C27 3789   0.108  -0.003  15.123 -0.4994 -0.7244 -0.1398
   30DOPE   H7R 3790   0.005  -0.028  15.156 -0.7288 -1.3893 -1.3184
   30DOPE   H7S 3791   0.176  -0.076  15.171  1.4523  0.8803 -0.3048
   30DOPE   C28 3792   0.107  -0.018  14.965 -0.1872  0.0881  0.1677
   30DOPE   H8R 3793   0.191   0.029  14.910 -0.0877  0.4277  0.6060
   30DOPE   H8S 3794   0.014   0.031  14.930  0.4391  0.5177 -0.9274
   30DOPE   C29 3795   0.113  -0.170  14.933 -0.0602  0.2621  0.6147
   30DOPE   H9R 3796   0.014  -0.218  14.931 -0.3737  0.9197  0.0416
   30DOPE  C210 3797   0.225  -0.244  14.920  0.3339  0.2351 -0.0286
   30DOPE  H10R 3798   0.224  -0.353  14.902 -1.4795 -0.0286  1.3701
   30DOPE  C211 3799   0.364  -0.192  14.939  0.7226 -0.7468 -0.3743
   30DOPE  H11R 3800   0.410  -0.239  15.029 -0.9426 -2.7040 -0.4429
   30DOPE  H11S 3801   0.364  -0.082  14.952  0.0322 -0.6651 -0.9796
   30DOPE  C212 3802   0.462  -0.212  14.820 -0.0841 -0.4981 -0.7821
   30DOPE  H12R 3803   0.421  -0.175  14.724 -0.5250 -0.8930 -0.7488
   30DOPE  H12S 3804   0.485  -0.320  14.807 -1.3714 -0.9532  0.4650
   30DOPE  C213 3805   0.587  -0.125  14.837 -0.3265 -0.2635  0.3859
   30DOPE  H13R 3806   0.563  -0.023  14.874  1.7919  0.1967  0.6174
   30DOPE  H13S 3807   0.643  -0.112  14.742  1.5385 -1.7533  1.2296
   30DOPE  C214 3808   0.700  -0.186  14.926 -0.1356 -0.6154 -0.6792
   30DOPE  H14R 3809   0.763  -0.262  14.874 -0.4398 -1.2147 -0.1761
   30DOPE  H14S 3810   0.658  -0.226  15.020 -1.0295  0.2184 -0.7205
   30DOPE  C215 3811   0.808  -0.088  14.976 -0.2673  0.5921 -0.1148
   30DOPE  H15R 3812   0.766   0.008  15.013 -1.3297  1.2745 -2.8703
   30DOPE  H15S 3813   0.879  -0.056  14.897 -0.6012  1.4271 -0.0752
   30DOPE  C216 3814   0.908  -0.139  15.079  0.0531 -0.3976 -0.0100
   30DOPE  H16R 3815   0.845  -0.147  15.170  1.6138  0.7440  1.2249
   30DOPE  H16S 3816   0.995  -0.074  15.101  0.6626 -0.8490 -0.9972
   30DOPE  C217 3817   0.968  -0.280  15.051  0.6770  0.0070 -0.3423
   30DOPE  H17R 3818   0.890  -0.357  15.062 -0.7290  1.4628  0.2200
   30DOPE  H17S 3819   1.036  -0.304  15.136  0.9975 -0.1665 -0.6439
   30DOPE  C218 3820   1.042  -0.299  14.914  0.2039 -0.0018 -0.3186
   30DOPE  H18R 3821   1.128  -0.229  14.911  1.2748 -1.2563 -3.3836
   30DOPE  H18S 3822   0.971  -0.274  14.831  1.2228  0.2583 -1.1275
   30DOPE  H18T 3823   1.082  -0.402  14.906 -0.6459 -0.5852  2.2036
   30DOPE   C33 3824  -0.317   0.537  15.618  0.2797 -0.2281 -0.5703
   30DOPE   H3X 3825  -0.375   0.624  15.581  2.4118  1.5455  0.0466
   30DOPE   H3Y 3826  -0.390   0.455  15.635 -0.2997  0.2729 -0.6113
   30DOPE   C34 3827  -0.229   0.516  15.496 -1.3669  0.3160  0.6726
   30DOPE   H4X 3828  -0.167   0.607  15.476 -1.4106 -0.1545 -1.9964
   30DOPE   H4Y 3829  -0.161   0.430  15.514 -0.9697  0.2956 -0.8186
   30DOPE   C35 3830  -0.314   0.464  15.378 -0.3730 -0.3889  0.2879
   30DOPE   H5X 3831  -0.364   0.559  15.351  0.1624  1.0719  3.8618
   30DOPE   H5Y 3832  -0.392   0.391  15.409 -0.2236 -0.5260  0.3471
   30DOPE   C36 3833  -0.225   0.436  15.255 -0.2454 -0.6626 -0.4127
   30DOPE   H6X 3834  -0.122   0.397  15.271  0.6284  2.3706  2.6150
   30DOPE   H6Y 3835  -0.216   0.538  15.211 -3.1123 -0.6657 -1.1964
   30DOPE   C37 3836  -0.308   0.366  15.146 -0.7519  0.5363  0.0965
   30DOPE   H7X 3837  -0.295   0.259  15.172  2.2712  0.9377  0.6988
   30DOPE   H7Y 3838  -0.417   0.385  15.146 -0.6591  1.1198  0.5038
   30DOPE   C38 3839  -0.253   0.379  14.997  1.1142  0.1889  0.1751
   30DOPE   H8X 3840  -0.144   0.357  15.001  1.6333  2.1300 -1.3217
   30DOPE   H8Y 3841  -0.262   0.487  14.970 -0.5446 -0.1325 -0.6964
   30DOPE   C39 3842  -0.325   0.292  14.895  0.7721  0.0664  0.0433
   30DOPE   H9X 3843  -0.291   0.188  14.887 -0.2806 -0.2489 -0.5590
   30DOPE  C310 3844  -0.425   0.338  14.813 -0.4160  0.0209  0.3564
   30DOPE  H10X 3845  -0.464   0.271  14.735  0.7423  2.8249 -2.8763
   30DOPE  C311 3846  -0.484   0.477  14.803 -0.2164 -0.4042 -0.3066
   30DOPE  H11X 3847  -0.589   0.494  14.838  0.4362  1.2614  1.0043
   30DOPE  H11Y 3848  -0.432   0.555  14.863 -0.5704  0.1392 -0.6927
   30DOPE  C312 3849  -0.467   0.523  14.659 -0.1485 -0.5126  0.3548
   30DOPE  H12X 3850  -0.535   0.610  14.648  1.0672  0.4318 -0.0087
   30DOPE  H12Y 3851  -0.515   0.456  14.584  1.0733  0.3496 -1.2728
   30DOPE  C313 3852  -0.315   0.550  14.641  0.1022 -0.4585  0.0514
   30DOPE  H13X 3853  -0.283   0.621  14.720 -0.3529  1.2783 -1.2748
   30DOPE  H13Y 3854  -0.246   0.464  14.652  0.3962 -0.7087 -2.9704
   30DOPE  C314 3855  -0.286   0.641  14.515  0.5463 -0.4117  0.4138
   30DOPE  H14X 3856  -0.189   0.692  14.535  0.4086  0.1993 -0.4554
   30DOPE  H14Y 3857  -0.370   0.712  14.500 -0.6815 -1.8714  0.1520
   30DOPE  C315 3858  -0.270   0.548  14.387  0.6522  0.8798  0.1811
   30DOPE  H15X 3859  -0.313   0.449  14.411  1.8456 -0.1999 -1.8715
   30DOPE  H15Y 3860  -0.161   0.531  14.383  0.3199 -1.9592  1.0987
   30DOPE  C316 3861  -0.337   0.619  14.275 -0.1932  0.0333  0.3410
   30DOPE  H16X 3862  -0.333   0.730  14.280 -0.0148 -0.0232  1.7097
   30DOPE  H16Y 3863  -0.446   0.596  14.271 -0.1660 -0.0606  0.1215
   30DOPE  C317 3864  -0.277   0.577  14.140 -0.4680  0.0953  0.3390
   30DOPE  H17X 3865  -0.306   0.631  14.047 -0.6353  2.0034  1.4564
   30DOPE  H17Y 3866  -0.168   0.588  14.158 -0.9142  1.0986  2.6722
   30DOPE  C318 3867  -0.292   0.430  14.112  0.5293 -0.1080  0.3977
   30DOPE  H18X 3868  -0.296   0.408  14.003 -1.4338  0.6586  0.2656
   30DOPE  H18Y 3869  -0.207   0.373  14.153  0.0325 -1.6768 -0.6181
   30DOPE  H18Z 3870  -0.382   0.387  14.162 -0.5447 -0.1453 -1.4248
   31DOPE     N 3871   3.439   4.891  12.504 -0.3444  0.7616 -0.0416
   31DOPE   HN1 3872   3.501   4.934  12.576  0.6111  0.7549 -0.8242
   31DOPE   HN2 3873   3.497   4.836  12.438  1.7415  1.2442  1.2855
   31DOPE   HN3 3874   3.382   4.963  12.453  0.6036  1.2240 -0.4825
   31DOPE   C12 3875   3.338   4.804  12.579  0.0258 -0.5050 -0.8727
   31DOPE  H12A 3876   3.280   4.748  12.503  1.2363 -1.1448 -1.3584
   31DOPE  H12B 3877   3.259   4.864  12.628  0.2129  0.7284 -2.0292
   31DOPE   C11 3878   3.407   4.711  12.688  0.7250 -0.2380  0.3303
   31DOPE  H11A 3879   3.326   4.647  12.731  0.1581  0.1531 -0.1414
   31DOPE  H11B 3880   3.441   4.777  12.771 -0.9423 -1.9316  2.4941
   31DOPE     P 3881   3.509   4.515  12.546  0.2616 -0.0744 -0.0014
   31DOPE   O13 3882   3.623   4.427  12.573 -0.3291  0.3352 -0.2406
   31DOPE   O14 3883   3.485   4.555  12.403  0.0137  0.0637 -0.2303
   31DOPE   O11 3884   3.382   4.441  12.600 -0.7070 -0.4830 -0.0929
   31DOPE   O12 3885   3.514   4.637  12.633 -0.7701  0.3145  0.0001
   31DOPE    C1 3886   3.387   4.316  12.667  0.1343 -0.0440  0.3739
   31DOPE    HA 3887   3.471   4.249  12.642 -0.0490 -1.1495  2.5133
   31DOPE    HB 3888   3.299   4.258  12.632  0.6498 -1.3508  1.2186
   31DOPE    C2 3889   3.362   4.337  12.820  0.2744 -0.0276  0.1739
   31DOPE    HS 3890   3.332   4.234  12.847 -0.2386 -0.0605 -0.5195
   31DOPE   O21 3891   3.247   4.421  12.832  0.0858 -0.1257 -0.1357
   31DOPE   C21 3892   3.127   4.375  12.821 -0.6340 -0.4627  0.7002
   31DOPE   O22 3893   3.099   4.254  12.817 -0.0984 -0.3329 -0.9077
   31DOPE   C22 3894   3.033   4.492  12.833  0.3439 -0.7061  0.3739
   31DOPE   H2R 3895   3.010   4.513  12.726  1.4290 -1.3539  0.0001
   31DOPE   H2S 3896   3.075   4.584  12.878  0.0550 -1.1634  1.6244
   31DOPE    C3 3897   3.488   4.383  12.900  0.2595  0.3063  0.1295
   31DOPE    HX 3898   3.514   4.482  12.858  1.8322 -0.0419  0.2460
   31DOPE    HY 3899   3.571   4.315  12.873  0.6571  0.4207  1.0108
   31DOPE   O31 3900   3.467   4.375  13.041  0.0806 -0.1115  0.1260
   31DOPE   C31 3901   3.504   4.485  13.100  0.3875  0.9756 -0.1387
   31DOPE   O32 3902   3.554   4.584  13.049 -0.3247  0.2685  0.1004
   31DOPE   C32 3903   3.460   4.465  13.246 -0.7678  0.0151  0.5496
   31DOPE   H2X 3904   3.349   4.466  13.249 -0.9325 -3.5265 -0.2120
   31DOPE   H2Y 3905   3.487   4.364  13.284 -0.9264  0.0531  0.7697
   31DOPE   C23 3906   2.909   4.458  12.905  0.7958 -0.0482 -0.4197
   31DOPE   H3R 3907   2.876   4.356  12.875 -1.5287  0.4202  0.3565
   31DOPE   H3S 3908   2.824   4.526  12.882 -0.2673 -0.6982  1.3894
   31DOPE   C24 3909   2.922   4.470  13.059  0.0271 -0.7527  0.0837
   31DOPE   H4R 3910   2.935   4.577  13.086 -0.3071 -0.6616 -0.1245
   31DOPE   H4S 3911   3.020   4.430  13.093  0.3139 -0.2968 -0.1857
   31DOPE   C25 3912   2.814   4.392  13.132  0.0579  0.3581  0.1366
   31DOPE   H5R 3913   2.828   4.289  13.093  1.7762  0.7273 -0.3261
   31DOPE   H5S 3914   2.715   4.438  13.117  0.3532  0.5318 -1.4418
   31DOPE   C26 3915   2.836   4.382  13.287 -0.5681  0.1764  0.2498
   31DOPE   H6R 3916   2.823   4.487  13.323  0.5953  0.3124  0.3115
   31DOPE   H6S 3917   2.941   4.353  13.311 -0.6360 -1.5963 -1.3967
   31DOPE   C27 3918   2.743   4.281  13.338 -0.2999  0.0658 -1.0041
   31DOPE   H7R 3919   2.777   4.178  13.316 -1.2754  0.1250 -3.0665
   31DOPE   H7S 3920   2.643   4.281  13.290 -0.1332 -0.6906 -1.3693
   31DOPE   C28 3921   2.720   4.291  13.496  0.6756 -0.1845  0.0546
   31DOPE   H8R 3922   2.652   4.206  13.517  0.6356  0.0076  0.7223
   31DOPE   H8S 3923   2.663   4.379  13.534  1.4424  0.5757 -0.5035
   31DOPE   C29 3924   2.851   4.286  13.572  0.0823  0.0962  0.3803
   31DOPE   H9R 3925   2.927   4.210  13.545  0.9048  0.7346  0.8298
   31DOPE  C210 3926   2.897   4.374  13.660 -0.4407  0.5135  0.0963
   31DOPE  H10R 3927   2.995   4.353  13.704 -0.1937 -1.4808 -1.2698
   31DOPE  C211 3928   2.833   4.506  13.702 -0.7017  0.0613 -0.1308
   31DOPE  H11R 3929   2.869   4.529  13.805 -0.7727 -3.3016  0.7541
   31DOPE  H11S 3930   2.722   4.496  13.700 -0.5515 -2.0326 -1.2898
   31DOPE  C212 3931   2.878   4.616  13.607 -0.6950 -0.0902 -0.0527
   31DOPE  H12R 3932   2.836   4.714  13.639 -0.0965  0.2239 -0.2112
   31DOPE  H12S 3933   2.837   4.604  13.505  1.2033 -1.8864 -0.6748
   31DOPE  C213 3934   3.029   4.635  13.602 -0.4028 -0.1461 -0.4414
   31DOPE  H13R 3935   3.084   4.547  13.563 -1.7854 -0.9017 -0.7573
   31DOPE  H13S 3936   3.074   4.643  13.703  1.9263  2.3033 -1.5369
   31DOPE  C214 3937   3.069   4.759  13.513 -0.3609  0.0711  0.0093
   31DOPE  H14R 3938   3.165   4.790  13.558  0.2212 -2.4378  0.6189
   31DOPE  H14S 3939   3.000   4.844  13.534  1.4681  2.5097 -2.9540
   31DOPE  C215 3940   3.081   4.716  13.364  0.5152 -0.0187 -0.1384
   31DOPE  H15R 3941   2.986   4.677  13.320  0.7720  4.4123 -5.6139
   31DOPE  H15S 3942   3.157   4.635  13.357  1.0208  0.4282  0.1131
   31DOPE  C216 3943   3.132   4.834  13.276  0.1778  0.6437 -0.6543
   31DOPE  H16R 3944   3.227   4.864  13.324 -0.3753  1.3749 -0.0029
   31DOPE  H16S 3945   3.057   4.915  13.291  0.0706  0.1566  1.8150
   31DOPE  C217 3946   3.143   4.813  13.126 -0.2859  0.4208 -0.4636
   31DOPE  H17R 3947   3.168   4.911  13.079 -0.9893  1.7847  1.8773
   31DOPE  H17S 3948   3.044   4.782  13.086 -0.3864  1.4877 -1.0805
   31DOPE  C218 3949   3.244   4.708  13.084 -0.0407  0.5443  0.2603
   31DOPE  H18R 3950   3.268   4.701  12.976  2.0477  0.2469  0.7139
   31DOPE  H18S 3951   3.203   4.606  13.105 -0.6605  0.7478  0.0571
   31DOPE  H18T 3952   3.335   4.722  13.145  0.6262  2.7296 -1.1572
   31DOPE   C33 3953   3.524   4.566  13.345 -0.2423 -0.0969  0.9712
   31DOPE   H3X 3954   3.504   4.672  13.319  0.8852 -0.2042 -0.4690
   31DOPE   H3Y 3955   3.635   4.555  13.348 -0.2390 -0.2533  0.3647
   31DOPE   C34 3956   3.464   4.547  13.488  0.0712  0.8178  0.3365
   31DOPE   H4X 3957   3.368   4.492  13.482  0.0698  0.8045  0.4733
   31DOPE   H4Y 3958   3.536   4.483  13.544 -1.1588  0.4292  1.5432
   31DOPE   C35 3959   3.456   4.672  13.565  0.1421 -0.1384 -0.3621
   31DOPE   H5X 3960   3.380   4.738  13.519 -1.3749 -0.1330  1.9766
   31DOPE   H5Y 3961   3.555   4.722  13.561 -0.2104  0.7485  1.1038
   31DOPE   C36 3962   3.414   4.659  13.711  0.0708 -0.3685 -0.0591
   31DOPE   H6X 3963   3.495   4.614  13.773 -2.5459 -1.8698  2.5290
   31DOPE   H6Y 3964   3.333   4.583  13.708 -0.1831 -0.1573  1.1026
   31DOPE   C37 3965   3.379   4.790  13.778  0.1838 -0.5349 -0.3275
   31DOPE   H7X 3966   3.455   4.870  13.789  2.4979 -2.7585  1.0523
   31DOPE   H7Y 3967   3.293   4.842  13.730  0.2022  1.5259  1.6692
   31DOPE   C38 3968   3.330   4.765  13.928 -0.0651 -0.2052 -0.0266
   31DOPE   H8X 3969   3.327   4.870  13.966  2.7591 -0.7405  2.0137
   31DOPE   H8Y 3970   3.420   4.732  13.984  0.2409  1.6744  0.6797
   31DOPE   C39 3971   3.206   4.681  13.960 -0.1329 -0.1476 -0.9253
   31DOPE   H9X 3972   3.203   4.584  13.908 -0.1138 -0.0978 -1.0201
   31DOPE  C310 3973   3.097   4.731  14.024  0.4696 -0.1484  0.4075
   31DOPE  H10X 3974   3.000   4.680  14.033  0.0468  0.8405  1.6861
   31DOPE  C311 3975   3.084   4.870  14.085 -0.8142  0.7156  0.6675
   31DOPE  H11X 3976   3.153   4.875  14.172  0.3065 -0.3245 -0.1255
   31DOPE  H11Y 3977   3.101   4.947  14.007 -1.9363  0.1419 -0.1763
   31DOPE  C312 3978   2.943   4.889  14.134 -0.1508  0.4071  0.5084
   31DOPE  H12X 3979   2.917   4.797  14.191  0.5347  0.1737  0.4591
   31DOPE  H12Y 3980   2.879   4.897  14.044  0.8925  1.2387 -0.1872
   31DOPE  C313 3981   2.934   5.013  14.223 -0.3722 -0.3869  1.2816
   31DOPE  H13X 3982   2.995   5.023  14.315 -0.8469 -0.1574  1.5774
   31DOPE  H13Y 3983   2.972   5.099  14.164 -0.4080 -0.1140  1.6494
   31DOPE  C314 3984   2.794   5.056  14.269 -0.1155  0.5202 -0.2190
   31DOPE  H14X 3985   2.713   5.052  14.194 -2.4883 -2.3649  2.2009
   31DOPE  H14Y 3986   2.805   5.161  14.303  2.7632  1.0916 -2.5179
   31DOPE  C315 3987   2.737   4.978  14.392 -0.6648  0.1817  0.2307
   31DOPE  H15X 3988   2.810   4.993  14.475 -1.3103 -1.5133  1.1591
   31DOPE  H15Y 3989   2.745   4.869  14.370 -3.2543 -0.1380  0.5822
   31DOPE  C316 3990   2.604   5.038  14.434 -0.0688  0.1130  0.6057
   31DOPE  H16X 3991   2.521   4.999  14.371 -0.7986  0.0891  1.5704
   31DOPE  H16Y 3992   2.610   5.147  14.414  0.6034 -0.3804 -2.5259
   31DOPE  C317 3993   2.568   4.990  14.571  0.1221 -0.6388  0.4387
   31DOPE  H17X 3994   2.459   4.998  14.589 -0.0233  0.1162 -0.6823
   31DOPE  H17Y 3995   2.600   4.887  14.598  1.4587 -0.2492  0.4407
   31DOPE  C318 3996   2.636   5.082  14.672  0.6109 -0.0391  0.0239
   31DOPE  H18X 3997   2.629   5.186  14.633 -2.4046  0.0229  0.5128
   31DOPE  H18Y 3998   2.603   5.075  14.778 -0.4622 -0.1779 -0.3190
   31DOPE  H18Z 3999   2.746   5.064  14.672  0.8354  1.1792 -0.6749
   32DOPE     N 4000   5.176   3.747  12.792  0.2550 -0.0426  0.1721
   32DOPE   HN1 4001   5.167   3.698  12.701 -1.9938  0.7926 -0.1175
   32DOPE   HN2 4002   5.259   3.806  12.768  0.3416 -0.2270  0.0181
   32DOPE   HN3 4003   5.199   3.676  12.864 -0.0413 -1.7786 -1.3550
   32DOPE   C12 4004   5.049   3.830  12.822  0.4603  0.0926 -0.4732
   32DOPE  H12A 4005   5.041   3.903  12.738 -2.5235  0.3382 -0.0876
   32DOPE  H12B 4006   5.074   3.892  12.911 -1.6091 -0.7886  0.7979
   32DOPE   C11 4007   4.914   3.762  12.825  0.2060  0.8690 -0.6263
   32DOPE  H11A 4008   4.827   3.830  12.833 -2.6979 -2.3053 -2.6017
   32DOPE  H11B 4009   4.918   3.706  12.921  0.1437  3.0150  0.6937
   32DOPE     P 4010   4.754   3.618  12.672 -0.2751 -0.1427 -0.1609
   32DOPE   O13 4011   4.769   3.502  12.583  0.1802  0.7383  0.6043
   32DOPE   O14 4012   4.671   3.736  12.637  0.6409 -0.2136  0.2805
   32DOPE   O11 4013   4.703   3.564  12.813  0.5616  0.5677  0.0978
   32DOPE   O12 4014   4.892   3.680  12.708 -0.3745  0.0669 -0.6668
   32DOPE    C1 4015   4.785   3.460  12.875 -0.0310 -0.0093  0.0888
   32DOPE    HA 4016   4.769   3.462  12.984  0.5007 -0.3392  0.1763
   32DOPE    HB 4017   4.895   3.461  12.863  0.2822  1.9553  2.4329
   32DOPE    C2 4018   4.726   3.313  12.833 -0.0797 -0.1053  0.0338
   32DOPE    HS 4019   4.750   3.308  12.725  2.6772  0.7616  0.5374
   32DOPE   O21 4020   4.584   3.310  12.844 -0.7513  0.4969 -0.2277
   32DOPE   C21 4021   4.535   3.208  12.776 -0.8857  0.8018 -0.1672
   32DOPE   O22 4022   4.596   3.125  12.709 -0.2767 -0.1644 -0.2601
   32DOPE   C22 4023   4.392   3.186  12.828 -0.2675 -0.6279  0.4179
   32DOPE   H2R 4024   4.332   3.154  12.740  0.2835 -2.2296  0.5971
   32DOPE   H2S 4025   4.346   3.282  12.859  3.0966  1.5894 -0.9664
   32DOPE    C3 4026   4.810   3.209  12.909 -0.0628  0.7858 -0.1866
   32DOPE    HX 4027   4.916   3.220  12.879 -0.0595  1.3708  0.0272
   32DOPE    HY 4028   4.779   3.105  12.883  0.8026  0.6888 -0.8808
   32DOPE   O31 4029   4.785   3.229  13.049 -0.5061 -0.4464  0.0243
   32DOPE   C31 4030   4.886   3.200  13.127  0.7439 -0.6355 -0.1488
   32DOPE   O32 4031   4.993   3.156  13.095 -0.1312  0.1897 -0.6353
   32DOPE   C32 4032   4.858   3.253  13.264 -0.5694  0.2166 -0.4480
   32DOPE   H2X 4033   4.880   3.362  13.255 -0.3323  0.3003  0.9742
   32DOPE   H2Y 4034   4.750   3.237  13.288 -0.5809  0.2485 -0.4774
   32DOPE   C23 4035   4.380   3.074  12.933 -0.4447  0.5733 -0.2761
   32DOPE   H3R 4036   4.430   2.978  12.907  0.2920  1.6868 -3.3777
   32DOPE   H3S 4037   4.272   3.052  12.929  0.2445 -3.2713 -2.9495
   32DOPE   C24 4038   4.399   3.119  13.078  0.0130  0.3196 -0.5745
   32DOPE   H4R 4039   4.321   3.194  13.105 -0.8238 -0.7043 -0.1111
   32DOPE   H4S 4040   4.499   3.166  13.083 -0.5151  1.6337 -1.6210
   32DOPE   C25 4041   4.396   3.001  13.180  0.3340 -0.1433  0.4000
   32DOPE   H5R 4042   4.462   2.916  13.153 -0.8504 -0.4648 -1.7077
   32DOPE   H5S 4043   4.295   2.956  13.173 -0.5358  1.6162  1.0032
   32DOPE   C26 4044   4.428   3.055  13.316  0.1033 -0.3828 -0.1729
   32DOPE   H6R 4045   4.364   3.140  13.345  2.0064  0.6302  1.3019
   32DOPE   H6S 4046   4.534   3.090  13.315 -0.2791  0.8648  0.8369
   32DOPE   C27 4047   4.414   2.950  13.426 -0.3805 -0.4686 -0.0685
   32DOPE   H7R 4048   4.449   2.864  13.366  0.1143 -0.1869 -0.1877
   32DOPE   H7S 4049   4.309   2.931  13.457  0.3049 -2.8306  0.9713
   32DOPE   C28 4050   4.498   2.976  13.547  0.1135  0.1813  0.6688
   32DOPE   H8R 4051   4.586   3.031  13.509 -0.8499  0.0407 -1.9551
   32DOPE   H8S 4052   4.522   2.881  13.601 -1.0233 -1.4699 -1.5704
   32DOPE   C29 4053   4.427   3.075  13.639  0.6371 -0.4829  0.0242
   32DOPE   H9R 4054   4.405   3.166  13.581  3.0354 -0.2182 -0.6082
   32DOPE  C210 4055   4.395   3.059  13.769 -0.1579 -0.1937  0.2978
   32DOPE  H10R 4056   4.331   3.128  13.826  0.7795  1.6372 -0.7607
   32DOPE  C211 4057   4.413   2.923  13.842 -0.3285  0.2374 -0.0790
   32DOPE  H11R 4058   4.491   2.860  13.794  0.2817  0.8311  0.1287
   32DOPE  H11S 4059   4.325   2.854  13.843 -0.4442  0.3873  0.0353
   32DOPE  C212 4060   4.464   2.944  13.985  0.3244 -0.2814 -0.0000
   32DOPE  H12R 4061   4.535   3.030  13.989 -1.7377  1.4551  2.7227
   32DOPE  H12S 4062   4.503   2.844  14.014 -2.0911 -0.7833  1.8227
   32DOPE  C213 4063   4.348   2.965  14.088 -0.2326 -0.0363 -0.0575
   32DOPE  H13R 4064   4.276   2.880  14.085 -1.1385  0.7361 -0.6486
   32DOPE  H13S 4065   4.278   3.044  14.053  0.2703  0.1221 -0.7200
   32DOPE  C214 4066   4.409   2.994  14.227 -0.5589 -0.3035  0.1049
   32DOPE  H14R 4067   4.489   3.070  14.224  0.1258 -0.8975  1.9477
   32DOPE  H14S 4068   4.445   2.894  14.257  1.8791  0.5311  0.1261
   32DOPE  C215 4069   4.287   3.040  14.315  0.0359  0.4549  0.5204
   32DOPE  H15R 4070   4.291   3.011  14.422  1.3840 -1.0907  0.0990
   32DOPE  H15S 4071   4.193   2.998  14.272 -1.0793  1.6300  1.7454
   32DOPE  C216 4072   4.269   3.194  14.317  0.1199 -0.6204 -0.0043
   32DOPE  H16R 4073   4.294   3.234  14.216  2.1612 -1.2301  0.2172
   32DOPE  H16S 4074   4.343   3.232  14.390  0.5656 -0.7318 -0.3909
   32DOPE  C217 4075   4.124   3.239  14.343 -0.3309 -0.6758  0.9694
   32DOPE  H17R 4076   4.091   3.198  14.441 -1.1625 -0.9374  0.5855
   32DOPE  H17S 4077   4.049   3.211  14.266 -1.0575  3.1949  0.0381
   32DOPE  C218 4078   4.123   3.392  14.359 -0.1212 -0.2044 -0.0087
   32DOPE  H18R 4079   4.185   3.423  14.446  1.7561  0.3403 -1.4755
   32DOPE  H18S 4080   4.017   3.424  14.368 -0.6909 -1.3774 -1.8739
   32DOPE  H18T 4081   4.159   3.437  14.264 -1.6322  2.7800  0.7130
   32DOPE   C33 4082   4.960   3.189  13.368  0.1203  0.0375  0.3148
   32DOPE   H3X 4083   5.059   3.238  13.356  0.9132 -1.2821  1.1943
   32DOPE   H3Y 4084   4.958   3.079  13.357  0.9384  0.2181 -2.7432
   32DOPE   C34 4085   4.918   3.230  13.508  0.0794  0.5534 -0.0640
   32DOPE   H4X 4086   4.894   3.339  13.511 -0.7088  0.4075 -0.7306
   32DOPE   H4Y 4087   4.824   3.174  13.530 -0.0847 -0.0442 -2.0940
   32DOPE   C35 4088   5.021   3.217  13.621  0.5499  0.1894  0.3693
   32DOPE   H5X 4089   5.116   3.266  13.589  0.3223  1.6222  1.7511
   32DOPE   H5Y 4090   5.047   3.112  13.647  2.2336  0.1669 -1.1804
   32DOPE   C36 4091   4.979   3.294  13.746  0.8542 -0.2500 -0.2327
   32DOPE   H6X 4092   4.889   3.254  13.797  2.2158 -1.3328  1.4248
   32DOPE   H6Y 4093   4.938   3.390  13.708  0.8682 -0.8630 -1.8709
   32DOPE   C37 4094   5.093   3.320  13.852 -0.5354  0.5627  0.1305
   32DOPE   H7X 4095   5.180   3.362  13.797 -0.3126 -0.7809 -0.5914
   32DOPE   H7Y 4096   5.062   3.397  13.927 -0.5242  2.4256 -1.6783
   32DOPE   C38 4097   5.140   3.191  13.925  0.3385 -0.0358 -0.4625
   32DOPE   H8X 4098   5.160   3.109  13.853  0.8984  0.9507 -1.4618
   32DOPE   H8Y 4099   5.059   3.155  13.993 -0.2695  0.7153 -0.7666
   32DOPE   C39 4100   5.268   3.219  14.000 -0.8148 -0.6796 -0.5473
   32DOPE   H9X 4101   5.355   3.233  13.934 -0.5528  0.9492  0.1105
   32DOPE  C310 4102   5.278   3.235  14.137 -0.4108  0.4563 -0.0930
   32DOPE  H10X 4103   5.370   3.283  14.173 -0.7692  0.6813  0.5394
   32DOPE  C311 4104   5.177   3.214  14.250  0.4397 -0.4868  0.1642
   32DOPE  H11X 4105   5.084   3.177  14.201  0.5711  0.7649 -1.0834
   32DOPE  H11Y 4106   5.217   3.132  14.315  0.7497  1.0650  2.0202
   32DOPE  C312 4107   5.150   3.350  14.322  0.2582  0.4197  0.1162
   32DOPE  H12X 4108   5.073   3.327  14.399 -0.5952  0.0915 -0.8165
   32DOPE  H12Y 4109   5.110   3.433  14.260 -1.3786 -0.1882  0.3177
   32DOPE  C313 4110   5.266   3.416  14.394  0.0930 -0.6162  0.0944
   32DOPE  H13X 4111   5.308   3.341  14.464 -0.1134 -0.4095  0.4424
   32DOPE  H13Y 4112   5.350   3.451  14.329  1.1702 -2.1497  0.6012
   32DOPE  C314 4113   5.236   3.538  14.475  0.5312 -0.7603 -0.7571
   32DOPE  H14X 4114   5.304   3.551  14.561 -1.2213 -1.8346  0.8863
   32DOPE  H14Y 4115   5.134   3.523  14.519 -0.2403 -1.8244 -2.7787
   32DOPE  C315 4116   5.229   3.667  14.393 -0.7747 -0.0314 -0.1158
   32DOPE  H15X 4117   5.204   3.644  14.287 -2.0387  0.4780  0.0622
   32DOPE  H15Y 4118   5.330   3.710  14.411 -1.7280  1.7741  1.2506
   32DOPE  C316 4119   5.119   3.771  14.449 -0.0184 -0.2984 -0.0734
   32DOPE  H16X 4120   5.146   3.864  14.394 -0.4991  0.2673  0.6313
   32DOPE  H16Y 4121   5.132   3.782  14.559 -1.8284  0.4359  0.1042
   32DOPE  C317 4122   4.977   3.739  14.407  0.3827  0.2678  0.5303
   32DOPE  H17X 4123   4.988   3.742  14.296  0.5226  0.0081  0.5347
   32DOPE  H17Y 4124   4.946   3.634  14.428 -1.7439  0.4057 -1.5836
   32DOPE  C318 4125   4.865   3.827  14.455  0.3529  0.2970 -0.8471
   32DOPE  H18X 4126   4.899   3.932  14.470 -0.5166  0.3791  0.6566
   32DOPE  H18Y 4127   4.777   3.815  14.388  0.1175 -0.6360 -0.3867
   32DOPE  H18Z 4128   4.822   3.798  14.552  1.2759 -0.0691 -0.5308
   33DOPE     N 4129   3.392   3.137  12.724 -0.0281 -1.1446  0.4408
   33DOPE   HN1 4130   3.413   3.139  12.622 -0.9138 -0.8168  0.2563
   33DOPE   HN2 4131   3.289   3.124  12.719  0.0538 -1.4183 -0.8980
   33DOPE   HN3 4132   3.428   3.229  12.754 -0.0634 -0.2916 -1.9666
   33DOPE   C12 4133   3.461   3.031  12.790  0.6428 -0.3520  0.3955
   33DOPE  H12A 4134   3.404   2.936  12.784  0.2113 -0.0203 -0.9393
   33DOPE  H12B 4135   3.472   3.047  12.900 -0.3309  0.1358  0.4334
   33DOPE   C11 4136   3.605   3.002  12.734  0.5541  0.1340 -0.0099
   33DOPE  H11A 4137   3.634   2.906  12.782 -2.0173 -0.3478  0.6823
   33DOPE  H11B 4138   3.667   3.088  12.765 -1.5671  2.0414 -0.8038
   33DOPE     P 4139   3.615   2.872  12.503 -0.0164 -0.0711 -0.2568
   33DOPE   O13 4140   3.637   2.914  12.363 -0.0807 -0.0051  0.6188
   33DOPE   O14 4141   3.499   2.786  12.525  0.5432 -0.2292 -1.0661
   33DOPE   O11 4142   3.738   2.797  12.561  0.2839 -0.0166  0.4781
   33DOPE   O12 4143   3.598   3.000  12.595 -0.5849 -0.2018  0.2469
   33DOPE    C1 4144   3.868   2.857  12.577 -0.7083 -0.5711 -0.4716
   33DOPE    HA 4145   3.860   2.960  12.619 -0.9180 -1.1704  1.0445
   33DOPE    HB 4146   3.918   2.872  12.479 -0.6766 -0.2884 -0.4128
   33DOPE    C2 4147   3.955   2.780  12.683 -0.0772 -0.3764  0.8308
   33DOPE    HS 4148   3.960   2.676  12.645 -1.7288 -1.3978  3.1316
   33DOPE   O21 4149   3.885   2.778  12.803 -0.4656 -0.2066  0.2500
   33DOPE   C21 4150   3.820   2.671  12.837  0.5206  0.1801 -0.1855
   33DOPE   O22 4151   3.814   2.565  12.779  0.2075  0.0283  0.4288
   33DOPE   C22 4152   3.749   2.713  12.972  0.5608 -0.8102 -0.1456
   33DOPE   H2R 4153   3.667   2.786  12.961  0.1013 -0.7511  2.9343
   33DOPE   H2S 4154   3.832   2.765  13.025  0.5207  1.0232 -1.7469
   33DOPE    C3 4155   4.093   2.841  12.700 -0.0799  0.0529  0.1600
   33DOPE    HX 4156   4.083   2.946  12.736  1.3278 -0.0591  0.9575
   33DOPE    HY 4157   4.145   2.839  12.602  2.4382 -0.7795  1.4264
   33DOPE   O31 4158   4.169   2.752  12.782 -0.4419 -0.0439 -0.1386
   33DOPE   C31 4159   4.180   2.771  12.907 -0.3109 -0.0232  0.2031
   33DOPE   O32 4160   4.120   2.848  12.979  0.2192 -0.0822 -0.2723
   33DOPE   C32 4161   4.286   2.665  12.948 -0.2440  0.4180  0.0894
   33DOPE   H2X 4162   4.278   2.572  12.888 -2.2696  0.3087  0.4866
   33DOPE   H2Y 4163   4.386   2.706  12.922  0.3111 -1.1498 -0.3688
   33DOPE   C23 4164   3.691   2.599  13.061  0.1068  0.4762 -0.0614
   33DOPE   H3R 4165   3.766   2.538  13.114 -1.1145  0.0837  1.2892
   33DOPE   H3S 4166   3.644   2.525  12.992 -0.0103 -1.2038  1.7500
   33DOPE   C24 4167   3.582   2.649  13.158 -0.5370 -0.5565 -0.2942
   33DOPE   H4R 4168   3.533   2.569  13.219 -1.6325  0.9770  0.9258
   33DOPE   H4S 4169   3.493   2.690  13.107 -1.0379  0.1295  1.1001
   33DOPE   C25 4170   3.632   2.758  13.256 -0.2597 -0.6084  0.2884
   33DOPE   H5R 4171   3.690   2.846  13.219 -1.3004  0.5692  1.3402
   33DOPE   H5S 4172   3.701   2.711  13.328 -0.4176  2.0180  2.3106
   33DOPE   C26 4173   3.529   2.808  13.355  1.1992 -0.0087  0.3157
   33DOPE   H6R 4174   3.483   2.716  13.396  0.0788 -0.7522 -2.3516
   33DOPE   H6S 4175   3.449   2.855  13.294  0.5231 -0.0157  1.1826
   33DOPE   C27 4176   3.564   2.902  13.469  0.5462  0.2911 -0.4609
   33DOPE   H7R 4177   3.597   3.001  13.432 -2.6101  1.1309 -1.2611
   33DOPE   H7S 4178   3.643   2.848  13.527 -0.5108  0.8811  1.6475
   33DOPE   C28 4179   3.450   2.922  13.567  0.3380  0.0977 -0.4345
   33DOPE   H8R 4180   3.399   2.825  13.583 -0.4919  0.7418  1.0663
   33DOPE   H8S 4181   3.369   2.978  13.516 -0.4772 -0.2329  0.4767
   33DOPE   C29 4182   3.482   2.993  13.697  0.4481  0.5797  0.0538
   33DOPE   H9R 4183   3.569   2.961  13.756  1.0579  1.3203 -0.4210
   33DOPE  C210 4184   3.409   3.097  13.744 -0.4332  0.4536 -0.3813
   33DOPE  H10R 4185   3.438   3.138  13.842 -1.9511 -1.0006  0.7400
   33DOPE  C211 4186   3.288   3.168  13.693  0.1715 -0.4751  0.3795
   33DOPE  H11R 4187   3.222   3.106  13.628  0.3464 -0.7428  0.4570
   33DOPE  H11S 4188   3.313   3.265  13.644 -0.5913  1.2178  3.1001
   33DOPE  C212 4189   3.190   3.188  13.814  0.1612 -0.6331  0.5097
   33DOPE  H12R 4190   3.245   3.247  13.890  0.3845 -1.8400  1.3246
   33DOPE  H12S 4191   3.168   3.086  13.851  0.4548 -1.0052 -0.3014
   33DOPE  C213 4192   3.058   3.254  13.778 -0.2551 -0.1739  0.3522
   33DOPE  H13R 4193   3.000   3.198  13.702  1.8640 -2.7871  0.5284
   33DOPE  H13S 4194   3.091   3.347  13.725 -1.7391  1.1709  1.6622
   33DOPE  C214 4195   2.956   3.281  13.892  0.0999 -0.1739  0.0277
   33DOPE  H14R 4196   3.011   3.345  13.964  1.3226 -0.5469 -0.5516
   33DOPE  H14S 4197   2.927   3.184  13.937  1.0752  0.7243  2.7540
   33DOPE  C215 4198   2.828   3.349  13.845  0.0646  0.6650  0.3849
   33DOPE  H15R 4199   2.858   3.437  13.785 -2.6096  0.8262 -0.8734
   33DOPE  H15S 4200   2.770   3.391  13.930  0.4727  1.6772  0.1711
   33DOPE  C216 4201   2.726   3.277  13.754  0.1597  0.0681  0.3681
   33DOPE  H16R 4202   2.665   3.210  13.820  0.9299  0.3113  1.3585
   33DOPE  H16S 4203   2.771   3.213  13.675  2.4518  1.5005  0.4246
   33DOPE  C217 4204   2.634   3.375  13.689 -0.1696  0.3444 -0.2382
   33DOPE  H17R 4205   2.590   3.303  13.616  0.2655 -0.5262  0.3295
   33DOPE  H17S 4206   2.690   3.442  13.621 -0.4324  2.4715  1.5575
   33DOPE  C218 4207   2.538   3.454  13.781  0.4043 -0.4460  0.7786
   33DOPE  H18R 4208   2.484   3.397  13.858  0.2849 -1.3003  0.0793
   33DOPE  H18S 4209   2.463   3.501  13.714  0.4134 -0.8476  0.4777
   33DOPE  H18T 4210   2.602   3.534  13.824  1.8527 -0.3790 -1.2880
   33DOPE   C33 4211   4.283   2.634  13.104 -0.0889 -0.2914  0.1966
   33DOPE   H3X 4212   4.307   2.731  13.152 -0.6566 -0.1814  0.2615
   33DOPE   H3Y 4213   4.364   2.560  13.125  0.0328  0.0053  0.7955
   33DOPE   C34 4214   4.153   2.588  13.160  0.3296  0.4528 -0.0727
   33DOPE   H4X 4215   4.075   2.640  13.101 -0.0428 -0.1879 -0.1491
   33DOPE   H4Y 4216   4.144   2.480  13.138 -1.6357  0.5781 -0.0410
   33DOPE   C35 4217   4.126   2.607  13.313 -0.6287 -0.0315 -0.8559
   33DOPE   H5X 4218   4.110   2.716  13.325  2.2782  0.5896 -1.8425
   33DOPE   H5Y 4219   4.220   2.591  13.369 -1.0647  1.6155  0.4391
   33DOPE   C36 4220   4.005   2.529  13.358  0.3649 -0.5459  0.1583
   33DOPE   H6X 4221   4.006   2.420  13.334  2.3301 -0.2807 -1.1660
   33DOPE   H6Y 4222   3.918   2.567  13.299  1.7202  0.8574 -1.0108
   33DOPE   C37 4223   3.970   2.533  13.512  0.2956  0.2931  0.0937
   33DOPE   H7X 4224   4.063   2.517  13.569 -0.2182 -0.7240  0.6821
   33DOPE   H7Y 4225   3.937   2.639  13.523  1.6631  0.6266  1.2521
   33DOPE   C38 4226   3.864   2.429  13.558  0.3846 -0.0933 -0.5390
   33DOPE   H8X 4227   3.893   2.325  13.534 -0.2551 -0.6199  0.8544
   33DOPE   H8Y 4228   3.772   2.457  13.502 -0.4174  0.4400  0.9737
   33DOPE   C39 4229   3.848   2.440  13.710  0.2710  0.4473 -0.0688
   33DOPE   H9X 4230   3.938   2.473  13.762  0.7256 -1.6166  0.5518
   33DOPE  C310 4231   3.741   2.410  13.776  0.2297 -0.0284 -0.2859
   33DOPE  H10X 4232   3.740   2.436  13.883 -2.9738  1.5502 -0.5532
   33DOPE  C311 4233   3.607   2.358  13.729 -0.6145  0.3823  0.6602
   33DOPE  H11X 4234   3.595   2.373  13.620 -2.2396  3.5372  1.1375
   33DOPE  H11Y 4235   3.601   2.249  13.750 -0.5977  0.3814  0.6614
   33DOPE  C312 4236   3.479   2.417  13.790  0.6021 -0.8521 -0.3707
   33DOPE  H12X 4237   3.470   2.522  13.754 -0.9608 -0.8284  0.0421
   33DOPE  H12Y 4238   3.497   2.401  13.898  2.5540 -0.0720 -0.5422
   33DOPE  C313 4239   3.348   2.349  13.743 -0.3154  0.6852 -0.0719
   33DOPE  H13X 4240   3.359   2.328  13.634  1.8687  1.8396 -0.1434
   33DOPE  H13Y 4241   3.331   2.249  13.787  1.7020 -0.4025 -1.5730
   33DOPE  C314 4242   3.235   2.448  13.766 -0.1170  0.0211 -0.1985
   33DOPE  H14X 4243   3.140   2.413  13.720  0.8997 -0.9061 -1.6930
   33DOPE  H14Y 4244   3.265   2.541  13.714  1.0942 -1.5064 -2.4159
   33DOPE  C315 4245   3.205   2.479  13.913 -1.2103 -0.0953  0.1704
   33DOPE  H15X 4246   3.298   2.494  13.973 -0.9428  0.4853 -0.3776
   33DOPE  H15Y 4247   3.151   2.393  13.957 -1.7698  0.2454  0.1537
   33DOPE  C316 4248   3.132   2.613  13.935 -1.0527  1.1345 -0.1663
   33DOPE  H16X 4249   3.033   2.589  13.892  0.3128 -1.7933 -1.9403
   33DOPE  H16Y 4250   3.184   2.688  13.871 -0.0698  1.9108  1.4816
   33DOPE  C317 4251   3.131   2.647  14.084  0.3311  0.2886 -0.0102
   33DOPE  H17X 4252   3.134   2.555  14.147 -2.2851  0.5934  0.6620
   33DOPE  H17Y 4253   3.228   2.692  14.112  1.9659 -3.2935  0.7407
   33DOPE  C318 4254   3.009   2.725  14.115 -0.8148 -0.3903  0.2583
   33DOPE  H18X 4255   2.997   2.812  14.047  1.8064  0.4633  0.7489
   33DOPE  H18Y 4256   2.916   2.672  14.086 -0.9146  0.4018 -0.9462
   33DOPE  H18Z 4257   2.995   2.755  14.221 -2.0370 -0.0717  0.0230
   34DOPE     N 4258   4.128   5.132  12.707 -0.2870 -0.9342 -0.7747
   34DOPE   HN1 4259   4.212   5.087  12.666  1.4286  0.4247  0.9906
   34DOPE   HN2 4260   4.163   5.193  12.784 -0.0052 -2.9933  0.8236
   34DOPE   HN3 4261   4.068   5.061  12.752  1.5710 -1.5855  0.8101
   34DOPE   C12 4262   4.043   5.209  12.618 -0.0512 -0.2252  0.1813
   34DOPE  H12A 4263   4.030   5.151  12.524  1.2501  2.0204 -1.4891
   34DOPE  H12B 4264   4.102   5.299  12.591  1.0352 -0.7277  0.8463
   34DOPE   C11 4265   3.902   5.248  12.670 -0.6646  0.3365  0.0135
   34DOPE  H11A 4266   3.853   5.322  12.604  0.3380 -0.9216 -2.2896
   34DOPE  H11B 4267   3.929   5.297  12.765 -0.4114 -2.2620  1.3786
   34DOPE     P 4268   3.696   5.113  12.610  0.4841 -0.2270  0.2471
   34DOPE   O13 4269   3.608   5.015  12.676  0.3628  0.3345 -0.4417
   34DOPE   O14 4270   3.743   5.086  12.470 -0.5342 -0.2457  0.1014
   34DOPE   O11 4271   3.628   5.259  12.620  0.4600  0.5706  0.2432
   34DOPE   O12 4272   3.818   5.138  12.698 -0.1139 -0.0793  0.1171
   34DOPE    C1 4273   3.530   5.298  12.718 -0.1225 -0.2060  0.5427
   34DOPE    HA 4274   3.470   5.209  12.747 -0.1095 -0.1977  0.5946
   34DOPE    HB 4275   3.461   5.367  12.665 -1.5188 -0.0553  2.4583
   34DOPE    C2 4276   3.583   5.363  12.849 -0.1567  1.1588  0.1977
   34DOPE    HS 4277   3.677   5.419  12.828  0.6238  0.8509  2.5115
   34DOPE   O21 4278   3.604   5.255  12.948 -0.1665  0.4964  0.3554
   34DOPE   C21 4279   3.718   5.258  13.007  0.0840 -0.1751 -0.0341
   34DOPE   O22 4280   3.811   5.335  12.981  0.5244  0.2777 -1.1126
   34DOPE   C22 4281   3.729   5.146  13.106  0.1520  0.0075 -0.1860
   34DOPE   H2R 4282   3.675   5.057  13.067 -1.1867  1.3238 -1.4485
   34DOPE   H2S 4283   3.672   5.179  13.196 -1.7246 -0.1310 -1.2699
   34DOPE    C3 4284   3.487   5.477  12.899  0.2899 -0.1868 -0.7304
   34DOPE    HX 4285   3.387   5.433  12.879 -0.4937  1.0076  0.3907
   34DOPE    HY 4286   3.493   5.570  12.838  0.1603 -0.4705 -1.1776
   34DOPE   O31 4287   3.494   5.504  13.038 -0.0059  0.2567  0.1182
   34DOPE   C31 4288   3.605   5.565  13.072 -0.3696  0.2000 -0.9753
   34DOPE   O32 4289   3.680   5.626  12.997  0.0318 -0.9821 -0.3293
   34DOPE   C32 4290   3.630   5.536  13.229 -0.4503 -0.4527  0.5054
   34DOPE   H2X 4291   3.527   5.543  13.271 -1.8084  2.4022 -2.7393
   34DOPE   H2Y 4292   3.663   5.431  13.233 -1.3276 -0.6996  2.2275
   34DOPE   C23 4293   3.872   5.108  13.142 -0.8008 -0.4989 -0.2072
   34DOPE   H3R 4294   3.933   5.076  13.055 -0.1638 -2.0607  0.7726
   34DOPE   H3S 4295   3.853   5.020  13.208  0.7321  0.3542  1.4664
   34DOPE   C24 4296   3.943   5.209  13.233  0.3703 -0.4093 -0.2270
   34DOPE   H4R 4297   3.902   5.212  13.336 -0.7691  0.8753 -0.6900
   34DOPE   H4S 4298   3.927   5.312  13.195  2.2580  0.3918  0.9791
   34DOPE   C25 4299   4.096   5.194  13.241 -0.0687  0.0268  0.6127
   34DOPE   H5R 4300   4.143   5.208  13.142  0.8211  0.1559  1.0397
   34DOPE   H5S 4301   4.117   5.093  13.282 -2.2411 -0.5106  0.5604
   34DOPE   C26 4302   4.164   5.304  13.328  0.4718  0.5579 -0.2558
   34DOPE   H6R 4303   4.110   5.307  13.425  0.2457  0.2731 -0.3714
   34DOPE   H6S 4304   4.152   5.399  13.272  1.1609  2.0238  1.9497
   34DOPE   C27 4305   4.317   5.273  13.348  0.3087  0.0574  0.6720
   34DOPE   H7R 4306   4.376   5.293  13.256  0.7281 -1.0509  0.6879
   34DOPE   H7S 4307   4.330   5.165  13.369  0.1463  0.0100  0.5393
   34DOPE   C28 4308   4.381   5.356  13.457  0.0470  1.0198 -0.2990
   34DOPE   H8R 4309   4.319   5.340  13.549 -1.5277 -0.1585 -1.5073
   34DOPE   H8S 4310   4.379   5.465  13.437  0.5400  0.6906 -2.2954
   34DOPE   C29 4311   4.525   5.313  13.477  0.1940  0.7194  0.0970
   34DOPE   H9R 4312   4.593   5.323  13.391  0.2929  0.6005  0.1621
   34DOPE  C210 4313   4.585   5.250  13.576  0.1078  0.3314 -0.2418
   34DOPE  H10R 4314   4.694   5.237  13.580  0.3157  1.4191 -1.4833
   34DOPE  C211 4315   4.518   5.214  13.706  0.3365 -0.5525  0.0371
   34DOPE  H11R 4316   4.515   5.105  13.722  1.0370 -0.6650 -0.5157
   34DOPE  H11S 4317   4.414   5.252  13.707 -0.1438 -1.7725 -1.2461
   34DOPE  C212 4318   4.609   5.271  13.819  0.0241 -0.1739 -0.4055
   34DOPE  H12R 4319   4.640   5.376  13.801  0.4287 -0.0083  1.0602
   34DOPE  H12S 4320   4.702   5.211  13.812  1.0579  1.4767 -1.3328
   34DOPE  C213 4321   4.543   5.249  13.959  0.6613  0.2304 -0.5920
   34DOPE  H13R 4322   4.538   5.139  13.974 -0.0811  0.2729 -0.4726
   34DOPE  H13S 4323   4.441   5.292  13.956  0.6303  0.4130  1.5393
   34DOPE  C214 4324   4.621   5.302  14.081 -0.6060  0.3538 -0.0722
   34DOPE  H14R 4325   4.615   5.413  14.080 -0.8665  0.3419 -1.1867
   34DOPE  H14S 4326   4.728   5.273  14.076 -0.8505 -0.5957 -0.0163
   34DOPE  C215 4327   4.571   5.259  14.220 -0.5598 -0.2422 -0.3814
   34DOPE  H15R 4328   4.612   5.159  14.245  1.1390 -0.0495 -2.2086
   34DOPE  H15S 4329   4.460   5.258  14.230 -0.4967  1.8341  1.3183
   34DOPE  C216 4330   4.608   5.355  14.329  0.7244 -0.2920 -0.2133
   34DOPE  H16R 4331   4.596   5.304  14.427 -0.7545  1.4910  0.6048
   34DOPE  H16S 4332   4.534   5.438  14.326  0.2967 -0.6631 -0.0336
   34DOPE  C217 4333   4.754   5.392  14.318 -0.5341  0.0243 -0.5147
   34DOPE  H17R 4334   4.770   5.460  14.231 -2.7728  1.3931  0.0398
   34DOPE  H17S 4335   4.814   5.303  14.293  0.3981  1.2703 -3.0442
   34DOPE  C218 4336   4.823   5.447  14.443  0.6897  0.1674 -0.4991
   34DOPE  H18R 4337   4.808   5.388  14.536  0.9169  0.0087 -0.5623
   34DOPE  H18S 4338   4.804   5.555  14.459 -0.6872 -0.0970 -0.2399
   34DOPE  H18T 4339   4.932   5.428  14.429  1.3723  1.4150  2.3476
   34DOPE   C33 4340   3.729   5.622  13.305 -0.0579 -0.9710  0.0755
   34DOPE   H3X 4341   3.722   5.624  13.415  1.3412  0.3130  0.1727
   34DOPE   H3Y 4342   3.710   5.729  13.285  1.6136  0.0261  3.2250
   34DOPE   C34 4343   3.874   5.593  13.283  0.3695  0.5532  0.8296
   34DOPE   H4X 4344   3.891   5.491  13.324  1.0665 -0.0652 -0.9182
   34DOPE   H4Y 4345   3.889   5.605  13.174 -3.4120  2.4387  0.3687
   34DOPE   C35 4346   3.963   5.695  13.351  0.1958 -0.4236 -0.4512
   34DOPE   H5X 4347   3.900   5.777  13.393  0.0868 -1.8187  2.4245
   34DOPE   H5Y 4348   4.028   5.735  13.271  1.2623 -0.7404  0.2335
   34DOPE   C36 4349   4.045   5.632  13.463  0.0678  0.3420 -0.3621
   34DOPE   H6X 4350   4.123   5.580  13.405 -2.8121 -1.0482 -3.3071
   34DOPE   H6Y 4351   3.993   5.553  13.522 -0.7290  1.4720  0.5129
   34DOPE   C37 4352   4.101   5.731  13.560 -0.4446  0.7645  0.4416
   34DOPE   H7X 4353   4.129   5.827  13.511 -0.9778  0.5638 -0.2752
   34DOPE   H7Y 4354   4.018   5.769  13.623 -2.1383  1.6397 -2.1480
   34DOPE   C38 4355   4.222   5.684  13.641  0.6500 -0.3762  0.5278
   34DOPE   H8X 4356   4.317   5.680  13.583  1.4478 -0.1847  1.7917
   34DOPE   H8Y 4357   4.205   5.579  13.673 -1.1047 -0.3549 -0.2142
   34DOPE   C39 4358   4.235   5.770  13.763  0.3099  0.7208 -0.0592
   34DOPE   H9X 4359   4.278   5.870  13.753 -1.0121  1.4127  0.8684
   34DOPE  C310 4360   4.235   5.722  13.886  0.1050 -0.3767 -0.2062
   34DOPE  H10X 4361   4.260   5.794  13.965  2.5285 -2.1995  0.8472
   34DOPE  C311 4362   4.177   5.588  13.928 -0.9610  0.5152 -0.1566
   34DOPE  H11X 4363   4.200   5.510  13.853 -0.8448  0.4082 -0.0087
   34DOPE  H11Y 4364   4.233   5.559  14.019  0.0831  0.8896 -0.6674
   34DOPE  C312 4365   4.034   5.600  13.964  0.1902 -0.2190 -0.0309
   34DOPE  H12X 4366   4.006   5.498  13.999  1.1781 -0.3733  0.3394
   34DOPE  H12Y 4367   3.963   5.634  13.885  1.9030  3.5068 -0.1646
   34DOPE  C313 4368   3.996   5.691  14.087  0.0896  0.0799 -0.5052
   34DOPE  H13X 4369   4.060   5.664  14.173  0.4225  2.3383  0.0138
   34DOPE  H13Y 4370   4.019   5.798  14.068  0.8189 -0.2194 -1.3713
   34DOPE  C314 4371   3.852   5.656  14.130 -0.2058  0.3354  0.6457
   34DOPE  H14X 4372   3.850   5.551  14.167 -1.3802  0.9370  2.4676
   34DOPE  H14Y 4373   3.791   5.655  14.037  0.1278 -1.2503  0.4224
   34DOPE  C315 4374   3.812   5.755  14.242 -0.1291 -0.0396  0.5958
   34DOPE  H15X 4375   3.826   5.857  14.200  0.5358 -1.0024 -1.6927
   34DOPE  H15Y 4376   3.882   5.750  14.328 -1.5627 -0.6033  1.7680
   34DOPE  C316 4377   3.675   5.719  14.299 -0.3274 -0.0745  0.4457
   34DOPE  H16X 4378   3.605   5.714  14.212 -0.1444  0.9295  0.2216
   34DOPE  H16Y 4379   3.645   5.801  14.368 -0.9438 -0.8528  1.1223
   34DOPE  C317 4380   3.659   5.580  14.363 -0.4743 -0.5359  0.2175
   34DOPE  H17X 4381   3.563   5.574  14.419 -0.2853  2.5528  1.0428
   34DOPE  H17Y 4382   3.655   5.506  14.280 -0.3214  0.4207 -0.6554
   34DOPE  C318 4383   3.774   5.541  14.455 -0.1772  0.2332 -0.4150
   34DOPE  H18X 4384   3.748   5.444  14.502  0.2408 -0.2312 -1.1176
   34DOPE  H18Y 4385   3.871   5.541  14.400 -0.7899  1.0644 -1.5472
   34DOPE  H18Z 4386   3.775   5.617  14.535 -1.9317 -0.1027 -0.0209
   35DOPE     N 4387   5.417   2.452  12.458  0.3762 -0.7247  0.0239
   35DOPE   HN1 4388   5.366   2.388  12.522  1.2286 -2.4736 -0.9655
   35DOPE   HN2 4389   5.376   2.547  12.442 -1.1990 -1.6767 -2.1622
   35DOPE   HN3 4390   5.427   2.415  12.361  0.7138 -1.9492  0.5140
   35DOPE   C12 4391   5.554   2.463  12.523  0.6405  0.4948 -0.2512
   35DOPE  H12A 4392   5.620   2.506  12.444  0.0774  0.2263 -0.8752
   35DOPE  H12B 4393   5.587   2.365  12.563 -1.7765  1.0669  3.7235
   35DOPE   C11 4394   5.541   2.568  12.629 -1.0365  0.0108  0.2314
   35DOPE  H11A 4395   5.644   2.579  12.668 -1.2599 -2.0338  1.5566
   35DOPE  H11B 4396   5.480   2.533  12.715  1.7323  0.6111  2.5609
   35DOPE     P 4397   5.588   2.814  12.550 -0.4479 -0.5597 -0.1861
   35DOPE   O13 4398   5.510   2.936  12.511 -0.1494 -0.2132 -0.0060
   35DOPE   O14 4399   5.686   2.779  12.440  0.4011  0.2415 -0.3003
   35DOPE   O11 4400   5.664   2.847  12.682  0.2717 -0.7010  0.0210
   35DOPE   O12 4401   5.495   2.692  12.582 -0.1661  0.4457 -0.0070
   35DOPE    C1 4402   5.599   2.892  12.798  0.3047  0.4248  0.0723
   35DOPE    HA 4403   5.505   2.838  12.821  2.1012 -2.7687  0.4062
   35DOPE    HB 4404   5.573   3.000  12.788 -0.0278  0.3605  0.2348
   35DOPE    C2 4405   5.690   2.861  12.921  0.0061  0.0292 -0.0071
   35DOPE    HS 4406   5.788   2.906  12.897  0.4704 -0.5628  0.7307
   35DOPE   O21 4407   5.708   2.714  12.941 -0.0780  0.3985 -0.1568
   35DOPE   C21 4408   5.813   2.680  13.011 -0.0767  0.5519 -0.2594
   35DOPE   O22 4409   5.889   2.749  13.081 -0.1510  0.6069  0.8274
   35DOPE   C22 4410   5.823   2.527  12.984  0.7619  0.3799 -0.0951
   35DOPE   H2R 4411   5.896   2.505  12.903 -1.5020 -0.0429 -2.1375
   35DOPE   H2S 4412   5.728   2.487  12.943  1.5778 -0.2137 -1.4877
   35DOPE    C3 4413   5.655   2.960  13.040 -0.1972  0.1626 -0.5275
   35DOPE    HX 4414   5.666   3.066  13.010  0.8325  0.0815 -0.4645
   35DOPE    HY 4415   5.735   2.936  13.114 -0.9666 -2.3169 -0.3926
   35DOPE   O31 4416   5.520   2.923  13.090  0.5876  0.8844 -0.8809
   35DOPE   C31 4417   5.456   3.004  13.166 -0.0166  0.2571 -0.4330
   35DOPE   O32 4418   5.506   3.101  13.221 -0.0459  0.0796  0.4178
   35DOPE   C32 4419   5.316   2.955  13.169  0.8284 -0.1996  0.3257
   35DOPE   H2X 4420   5.243   3.035  13.195 -1.0204 -0.6642 -2.9262
   35DOPE   H2Y 4421   5.293   2.909  13.070  0.0019 -0.6255  0.6998
   35DOPE   C23 4422   5.849   2.442  13.113  0.7810 -0.7321 -0.5331
   35DOPE   H3R 4423   5.803   2.343  13.092  1.0804 -0.6660 -1.5912
   35DOPE   H3S 4424   5.797   2.490  13.198 -0.3000 -0.5401 -1.2757
   35DOPE   C24 4425   6.002   2.415  13.134  0.3910  0.0743  0.1046
   35DOPE   H4R 4426   6.059   2.510  13.129  1.9612 -0.8434 -0.2593
   35DOPE   H4S 4427   6.045   2.366  13.043 -0.1770  2.1284 -1.3357
   35DOPE   C25 4428   6.024   2.336  13.267 -0.1865  0.1284 -0.0756
   35DOPE   H5R 4429   6.128   2.297  13.263 -0.3099 -0.3321  0.9119
   35DOPE   H5S 4430   5.960   2.246  13.278 -0.3191  0.5433  3.5885
   35DOPE   C26 4431   6.027   2.433  13.384  0.3822  0.1873  0.4965
   35DOPE   H6R 4432   5.925   2.456  13.421 -0.0990 -0.7763 -0.1996
   35DOPE   H6S 4433   6.084   2.527  13.364 -1.1386  0.8243 -1.0943
   35DOPE   C27 4434   6.104   2.363  13.505  0.2043  0.6187  0.0902
   35DOPE   H7R 4435   6.209   2.335  13.483 -0.7980 -2.8438 -0.8763
   35DOPE   H7S 4436   6.048   2.267  13.513 -0.0614  0.3264 -3.4896
   35DOPE   C28 4437   6.089   2.425  13.643 -0.2917  0.7524 -0.1103
   35DOPE   H8R 4438   6.108   2.350  13.723  1.0002  1.9018  0.7014
   35DOPE   H8S 4439   5.985   2.458  13.665 -0.4441 -0.3162  0.8753
   35DOPE   C29 4440   6.182   2.537  13.653 -0.1286  1.0127 -0.4630
   35DOPE   H9R 4441   6.156   2.620  13.585 -0.9789  0.5713 -0.6993
   35DOPE  C210 4442   6.285   2.560  13.735  0.2788 -0.2552  0.4994
   35DOPE  H10R 4443   6.351   2.648  13.726  2.7324 -1.9197  1.1310
   35DOPE  C211 4444   6.313   2.488  13.865 -0.4375  0.4554 -0.3840
   35DOPE  H11R 4445   6.279   2.382  13.859  2.4868 -0.7774  1.9230
   35DOPE  H11S 4446   6.271   2.532  13.957 -2.3215 -0.0604 -0.9547
   35DOPE  C212 4447   6.472   2.492  13.891 -0.7933  0.3511  0.2247
   35DOPE  H12R 4448   6.509   2.595  13.874  0.2883 -0.3612 -2.2451
   35DOPE  H12S 4449   6.518   2.432  13.809  0.0983 -0.2930  1.1807
   35DOPE  C213 4450   6.520   2.444  14.025  1.0282  0.2902 -1.0041
   35DOPE  H13R 4451   6.471   2.504  14.104  2.8813  0.1146  0.3229
   35DOPE  H13S 4452   6.627   2.472  14.023  1.4446 -1.0929  0.2782
   35DOPE  C214 4453   6.510   2.285  14.044 -0.9292 -0.0277  0.4954
   35DOPE  H14R 4454   6.556   2.235  13.957 -0.7335  2.5716 -0.9994
   35DOPE  H14S 4455   6.403   2.255  14.035 -1.3098  1.1041  1.0789
   35DOPE  C215 4456   6.571   2.246  14.180 -0.6039 -0.2172  0.4365
   35DOPE  H15R 4457   6.555   2.321  14.261 -1.0560 -1.1088  1.1963
   35DOPE  H15S 4458   6.680   2.242  14.162 -0.9874 -3.0944 -1.8051
   35DOPE  C216 4459   6.538   2.118  14.233  0.4412 -0.0260  0.1121
   35DOPE  H16R 4460   6.584   2.117  14.334 -0.9493  4.0380  0.9783
   35DOPE  H16S 4461   6.584   2.035  14.176 -0.5269  0.2228 -1.0757
   35DOPE  C217 4462   6.390   2.082  14.261 -0.7110  0.0642 -0.1043
   35DOPE  H17R 4463   6.336   2.065  14.165  1.1162 -0.8867 -1.0035
   35DOPE  H17S 4464   6.339   2.169  14.309 -0.5801 -0.0561  0.2599
   35DOPE  C218 4465   6.379   1.962  14.349  0.3576  0.8331  0.1522
   35DOPE  H18R 4466   6.274   1.927  14.354  0.6017  0.0270 -0.2439
   35DOPE  H18S 4467   6.414   1.975  14.453 -1.4742 -1.0522  1.0831
   35DOPE  H18T 4468   6.447   1.882  14.312 -1.2724 -1.6602  2.2149
   35DOPE   C33 4469   5.293   2.843  13.271  0.0473 -0.3530  0.4259
   35DOPE   H3X 4470   5.384   2.779  13.268  0.1524 -0.2136 -2.3074
   35DOPE   H3Y 4471   5.206   2.784  13.233  0.4513 -1.4489  1.1462
   35DOPE   C34 4472   5.275   2.905  13.410 -0.7451  0.2864  0.2018
   35DOPE   H4X 4473   5.366   2.966  13.431  0.1567 -1.0731  0.4135
   35DOPE   H4Y 4474   5.187   2.971  13.399  0.1904  1.4716 -0.4427
   35DOPE   C35 4475   5.263   2.792  13.511 -0.3004  0.7598  0.2533
   35DOPE   H5X 4476   5.199   2.714  13.464  1.4007  1.2075 -3.1167
   35DOPE   H5Y 4477   5.199   2.835  13.591 -2.0105  0.1259 -0.7262
   35DOPE   C36 4478   5.401   2.739  13.554 -0.4580 -0.6649 -0.1680
   35DOPE   H6X 4479   5.465   2.826  13.579 -2.1169  0.4090  0.6092
   35DOPE   H6Y 4480   5.449   2.682  13.472 -0.6321 -0.4880 -0.3960
   35DOPE   C37 4481   5.397   2.642  13.676 -0.1391  0.6352 -0.4787
   35DOPE   H7X 4482   5.343   2.551  13.643 -1.1527  0.1462  2.2353
   35DOPE   H7Y 4483   5.499   2.608  13.704 -1.3856 -1.2069  2.3382
   35DOPE   C38 4484   5.333   2.713  13.799  0.8139  0.4848 -0.9246
   35DOPE   H8X 4485   5.333   2.649  13.889  2.4965  4.0670  1.8863
   35DOPE   H8Y 4486   5.224   2.731  13.789  0.6537  0.9431  1.0973
   35DOPE   C39 4487   5.395   2.846  13.842 -0.3760  0.3807 -0.8460
   35DOPE   H9X 4488   5.393   2.928  13.770 -1.0272  0.7807 -0.3863
   35DOPE  C310 4489   5.463   2.859  13.964  0.6877 -0.1194  0.4541
   35DOPE  H10X 4490   5.496   2.957  14.002 -2.1215  2.7687 -3.7102
   35DOPE  C311 4491   5.495   2.752  14.064 -0.3886 -0.4179 -0.5106
   35DOPE  H11X 4492   5.467   2.651  14.029 -0.5090 -0.7951  0.6289
   35DOPE  H11Y 4493   5.605   2.750  14.076 -0.5671 -0.4931  1.4861
   35DOPE  C312 4494   5.439   2.784  14.204 -0.4870  0.2865 -0.3635
   35DOPE  H12X 4495   5.472   2.695  14.262 -1.9424 -0.8266 -1.1844
   35DOPE  H12Y 4496   5.328   2.791  14.206 -0.4728  0.3863  1.0877
   35DOPE  C313 4497   5.508   2.905  14.273  0.3887  1.0237 -0.1291
   35DOPE  H13X 4498   5.616   2.880  14.263  0.3936  0.5032  1.0602
   35DOPE  H13Y 4499   5.475   3.000  14.226  0.0834 -0.0739 -2.3034
   35DOPE  C314 4500   5.471   2.927  14.416  0.6646  0.4103 -0.2758
   35DOPE  H14X 4501   5.530   2.864  14.486 -0.6879  0.2905  0.7996
   35DOPE  H14Y 4502   5.363   2.905  14.430  0.8615  0.0988  0.8270
   35DOPE  C315 4503   5.497   3.073  14.472 -0.6848 -0.5578 -0.4612
   35DOPE  H15X 4504   5.431   3.149  14.425  0.1530  0.0028 -0.7634
   35DOPE  H15Y 4505   5.602   3.095  14.443 -0.6970 -1.7819 -1.5366
   35DOPE  C316 4506   5.488   3.092  14.630 -0.3740 -0.1732  0.0292
   35DOPE  H16X 4507   5.545   3.008  14.675 -1.9925 -1.5329 -0.3478
   35DOPE  H16Y 4508   5.384   3.068  14.661 -0.2606  0.0230  0.5720
   35DOPE  C317 4509   5.528   3.232  14.676  0.0878 -0.2367 -0.3291
   35DOPE  H17X 4510   5.634   3.255  14.652  0.5741 -1.5673  0.4110
   35DOPE  H17Y 4511   5.458   3.310  14.638  1.0985  1.3191  0.8480
   35DOPE  C318 4512   5.523   3.246  14.831 -0.4521  0.2969  0.2709
   35DOPE  H18X 4513   5.517   3.354  14.855 -0.7598  0.2469  0.4221
   35DOPE  H18Y 4514   5.435   3.195  14.875 -0.7882 -0.4766 -1.2125
   35DOPE  H18Z 4515   5.609   3.193  14.877  0.4069  0.8084 -0.7066
   36DOPE     N 4516   6.285   5.526  12.533 -0.3369 -0.0506  0.0213
   36DOPE   HN1 4517   6.203   5.497  12.591 -1.6479  0.1018 -1.6580
   36DOPE   HN2 4518   6.272   5.626  12.508  1.5023  0.6122  1.5042
   36DOPE   HN3 4519   6.276   5.487  12.437 -0.0239  3.5993 -1.6719
   36DOPE   C12 4520   6.423   5.513  12.578  0.8362 -0.4100  0.3738
   36DOPE  H12A 4521   6.438   5.583  12.663  0.6729 -1.4916  1.3232
   36DOPE  H12B 4522   6.491   5.541  12.495 -0.9981  2.2539 -0.3622
   36DOPE   C11 4523   6.447   5.368  12.621  0.2674 -0.0684 -1.2320
   36DOPE  H11A 4524   6.381   5.361  12.710 -1.2328 -0.1291 -2.3054
   36DOPE  H11B 4525   6.549   5.353  12.661 -0.0459 -0.7722 -0.6589
   36DOPE     P 4526   6.299   5.166  12.540  0.2816 -0.5356  0.3663
   36DOPE   O13 4527   6.312   5.078  12.423 -0.5122 -0.4704 -0.0002
   36DOPE   O14 4528   6.167   5.233  12.548 -0.6544  0.0093 -0.5511
   36DOPE   O11 4529   6.323   5.093  12.678 -0.2080  0.2103 -0.6242
   36DOPE   O12 4530   6.413   5.271  12.520  0.0783  0.8712 -0.3211
   36DOPE    C1 4531   6.221   5.025  12.747  0.5373 -0.4215 -0.0683
   36DOPE    HA 4532   6.259   4.931  12.793  1.0134 -1.3777 -2.2945
   36DOPE    HB 4533   6.144   4.997  12.673 -0.9455 -1.0615  1.6474
   36DOPE    C2 4534   6.164   5.113  12.865 -0.0396 -0.0472 -0.4350
   36DOPE    HS 4535   6.128   5.205  12.814  0.3968  0.1010 -0.4812
   36DOPE   O21 4536   6.256   5.132  12.964 -0.5865 -1.2487  0.2975
   36DOPE   C21 4537   6.250   5.252  13.026  0.5738 -0.2673  0.3440
   36DOPE   O22 4538   6.181   5.346  12.989  0.3100 -0.4891 -0.5776
   36DOPE   C22 4539   6.327   5.255  13.156  0.1314 -0.3104  0.0298
   36DOPE   H2R 4540   6.417   5.316  13.134  1.4002 -2.0546  0.1993
   36DOPE   H2S 4541   6.380   5.160  13.178 -0.7710 -0.0622  4.0496
   36DOPE    C3 4542   6.038   5.047  12.930 -0.0901  0.3061 -0.2683
   36DOPE    HX 4543   5.971   5.044  12.842  0.0120  0.9156 -0.3745
   36DOPE    HY 4544   5.991   5.120  12.999  0.1259  2.0977 -1.9197
   36DOPE   O31 4545   6.052   4.912  12.981 -0.0413  0.1297 -0.2500
   36DOPE   C31 4546   6.090   4.911  13.114  0.6005 -0.0857  0.2877
   36DOPE   O32 4547   6.094   5.008  13.182 -0.0345 -0.1417  0.1990
   36DOPE   C32 4548   6.113   4.764  13.152 -0.3209 -0.4386  0.0077
   36DOPE   H2X 4549   6.039   4.705  13.093 -1.2780 -0.0892  0.8380
   36DOPE   H2Y 4550   6.215   4.744  13.113  0.7344  1.5582  1.5637
   36DOPE   C23 4551   6.249   5.294  13.282 -0.1723  0.6644 -0.3419
   36DOPE   H3R 4552   6.301   5.266  13.376 -3.3730 -1.9463  0.8553
   36DOPE   H3S 4553   6.151   5.240  13.286  0.3003 -0.1870 -0.0443
   36DOPE   C24 4554   6.227   5.441  13.301 -0.2396  0.0634  0.1482
   36DOPE   H4R 4555   6.171   5.450  13.396  0.1735  0.4576  0.3646
   36DOPE   H4S 4556   6.173   5.478  13.211 -0.7169 -0.2631  0.2981
   36DOPE   C25 4557   6.354   5.526  13.317  0.1970  0.1345  0.7089
   36DOPE   H5R 4558   6.341   5.632  13.285 -0.9138  0.1411  1.1402
   36DOPE   H5S 4559   6.428   5.487  13.243 -0.8272 -1.9231  0.7115
   36DOPE   C26 4560   6.433   5.510  13.453  0.1385 -1.2975 -0.0867
   36DOPE   H6R 4561   6.477   5.409  13.468 -0.9580 -1.6810  0.7477
   36DOPE   H6S 4562   6.357   5.513  13.534  0.6577  0.6282  0.3678
   36DOPE   C27 4563   6.535   5.624  13.467 -0.8796 -0.9010 -0.2927
   36DOPE   H7R 4564   6.544   5.634  13.577  3.2571  0.7999 -0.6086
   36DOPE   H7S 4565   6.488   5.719  13.434 -1.5452 -1.8736 -2.2916
   36DOPE   C28 4566   6.672   5.596  13.399  0.3764 -0.3925  0.3742
   36DOPE   H8R 4567   6.650   5.584  13.291 -0.9228 -2.7838  0.8329
   36DOPE   H8S 4568   6.720   5.500  13.426  0.7353 -0.2537  0.2317
   36DOPE   C29 4569   6.770   5.709  13.421  0.5287  0.5516  0.5184
   36DOPE   H9R 4570   6.718   5.805  13.435  1.2183  1.0724 -0.3806
   36DOPE  C210 4571   6.900   5.693  13.451  0.3124 -0.6220  0.2173
   36DOPE  H10R 4572   6.965   5.776  13.483  1.6497 -0.3391 -2.8531
   36DOPE  C211 4573   6.976   5.565  13.437  0.8266  0.3470 -0.0980
   36DOPE  H11R 4574   7.076   5.582  13.394  1.5179 -0.0823  1.2833
   36DOPE  H11S 4575   6.933   5.492  13.365  0.0616  0.2044  0.4847
   36DOPE  C212 4576   6.993   5.494  13.570  0.9287 -0.2307  0.0538
   36DOPE  H12R 4577   6.898   5.463  13.620  2.0250 -2.0634  1.1108
   36DOPE  H12S 4578   7.062   5.555  13.632  1.5002  1.4907 -2.1849
   36DOPE  C213 4579   7.051   5.354  13.559 -0.4699 -0.0892 -0.7958
   36DOPE  H13R 4580   7.151   5.364  13.512  0.0601  0.9219  0.4805
   36DOPE  H13S 4581   6.983   5.291  13.497 -0.7639  0.9394 -1.5475
   36DOPE  C214 4582   7.088   5.308  13.705  0.6224  0.0038  0.3162
   36DOPE  H14R 4583   6.999   5.315  13.771  1.3347  0.3543  1.2599
   36DOPE  H14S 4584   7.162   5.373  13.755  1.1525 -0.7419  0.5196
   36DOPE  C215 4585   7.158   5.174  13.719  0.3170  0.1181  0.5314
   36DOPE  H15R 4586   7.084   5.093  13.700 -2.1015  2.2384  0.2832
   36DOPE  H15S 4587   7.187   5.158  13.825  1.0558  0.0243  0.3201
   36DOPE  C216 4588   7.273   5.141  13.619  0.1857  0.3506 -0.4984
   36DOPE  H16R 4589   7.349   5.218  13.644  0.5383 -0.5002  1.2269
   36DOPE  H16S 4590   7.244   5.152  13.512 -0.8594  1.4279 -0.1328
   36DOPE  C217 4591   7.326   5.002  13.636  0.2422  0.4070 -0.6444
   36DOPE  H17R 4592   7.391   4.979  13.548 -0.2306 -0.8577 -0.6832
   36DOPE  H17S 4593   7.245   4.926  13.641  1.2315 -0.5978  1.4109
   36DOPE  C218 4594   7.410   4.987  13.759 -0.5109 -0.3418  0.1749
   36DOPE  H18R 4595   7.434   4.879  13.775  0.4062 -0.1627  0.0282
   36DOPE  H18S 4596   7.357   5.017  13.852  0.1340  3.1971 -0.4613
   36DOPE  H18T 4597   7.507   5.037  13.740 -1.3874  1.0035 -0.9722
   36DOPE   C33 4598   6.096   4.727  13.303  0.1638  0.6844  0.6901
   36DOPE   H3X 4599   6.098   4.616  13.300  0.7591  0.7102 -1.6704
   36DOPE   H3Y 4600   5.998   4.758  13.345 -0.5781 -0.7168  0.0766
   36DOPE   C34 4601   6.219   4.776  13.389  0.3402  0.1055 -0.3589
   36DOPE   H4X 4602   6.320   4.772  13.343  1.2899  0.5282  1.6136
   36DOPE   H4Y 4603   6.192   4.882  13.407  3.4657  1.1724 -1.2784
   36DOPE   C35 4604   6.219   4.697  13.513  0.7683 -0.4199 -0.1324
   36DOPE   H5X 4605   6.257   4.592  13.508  3.0361  0.3346  0.0262
   36DOPE   H5Y 4606   6.115   4.689  13.550  1.0531  0.5071  0.9297
   36DOPE   C36 4607   6.285   4.765  13.633  0.5547 -0.2621 -0.6656
   36DOPE   H6X 4608   6.242   4.867  13.640 -0.8520 -0.9165  1.0744
   36DOPE   H6Y 4609   6.396   4.762  13.637  0.5850  0.9840 -0.3427
   36DOPE   C37 4610   6.240   4.702  13.766  0.5959 -1.2111 -0.1682
   36DOPE   H7X 4611   6.130   4.712  13.770  0.6121 -0.5283 -0.9400
   36DOPE   H7Y 4612   6.267   4.595  13.754 -0.4684 -1.5707  0.6387
   36DOPE   C38 4613   6.306   4.774  13.886 -0.5238 -0.4561  0.2821
   36DOPE   H8X 4614   6.253   4.868  13.911  0.1159  0.6976 -2.3596
   36DOPE   H8Y 4615   6.407   4.814  13.865 -1.3622  0.8033 -1.5525
   36DOPE   C39 4616   6.296   4.681  13.997  0.1017 -0.0034  0.1805
   36DOPE   H9X 4617   6.260   4.583  13.961  0.5882 -0.3872  0.7163
   36DOPE  C310 4618   6.313   4.702  14.126 -0.2428  0.4386 -0.4960
   36DOPE  H10X 4619   6.316   4.608  14.183  2.2280  0.4107 -0.5705
   36DOPE  C311 4620   6.355   4.831  14.182  0.2509 -0.5007  0.0060
   36DOPE  H11X 4621   6.375   4.902  14.099 -3.0393 -0.1741 -0.6633
   36DOPE  H11Y 4622   6.281   4.887  14.244  2.0875  0.7018  1.1959
   36DOPE  C312 4623   6.490   4.812  14.244 -0.1182 -0.5843 -0.3549
   36DOPE  H12X 4624   6.485   4.741  14.330  1.1710  2.2557  2.2675
   36DOPE  H12Y 4625   6.527   4.906  14.290 -0.5642 -0.4233 -0.3271
   36DOPE  C313 4626   6.598   4.789  14.140 -0.3270 -0.4962 -0.1440
   36DOPE  H13X 4627   6.595   4.685  14.101 -2.4670 -0.3540 -0.4627
   36DOPE  H13Y 4628   6.576   4.856  14.054  1.4314  1.6559  0.9705
   36DOPE  C314 4629   6.743   4.823  14.193 -0.2087 -0.2922  0.8799
   36DOPE  H14X 4630   6.757   4.933  14.204  1.1496 -0.2240 -1.0504
   36DOPE  H14Y 4631   6.824   4.776  14.134 -1.1895 -0.9642  0.0207
   36DOPE  C315 4632   6.770   4.757  14.332  0.7218  0.2380 -0.5041
   36DOPE  H15X 4633   6.772   4.645  14.329 -0.2307  0.2466 -2.1035
   36DOPE  H15Y 4634   6.699   4.784  14.413  1.0249 -0.9401  0.1864
   36DOPE  C316 4635   6.904   4.805  14.403  0.4573  0.0492  0.2432
   36DOPE  H16X 4636   6.871   4.906  14.433 -1.7052  0.1868 -2.2802
   36DOPE  H16Y 4637   6.982   4.815  14.324 -0.8654 -1.8763 -1.3871
   36DOPE  C317 4638   6.939   4.726  14.528  0.6720  0.0053  0.3979
   36DOPE  H17X 4639   6.962   4.624  14.492 -0.4384 -0.2170  0.2853
   36DOPE  H17Y 4640   7.033   4.764  14.575  0.8589  0.6994 -0.5221
   36DOPE  C318 4641   6.832   4.725  14.642 -0.1002  0.0959 -0.0903
   36DOPE  H18X 4642   6.843   4.828  14.682  1.0403 -0.5215  1.2781
   36DOPE  H18Y 4643   6.731   4.698  14.606  0.3087  0.4459 -1.5874
   36DOPE  H18Z 4644   6.859   4.656  14.725  0.8770 -0.6977 -1.0335
   37DOPE     N 4645   2.603   3.098  12.755 -0.2236 -0.0328  0.8133
   37DOPE   HN1 4646   2.507   3.065  12.732 -1.1013  1.7250  1.7116
   37DOPE   HN2 4647   2.599   3.202  12.762  1.5908  0.1696 -0.5118
   37DOPE   HN3 4648   2.675   3.082  12.682  1.8315  1.9753  2.2478
   37DOPE   C12 4649   2.665   3.025  12.876  0.4205  0.0951  0.5381
   37DOPE  H12A 4650   2.709   2.937  12.823 -0.0771  0.4231 -0.4410
   37DOPE  H12B 4651   2.586   3.010  12.952 -0.2954  2.2381  0.2746
   37DOPE   C11 4652   2.765   3.118  12.939  0.7905  0.0287  0.0455
   37DOPE  H11A 4653   2.786   3.077  13.040  0.0542  0.5011  0.4016
   37DOPE  H11B 4654   2.722   3.219  12.957  0.6845 -0.0853  0.4432
   37DOPE     P 4655   3.021   3.080  12.885  0.3475  0.1634  0.3270
   37DOPE   O13 4656   3.114   3.142  12.786 -0.5241  0.6111 -0.4294
   37DOPE   O14 4657   3.033   2.933  12.896 -0.2819  0.3206 -0.1999
   37DOPE   O11 4658   3.052   3.135  13.029  0.5992 -0.4903  0.4906
   37DOPE   O12 4659   2.879   3.130  12.853 -0.2773 -0.4264 -0.0897
   37DOPE    C1 4660   3.030   3.273  13.059  0.3442 -0.0089  0.2183
   37DOPE    HA 4661   2.993   3.267  13.163  1.5879  0.1491  0.6922
   37DOPE    HB 4662   2.956   3.323  12.992  0.3293 -0.2121  0.0807
   37DOPE    C2 4663   3.165   3.350  13.078 -0.0783 -0.0515  0.2622
   37DOPE    HS 4664   3.218   3.350  12.980  0.6269 -0.8465  0.6277
   37DOPE   O21 4665   3.226   3.295  13.190 -0.0779 -0.2254  0.3552
   37DOPE   C21 4666   3.361   3.297  13.190 -0.2468 -0.4016  0.2704
   37DOPE   O22 4667   3.431   3.332  13.096 -0.4546  0.4084 -0.3013
   37DOPE   C22 4668   3.408   3.269  13.337  0.2681  0.4704  0.3099
   37DOPE   H2R 4669   3.378   3.163  13.355  1.1126  0.1642 -0.0711
   37DOPE   H2S 4670   3.358   3.340  13.406 -2.2531  1.2969 -2.1659
   37DOPE    C3 4671   3.137   3.500  13.087 -0.2735 -1.0399 -0.9392
   37DOPE    HX 4672   3.042   3.509  13.143 -0.6331 -2.5537 -1.2579
   37DOPE    HY 4673   3.103   3.549  12.994 -3.1652  0.8665  0.9405
   37DOPE   O31 4674   3.246   3.581  13.147  0.7881 -0.2640  0.7174
   37DOPE   C31 4675   3.326   3.643  13.060  0.1789 -0.2686 -0.8386
   37DOPE   O32 4676   3.317   3.635  12.941  0.0588  0.4378 -0.2005
   37DOPE   C32 4677   3.432   3.729  13.134  0.2459  0.0856  0.8234
   37DOPE   H2X 4678   3.518   3.726  13.065 -1.0138  1.2378 -0.8664
   37DOPE   H2Y 4679   3.376   3.824  13.140 -0.7626 -0.5582  2.6811
   37DOPE   C23 4680   3.562   3.291  13.336  0.1002  0.0813  0.4347
   37DOPE   H3R 4681   3.596   3.380  13.279  2.1104  0.1693  1.7010
   37DOPE   H3S 4682   3.607   3.205  13.282 -2.1030 -0.8750 -0.0123
   37DOPE   C24 4683   3.613   3.297  13.481 -0.5619 -0.0300 -0.2543
   37DOPE   H4R 4684   3.606   3.204  13.541  1.2738  0.1951  0.3850
   37DOPE   H4S 4685   3.552   3.375  13.530  0.3481  0.9299 -0.6236
   37DOPE   C25 4686   3.765   3.346  13.501  1.1259  0.5101  0.5969
   37DOPE   H5R 4687   3.767   3.438  13.439 -0.2182  1.4972  1.9433
   37DOPE   H5S 4688   3.824   3.268  13.448 -0.6763  0.2653 -1.2163
   37DOPE   C26 4689   3.812   3.366  13.648  0.3450 -0.2455 -0.0356
   37DOPE   H6R 4690   3.798   3.268  13.697  1.0398 -0.1964  0.2640
   37DOPE   H6S 4691   3.740   3.440  13.691  0.7246  0.2331 -0.2103
   37DOPE   C27 4692   3.954   3.424  13.662 -0.1076 -0.3606 -0.1491
   37DOPE   H7R 4693   3.954   3.524  13.615  2.6312  0.6766  1.7541
   37DOPE   H7S 4694   4.017   3.355  13.602  0.8469  0.2259  0.1526
   37DOPE   C28 4695   4.024   3.434  13.807  0.3992  0.0941  0.6331
   37DOPE   H8R 4696   3.948   3.496  13.857 -0.6969  0.4800 -1.3874
   37DOPE   H8S 4697   4.120   3.489  13.800  0.1806  0.4418  0.3433
   37DOPE   C29 4698   4.038   3.298  13.868 -0.5440  0.3812  0.1002
   37DOPE   H9R 4699   4.113   3.231  13.824  0.6727  2.7803 -1.7632
   37DOPE  C210 4700   3.966   3.250  13.977 -0.4391  0.0873  1.2737
   37DOPE  H10R 4701   3.979   3.145  14.008 -0.8452 -0.1361  0.6967
   37DOPE  C211 4702   3.851   3.322  14.049 -0.0761  0.4193  0.5262
   37DOPE  H11R 4703   3.857   3.430  14.024  1.4170  0.2853  0.2052
   37DOPE  H11S 4704   3.877   3.324  14.158  2.0235 -2.3920  0.1898
   37DOPE  C212 4705   3.724   3.254  14.010  0.5306  0.6746 -0.1844
   37DOPE  H12R 4706   3.724   3.151  14.053  0.7019  0.7593  0.0166
   37DOPE  H12S 4707   3.715   3.233  13.901 -0.3394 -0.4663  0.0933
   37DOPE  C213 4708   3.592   3.318  14.062  0.2839 -0.2159  0.0817
   37DOPE  H13R 4709   3.596   3.354  14.167 -2.7121 -1.9593  0.8957
   37DOPE  H13S 4710   3.514   3.239  14.060  0.7080 -0.6286 -0.5640
   37DOPE  C214 4711   3.550   3.436  13.978  0.3320  1.0991 -0.0503
   37DOPE  H14R 4712   3.572   3.398  13.876 -0.3551 -1.0406  0.5461
   37DOPE  H14S 4713   3.626   3.516  13.994  0.8535  0.5660  0.1466
   37DOPE  C215 4714   3.402   3.484  13.996  0.2253 -0.5275 -0.4864
   37DOPE  H15R 4715   3.331   3.400  14.013 -1.5091  0.2950 -3.0329
   37DOPE  H15S 4716   3.357   3.534  13.908 -1.9297 -1.0565  0.2487
   37DOPE  C216 4717   3.396   3.563  14.130 -0.3191 -0.5133  0.4434
   37DOPE  H16R 4718   3.335   3.654  14.114 -1.2857 -1.0086  1.2279
   37DOPE  H16S 4719   3.499   3.582  14.168 -0.2295 -0.9743  0.4301
   37DOPE  C217 4720   3.328   3.481  14.245 -0.1681  0.4674 -0.6259
   37DOPE  H17R 4721   3.388   3.390  14.267 -0.7459  0.6427  1.9884
   37DOPE  H17S 4722   3.232   3.444  14.204 -0.0513 -1.6734  0.8675
   37DOPE  C218 4723   3.310   3.555  14.382 -0.1289 -0.2719  0.1221
   37DOPE  H18R 4724   3.271   3.484  14.457  0.2754 -0.9839 -0.3292
   37DOPE  H18S 4725   3.229   3.631  14.376 -0.0256  0.2375  3.2634
   37DOPE  H18T 4726   3.414   3.590  14.405 -0.1158  0.2054 -0.6231
   37DOPE   C33 4727   3.479   3.675  13.274 -0.3142 -0.8228 -0.3599
   37DOPE   H3X 4728   3.531   3.580  13.246  0.6131 -0.0989 -1.1965
   37DOPE   H3Y 4729   3.398   3.643  13.342 -1.9738  2.8281 -0.3856
   37DOPE   C34 4730   3.579   3.759  13.344 -0.2125 -0.4419  0.0171
   37DOPE   H4X 4731   3.668   3.780  13.280 -0.6494 -0.2623 -0.5430
   37DOPE   H4Y 4732   3.533   3.860  13.336 -0.1323 -0.5324 -2.6620
   37DOPE   C35 4733   3.599   3.711  13.487 -0.7726 -0.9445  0.6611
   37DOPE   H5X 4734   3.648   3.612  13.491  2.4061  0.2567 -2.7749
   37DOPE   H5Y 4735   3.496   3.700  13.527 -1.9897  1.6407 -1.3892
   37DOPE   C36 4736   3.667   3.816  13.585 -0.2908 -0.1992 -0.0514
   37DOPE   H6X 4737   3.617   3.914  13.578  0.8619  0.3692 -0.7187
   37DOPE   H6Y 4738   3.767   3.856  13.557  0.6474  0.2552  3.4493
   37DOPE   C37 4739   3.669   3.756  13.735  0.4128 -0.0883 -0.1873
   37DOPE   H7X 4740   3.569   3.728  13.774  0.5384 -0.1872  0.0676
   37DOPE   H7Y 4741   3.743   3.673  13.733  2.3108  1.4362  2.0479
   37DOPE   C38 4742   3.735   3.852  13.835 -0.0659 -0.1186 -0.1733
   37DOPE   H8X 4743   3.683   3.950  13.832 -0.6216 -0.4328 -1.4735
   37DOPE   H8Y 4744   3.842   3.868  13.808  0.6816  0.7429  2.8929
   37DOPE   C39 4745   3.740   3.788  13.976 -0.4844 -0.2665  0.0684
   37DOPE   H9X 4746   3.636   3.775  14.011 -0.5390 -2.5319 -0.8107
   37DOPE  C310 4747   3.844   3.739  14.046  0.2316  0.1700 -0.2777
   37DOPE  H10X 4748   3.826   3.695  14.145  0.7176 -2.4413 -1.2778
   37DOPE  C311 4749   3.985   3.731  14.009 -0.2353 -0.1266 -0.9814
   37DOPE  H11X 4750   4.017   3.627  14.028  0.0861 -0.1581 -1.6783
   37DOPE  H11Y 4751   3.995   3.764  13.903 -1.0443 -2.3656 -1.8150
   37DOPE  C312 4752   4.090   3.817  14.085  0.0459 -0.0518  0.8300
   37DOPE  H12X 4753   4.070   3.926  14.078 -1.3386 -0.3610 -0.8326
   37DOPE  H12Y 4754   4.184   3.798  14.029 -1.0543 -3.8333 -0.0869
   37DOPE  C313 4755   4.116   3.763  14.228  0.6285 -0.0288 -0.0810
   37DOPE  H13X 4756   4.016   3.741  14.272  1.2648 -1.9066  0.5362
   37DOPE  H13Y 4757   4.175   3.669  14.217  0.0510 -0.4927  0.6603
   37DOPE  C314 4758   4.195   3.860  14.311  0.1418 -0.4992 -0.3958
   37DOPE  H14X 4759   4.122   3.925  14.363 -0.3845 -1.7749  0.4754
   37DOPE  H14Y 4760   4.257   3.923  14.242 -0.4555 -0.2967 -0.7515
   37DOPE  C315 4761   4.272   3.798  14.437  0.4850  0.1277 -0.2080
   37DOPE  H15X 4762   4.323   3.701  14.418  0.3802  0.0762 -0.2224
   37DOPE  H15Y 4763   4.202   3.783  14.522  0.3469  0.0476 -0.3351
   37DOPE  C316 4764   4.380   3.902  14.479  0.6682  0.3170  0.4061
   37DOPE  H16X 4765   4.323   3.996  14.494 -0.0185 -0.2345  1.2977
   37DOPE  H16Y 4766   4.438   3.918  14.385 -0.6740  1.2466 -0.2913
   37DOPE  C317 4767   4.453   3.857  14.606  0.0775  0.2825 -1.0643
   37DOPE  H17X 4768   4.379   3.839  14.687  0.5538  1.0739 -0.4334
   37DOPE  H17Y 4769   4.510   3.765  14.583  2.8382  1.8206 -0.7718
   37DOPE  C318 4770   4.546   3.976  14.648  0.7107 -0.5853  0.4780
   37DOPE  H18X 4771   4.484   4.050  14.703  1.7825 -0.5905  1.7309
   37DOPE  H18Y 4772   4.634   3.952  14.712  0.3840  2.4119  2.2375
   37DOPE  H18Z 4773   4.590   4.020  14.556 -1.2113  0.5662  0.0514
   38DOPE     N 4774   6.068   6.177  12.177 -0.1091  0.1413 -0.1132
   38DOPE   HN1 4775   6.159   6.127  12.174  0.1894  0.6863 -0.2567
   38DOPE   HN2 4776   6.020   6.141  12.093  0.9647 -2.4342  0.2703
   38DOPE   HN3 4777   6.091   6.277  12.158  3.0232 -0.1952  1.2253
   38DOPE   C12 4778   5.995   6.150  12.302  0.6665  0.6291 -0.8593
   38DOPE  H12A 4779   5.885   6.155  12.294  0.2906 -2.6382  0.9622
   38DOPE  H12B 4780   6.020   6.233  12.372 -1.6317  1.0369 -0.4576
   38DOPE   C11 4781   6.040   6.015  12.347  0.5764  0.2533  0.6557
   38DOPE  H11A 4782   6.012   5.936  12.273 -0.9296 -0.2477  1.6994
   38DOPE  H11B 4783   5.992   5.984  12.442  0.0139 -0.0081  0.3005
   38DOPE     P 4784   6.263   5.943  12.473  0.1341 -0.0722  0.0956
   38DOPE   O13 4785   6.403   5.975  12.464 -0.4577  0.2190 -0.0422
   38DOPE   O14 4786   6.231   5.801  12.480 -0.4367 -0.0626 -0.2339
   38DOPE   O11 4787   6.202   6.009  12.603 -0.8652 -0.0575 -0.0642
   38DOPE   O12 4788   6.183   6.011  12.363 -0.0174 -0.4793 -0.1752
   38DOPE    C1 4789   6.099   5.950  12.684 -0.4878 -0.7421 -0.5391
   38DOPE    HA 4790   6.088   5.841  12.662  0.1738 -1.0037  0.3633
   38DOPE    HB 4791   6.003   5.999  12.659  0.9527  2.3507 -0.3969
   38DOPE    C2 4792   6.130   5.963  12.840  0.6346 -1.0260  0.8681
   38DOPE    HS 4793   6.056   5.903  12.898  0.0806 -0.4935  0.7317
   38DOPE   O21 4794   6.132   6.104  12.875 -0.0914 -0.0755  0.4971
   38DOPE   C21 4795   6.023   6.175  12.870  0.4416 -0.4158 -0.1606
   38DOPE   O22 4796   5.912   6.134  12.833 -0.4087  0.4986  0.4180
   38DOPE   C22 4797   6.055   6.322  12.901  0.8821 -0.6479 -0.1699
   38DOPE   H2R 4798   6.156   6.350  12.865  0.8319  2.2989  1.6300
   38DOPE   H2S 4799   6.047   6.324  13.012  0.2617  0.0911 -0.2133
   38DOPE    C3 4800   6.274   5.912  12.870  0.3246 -0.8541  0.0471
   38DOPE    HX 4801   6.346   5.977  12.816  1.5413 -1.1124  1.3265
   38DOPE    HY 4802   6.294   5.812  12.825  0.8032 -0.4627 -0.6255
   38DOPE   O31 4803   6.295   5.901  13.010 -0.0716 -0.3626 -0.3099
   38DOPE   C31 4804   6.316   6.018  13.076  0.6714 -0.0878 -0.1472
   38DOPE   O32 4805   6.344   6.122  13.028 -0.0794  0.1993  0.0710
   38DOPE   C32 4806   6.293   5.995  13.226 -0.2442 -0.5999 -0.2722
   38DOPE   H2X 4807   6.205   6.057  13.255  0.9325  0.5708  0.9196
   38DOPE   H2Y 4808   6.275   5.886  13.234 -0.5385 -0.6196 -1.0946
   38DOPE   C23 4809   5.951   6.416  12.834  0.9727 -0.4972  0.2678
   38DOPE   H3R 4810   5.947   6.395  12.725  1.1498 -1.2500  0.3957
   38DOPE   H3S 4811   5.990   6.519  12.842 -0.1989  0.1673 -1.9041
   38DOPE   C24 4812   5.803   6.404  12.886 -0.3624 -0.0539 -0.0812
   38DOPE   H4R 4813   5.798   6.439  12.992 -0.9358 -2.1506  0.6411
   38DOPE   H4S 4814   5.780   6.295  12.893  0.1412 -0.2660 -1.5009
   38DOPE   C25 4815   5.702   6.480  12.804  0.8869 -0.3179  0.0338
   38DOPE   H5R 4816   5.716   6.451  12.697  2.5187 -1.1652  0.4312
   38DOPE   H5S 4817   5.717   6.588  12.821 -0.0995  0.3371 -2.6912
   38DOPE   C26 4818   5.553   6.442  12.824 -0.2497  0.1509  0.1603
   38DOPE   H6R 4819   5.557   6.342  12.873 -1.3755 -0.1473 -0.3136
   38DOPE   H6S 4820   5.496   6.434  12.729  1.2393 -3.0938 -0.5785
   38DOPE   C27 4821   5.479   6.526  12.933  0.6823 -0.4050 -0.0928
   38DOPE   H7R 4822   5.539   6.536  13.026 -2.1289 -1.6951  2.0097
   38DOPE   H7S 4823   5.386   6.477  12.968 -0.9184  3.4091  1.6201
   38DOPE   C28 4824   5.411   6.658  12.884 -0.6557  0.4863  0.1535
   38DOPE   H8R 4825   5.342   6.628  12.803 -0.8384  2.6605 -0.5614
   38DOPE   H8S 4826   5.499   6.714  12.845  0.6264 -0.6564  1.2912
   38DOPE   C29 4827   5.345   6.740  12.992 -0.7820  0.7722  0.0957
   38DOPE   H9R 4828   5.292   6.676  13.065 -0.4353  0.6595  0.2530
   38DOPE  C210 4829   5.350   6.872  13.010  0.2201 -0.0696  0.2239
   38DOPE  H10R 4830   5.298   6.910  13.099  1.2187  4.0125 -0.7391
   38DOPE  C211 4831   5.429   6.968  12.925 -1.2501 -1.0883  0.2848
   38DOPE  H11R 4832   5.366   7.059  12.918 -1.4283 -1.3525 -3.1911
   38DOPE  H11S 4833   5.448   6.933  12.822  0.9224  1.3745 -0.2423
   38DOPE  C212 4834   5.557   7.031  12.985 -0.0144  0.0791 -0.1001
   38DOPE  H12R 4835   5.542   7.085  13.081  0.6670  0.6668 -0.3189
   38DOPE  H12S 4836   5.600   7.109  12.920  1.3857  0.2764  1.0159
   38DOPE  C213 4837   5.669   6.923  12.995 -0.4672 -0.1909  0.1677
   38DOPE  H13R 4838   5.667   6.877  12.894  1.3789  0.3184 -0.1288
   38DOPE  H13S 4839   5.638   6.841  13.063  2.0319 -1.1660  0.2308
   38DOPE  C214 4840   5.812   6.967  13.026 -0.6184 -0.7735  0.4723
   38DOPE  H14R 4841   5.819   7.000  13.132  0.5088 -0.1575  0.2258
   38DOPE  H14S 4842   5.837   7.051  12.958 -0.5080 -0.6476  0.6685
   38DOPE  C215 4843   5.920   6.859  12.997  0.4048 -0.0493  0.0748
   38DOPE  H15R 4844   6.020   6.899  13.025  0.1605  0.5910  0.0489
   38DOPE  H15S 4845   5.930   6.864  12.886  0.4247  1.2651  0.1099
   38DOPE  C216 4846   5.883   6.729  13.058 -0.1082  0.4660  0.2568
   38DOPE  H16R 4847   5.945   6.644  13.022 -1.8363 -0.5260 -0.4703
   38DOPE  H16S 4848   5.783   6.692  13.028  0.8395 -1.8523 -0.3080
   38DOPE  C217 4849   5.885   6.730  13.207 -0.1031  0.0266  0.0867
   38DOPE  H17R 4850   5.857   6.831  13.243 -0.6913 -0.2695  0.4747
   38DOPE  H17S 4851   5.983   6.704  13.254 -1.0520  0.2025  2.2904
   38DOPE  C218 4852   5.793   6.623  13.274  0.1128  0.5634  0.2045
   38DOPE  H18R 4853   5.789   6.657  13.380 -1.3276  2.4669 -0.4006
   38DOPE  H18S 4854   5.841   6.523  13.266  0.0260  0.5660 -0.3763
   38DOPE  H18T 4855   5.695   6.627  13.222  1.7435  1.6378 -3.0843
   38DOPE   C33 4856   6.412   6.032  13.313  1.1521 -0.0317 -0.2388
   38DOPE   H3X 4857   6.417   6.143  13.305  0.7026  0.3082  3.0132
   38DOPE   H3Y 4858   6.512   5.993  13.284  1.6496  0.3092  0.9929
   38DOPE   C34 4859   6.373   6.013  13.460  0.2813 -0.6152 -1.0328
   38DOPE   H4X 4860   6.291   6.084  13.485  0.5049 -0.0414 -1.8921
   38DOPE   H4Y 4861   6.338   5.907  13.467  0.8983 -0.7691 -0.0082
   38DOPE   C35 4862   6.488   6.040  13.557 -0.4370 -0.0185  0.5194
   38DOPE   H5X 4863   6.509   6.149  13.544 -0.6757 -0.1865 -1.6616
   38DOPE   H5Y 4864   6.572   5.970  13.539  0.2648  0.7468  0.7457
   38DOPE   C36 4865   6.448   6.008  13.702  0.1764 -0.5040  0.0480
   38DOPE   H6X 4866   6.344   6.041  13.719 -0.2438 -1.9291  0.4225
   38DOPE   H6Y 4867   6.513   6.054  13.779  0.2862  0.4139 -0.5828
   38DOPE   C37 4868   6.458   5.853  13.719  0.3040 -0.2306 -0.3460
   38DOPE   H7X 4869   6.411   5.793  13.638  1.6761 -0.6511 -0.8639
   38DOPE   H7Y 4870   6.565   5.825  13.705  0.4654  0.8257 -1.4236
   38DOPE   C38 4871   6.401   5.809  13.857 -0.7353 -0.7558 -1.0952
   38DOPE   H8X 4872   6.305   5.862  13.876 -0.4479  0.9457 -3.9303
   38DOPE   H8Y 4873   6.473   5.830  13.939 -0.3489  1.6402 -1.9608
   38DOPE   C39 4874   6.370   5.658  13.856  0.3653 -0.3762  0.1513
   38DOPE   H9X 4875   6.454   5.602  13.813 -0.9274 -0.3577 -2.5486
   38DOPE  C310 4876   6.254   5.592  13.865  0.0792  0.9032 -0.5679
   38DOPE  H10X 4877   6.257   5.486  13.838 -0.7741  0.5922  0.5122
   38DOPE  C311 4878   6.119   5.655  13.892  0.0040  0.4168 -0.4425
   38DOPE  H11X 4879   6.076   5.590  13.971  0.1381  1.4643  0.5156
   38DOPE  H11Y 4880   6.121   5.759  13.932 -0.2449 -0.2295  1.3563
   38DOPE  C312 4881   6.043   5.635  13.764  0.2054 -0.5072  0.8004
   38DOPE  H12X 4882   5.945   5.681  13.790  0.4745 -0.7770  2.3650
   38DOPE  H12Y 4883   6.026   5.529  13.737  1.3066 -0.4318 -0.3259
   38DOPE  C313 4884   6.094   5.722  13.637  0.8657 -0.6741 -0.2456
   38DOPE  H13X 4885   6.125   5.823  13.669 -1.5501 -0.3860  1.3863
   38DOPE  H13Y 4886   6.183   5.664  13.603  0.3977 -1.4445 -0.1936
   38DOPE  C314 4887   6.000   5.729  13.518  0.4045 -0.0378 -0.4058
   38DOPE  H14X 4888   5.896   5.758  13.546 -0.0801 -0.7446 -1.4056
   38DOPE  H14Y 4889   5.992   5.628  13.473 -1.0207 -0.5345  0.8809
   38DOPE  C315 4890   6.039   5.827  13.404 -0.0025  0.2179  0.4677
   38DOPE  H15X 4891   6.136   5.791  13.365 -0.1530  1.2767 -0.9653
   38DOPE  H15Y 4892   6.048   5.934  13.432  1.1902  0.7255 -1.6482
   38DOPE  C316 4893   5.935   5.804  13.294 -0.3004  0.2133 -0.4709
   38DOPE  H16X 4894   5.831   5.820  13.329 -0.0147  0.8136  0.1481
   38DOPE  H16Y 4895   5.937   5.697  13.265 -2.0095  0.3332 -1.1351
   38DOPE  C317 4896   5.954   5.895  13.179 -0.4634 -0.5143  0.5229
   38DOPE  H17X 4897   5.976   6.001  13.207  0.4296 -0.5288 -0.0704
   38DOPE  H17Y 4898   6.044   5.868  13.120 -1.4836 -0.5222 -1.0977
   38DOPE  C318 4899   5.834   5.894  13.079  0.6317 -0.3323 -0.3909
   38DOPE  H18X 4900   5.841   5.814  13.002 -1.2548  0.3093 -1.2928
   38DOPE  H18Y 4901   5.744   5.881  13.142  1.6663 -1.0823  0.9884
   38DOPE  H18Z 4902   5.828   5.985  13.015 -1.1531 -1.0210 -1.2923
   39DOPE     N 4903   2.789   5.237  12.316  0.3619 -0.1739 -0.0711
   39DOPE   HN1 4904   2.867   5.286  12.269  0.1816 -1.1346 -1.4298
   39DOPE   HN2 4905   2.762   5.161  12.250 -3.1221  0.1163  0.7811
   39DOPE   HN3 4906   2.711   5.307  12.314  0.7817  0.3077  0.0670
   39DOPE   C12 4907   2.820   5.205  12.456  0.1883  0.3233  0.2159
   39DOPE  H12A 4908   2.749   5.132  12.499  0.0612  0.7400  0.7310
   39DOPE  H12B 4909   2.807   5.295  12.520 -3.0162 -1.3978  2.2668
   39DOPE   C11 4910   2.963   5.151  12.469 -0.3693 -0.0445 -0.1861
   39DOPE  H11A 4911   2.971   5.074  12.390 -1.2080 -0.2397 -0.0919
   39DOPE  H11B 4912   2.986   5.111  12.570  1.8567  1.1538 -0.1518
   39DOPE     P 4913   3.212   5.227  12.493 -0.1314 -0.0132 -0.3077
   39DOPE   O13 4914   3.305   5.334  12.444  0.1900  0.1668 -0.2023
   39DOPE   O14 4915   3.249   5.092  12.442  0.4447  0.5409  0.6604
   39DOPE   O11 4916   3.195   5.227  12.642  0.0178 -0.3631 -0.5452
   39DOPE   O12 4917   3.061   5.253  12.435 -0.1003 -0.3082 -0.0381
   39DOPE    C1 4918   3.114   5.331  12.707 -0.3242 -0.2419 -0.8548
   39DOPE    HA 4919   3.010   5.336  12.668 -1.6846  2.7162  2.6208
   39DOPE    HB 4920   3.164   5.430  12.707  3.2575 -1.8386  1.6269
   39DOPE    C2 4921   3.092   5.294  12.855  0.6631 -0.0220 -0.6903
   39DOPE    HS 4922   3.028   5.370  12.905  1.7104  0.0225  0.6467
   39DOPE   O21 4923   3.216   5.276  12.930 -0.5141 -0.4321  0.7656
   39DOPE   C21 4924   3.215   5.285  13.059  0.9555 -0.4495 -0.0716
   39DOPE   O22 4925   3.116   5.331  13.122 -0.2598  0.5784 -0.1842
   39DOPE   C22 4926   3.339   5.225  13.121 -0.3208  0.4651  0.0912
   39DOPE   H2R 4927   3.402   5.315  13.129 -0.5874  0.6128  0.5589
   39DOPE   H2S 4928   3.376   5.149  13.049 -0.0724 -0.6926  1.3875
   39DOPE    C3 4929   3.013   5.161  12.853  0.0337  0.4212 -0.4702
   39DOPE    HX 4930   3.086   5.079  12.834 -0.0131  0.2662  0.0199
   39DOPE    HY 4931   2.943   5.165  12.766 -0.7581  0.5722  0.1635
   39DOPE   O31 4932   2.937   5.151  12.971  0.4893  0.8516 -0.3361
   39DOPE   C31 4933   2.878   5.032  12.989 -0.1041 -0.4833 -0.0579
   39DOPE   O32 4934   2.878   4.936  12.912 -0.3539 -0.1012 -0.2948
   39DOPE   C32 4935   2.796   5.038  13.110 -0.9869 -0.0513 -0.3392
   39DOPE   H2X 4936   2.877   5.050  13.186  0.3417 -0.3078 -1.6576
   39DOPE   H2Y 4937   2.721   5.119  13.107 -0.4254  0.4497 -2.0054
   39DOPE   C23 4938   3.308   5.158  13.253  1.0218 -0.5234  0.3220
   39DOPE   H3R 4939   3.371   5.067  13.260  2.3102  0.2810 -0.3705
   39DOPE   H3S 4940   3.202   5.126  13.260  1.6035 -2.6122  0.2448
   39DOPE   C24 4941   3.341   5.249  13.370  0.0529 -0.2715  0.0038
   39DOPE   H4R 4942   3.289   5.345  13.349 -1.2718 -0.8365  0.5787
   39DOPE   H4S 4943   3.451   5.260  13.382  0.0237  0.0593 -0.0157
   39DOPE   C25 4944   3.283   5.193  13.495 -0.6711 -0.0206 -0.0886
   39DOPE   H5R 4945   3.313   5.089  13.519  0.9482  0.2259 -0.8718
   39DOPE   H5S 4946   3.173   5.191  13.481 -0.7824 -0.1427  0.7821
   39DOPE   C26 4947   3.315   5.286  13.615 -0.2227  0.0889  0.1657
   39DOPE   H6R 4948   3.299   5.393  13.588  0.2714 -0.1232 -1.0500
   39DOPE   H6S 4949   3.424   5.283  13.635 -0.0705  1.6532 -0.3029
   39DOPE   C27 4950   3.238   5.267  13.741 -1.0585  0.3899  0.2951
   39DOPE   H7R 4951   3.301   5.308  13.823 -1.1485  2.6927 -0.7045
   39DOPE   H7S 4952   3.227   5.159  13.767 -0.3920 -0.4586 -2.5790
   39DOPE   C28 4953   3.106   5.339  13.736 -0.2428  0.1877  0.5934
   39DOPE   H8R 4954   3.049   5.299  13.649 -0.8006  0.0078  1.0363
   39DOPE   H8S 4955   3.135   5.443  13.713  0.5357  0.6001  3.1887
   39DOPE   C29 4956   3.036   5.324  13.869  0.4440 -0.3237 -0.0721
   39DOPE   H9R 4957   3.091   5.260  13.939  0.3709 -0.4718 -0.1460
   39DOPE  C210 4958   2.918   5.373  13.912 -0.0226 -0.4199  0.2443
   39DOPE  H10R 4959   2.888   5.349  14.015  0.7364  2.1378  1.1327
   39DOPE  C211 4960   2.826   5.460  13.828 -0.7513  0.2140 -0.6768
   39DOPE  H11R 4961   2.737   5.402  13.798 -1.7829  0.8360  1.0177
   39DOPE  H11S 4962   2.876   5.482  13.731 -0.8278 -0.0689 -0.7806
   39DOPE  C212 4963   2.799   5.605  13.887  0.4287  0.2649 -0.0071
   39DOPE  H12R 4964   2.767   5.598  13.993 -1.4579  4.2904 -0.1039
   39DOPE  H12S 4965   2.715   5.653  13.832  0.3406 -0.1780 -0.2601
   39DOPE  C213 4966   2.926   5.688  13.867 -0.4107 -0.6249 -0.6780
   39DOPE  H13R 4967   2.953   5.692  13.759  0.1738  3.6317 -0.5395
   39DOPE  H13S 4968   3.002   5.637  13.931 -1.3686 -0.8525  0.3041
   39DOPE  C214 4969   2.907   5.834  13.918  0.0149 -0.4664 -0.4525
   39DOPE  H14R 4970   2.883   5.834  14.027 -0.1040  1.7732 -0.4418
   39DOPE  H14S 4971   2.828   5.883  13.859  0.5884 -0.3821 -1.1629
   39DOPE  C215 4972   3.028   5.928  13.896 -0.7934  0.1070  0.0716
   39DOPE  H15R 4973   3.002   6.036  13.892  0.3996  0.3798 -2.3097
   39DOPE  H15S 4974   3.069   5.910  13.795  0.8508  1.0464  0.5293
   39DOPE  C216 4975   3.158   5.903  13.985  0.9829 -0.2519 -0.2194
   39DOPE  H16R 4976   3.190   5.796  13.987  1.9391  0.0383  1.0556
   39DOPE  H16S 4977   3.131   5.913  14.092 -0.1648  0.0205 -0.5212
   39DOPE  C217 4978   3.279   5.985  13.953 -1.0829  0.1625 -0.1023
   39DOPE  H17R 4979   3.254   6.093  13.958 -3.5102 -0.3704  0.5799
   39DOPE  H17S 4980   3.325   5.965  13.853 -0.0653 -0.0313  0.3942
   39DOPE  C218 4981   3.391   5.966  14.057  0.3366  0.7440  0.1709
   39DOPE  H18R 4982   3.347   5.976  14.159  1.1857 -2.0777  0.8753
   39DOPE  H18S 4983   3.464   6.046  14.031  1.9318 -1.1547 -1.4309
   39DOPE  H18T 4984   3.430   5.864  14.039  2.1926  1.2360  1.2274
   39DOPE   C33 4985   2.732   4.900  13.142 -0.2879  0.0366  0.0883
   39DOPE   H3X 4986   2.817   4.828  13.143 -0.9680 -0.7984 -0.3670
   39DOPE   H3Y 4987   2.659   4.885  13.060 -0.4413 -3.7602  0.7227
   39DOPE   C34 4988   2.657   4.892  13.268 -0.4657 -0.7114 -1.5443
   39DOPE   H4X 4989   2.719   4.912  13.358 -0.6321 -1.1166 -1.3331
   39DOPE   H4Y 4990   2.577   4.968  13.280 -1.0990 -1.4792 -0.7362
   39DOPE   C35 4991   2.604   4.751  13.303 -0.0634 -0.0106  0.1140
   39DOPE   H5X 4992   2.681   4.672  13.285  0.2506 -0.3601  2.5905
   39DOPE   H5Y 4993   2.523   4.741  13.228  0.6787  0.2265 -0.7371
   39DOPE   C36 4994   2.539   4.733  13.444 -0.5205  0.1405  0.6460
   39DOPE   H6X 4995   2.482   4.826  13.461 -2.2314 -0.9977  1.3721
   39DOPE   H6Y 4996   2.617   4.738  13.523 -0.0802 -0.3414  0.2611
   39DOPE   C37 4997   2.455   4.608  13.449 -0.5085 -1.0807  0.0111
   39DOPE   H7X 4998   2.364   4.633  13.390  0.1045 -0.9972 -0.9121
   39DOPE   H7Y 4999   2.515   4.537  13.388  1.3014  0.6261 -0.3209
   39DOPE   C38 5000   2.420   4.547  13.586 -0.6225 -0.1895 -0.3523
   39DOPE   H8X 5001   2.354   4.618  13.640  0.8957  0.4282  0.7942
   39DOPE   H8Y 5002   2.513   4.546  13.648 -1.9751  2.0407  1.9162
   39DOPE   C39 5003   2.361   4.414  13.566 -0.2467  0.1861 -0.7447
   39DOPE   H9X 5004   2.336   4.376  13.466  0.4966  0.3744 -1.0071
   39DOPE  C310 5005   2.332   4.334  13.674 -0.0298  0.3114  0.3627
   39DOPE  H10X 5006   2.296   4.232  13.653  1.0233  0.2592 -1.4446
   39DOPE  C311 5007   2.351   4.372  13.816  0.4184  0.4271  0.1794
   39DOPE  H11X 5008   2.395   4.291  13.878 -1.1920  0.1928  1.0744
   39DOPE  H11Y 5009   2.416   4.461  13.826  0.2806  0.5471  0.0130
   39DOPE  C312 5010   2.218   4.406  13.885 -0.2487  0.0756  0.0074
   39DOPE  H12X 5011   2.156   4.314  13.873 -0.6907  0.5493 -1.6602
   39DOPE  H12Y 5012   2.153   4.486  13.844 -0.0943 -0.4466 -1.3141
   39DOPE  C313 5013   2.230   4.407  14.036  0.2700  0.6145 -0.3845
   39DOPE  H13X 5014   2.278   4.313  14.070 -2.6381 -0.2198  1.7317
   39DOPE  H13Y 5015   2.294   4.490  14.073 -0.0223  0.6932 -0.0566
   39DOPE  C314 5016   2.096   4.397  14.110 -0.0485 -0.1766 -0.7352
   39DOPE  H14X 5017   2.044   4.301  14.086 -0.3801  0.5972 -3.4923
   39DOPE  H14Y 5018   2.029   4.483  14.092  0.5088  0.6776  1.0657
   39DOPE  C315 5019   2.131   4.389  14.257 -0.2686 -0.3954  0.3174
   39DOPE  H15X 5020   2.182   4.482  14.289 -1.9192  0.4539  0.5277
   39DOPE  H15Y 5021   2.179   4.294  14.291 -2.8363 -1.4402  1.2730
   39DOPE  C316 5022   2.000   4.385  14.333  0.4036 -0.4871  0.4656
   39DOPE  H16X 5023   1.929   4.307  14.297 -0.6404  0.4987  0.3136
   39DOPE  H16Y 5024   1.940   4.475  14.309 -0.7294 -0.5253  2.8312
   39DOPE  C317 5025   2.002   4.372  14.487 -0.0253  1.2511 -0.8324
   39DOPE  H17X 5026   2.049   4.457  14.542 -1.0993 -0.2558  2.6149
   39DOPE  H17Y 5027   1.894   4.370  14.511  0.3726 -0.3645  1.0686
   39DOPE  C318 5028   2.064   4.243  14.536  0.5174 -0.0276  0.5564
   39DOPE  H18X 5029   2.174   4.230  14.526  0.3079 -2.2443  0.6547
   39DOPE  H18Y 5030   2.047   4.238  14.645  3.2723 -1.1037  1.0127
   39DOPE  H18Z 5031   2.015   4.155  14.489  0.9275 -0.3550  0.7447
   40DOPE     N 5032   3.544   5.453  12.421  0.6369 -0.4143 -0.0682
   40DOPE   HN1 5033   3.598   5.403  12.494  0.2768 -0.8835 -0.1210
   40DOPE   HN2 5034   3.521   5.545  12.465  0.3884 -0.1322 -0.7692
   40DOPE   HN3 5035   3.454   5.405  12.402 -0.3660  0.9714  0.9509
   40DOPE   C12 5036   3.619   5.455  12.291  0.4721 -0.5264 -0.0676
   40DOPE  H12A 5037   3.552   5.499  12.213 -0.3237 -0.4092  0.6688
   40DOPE  H12B 5038   3.647   5.351  12.264  2.2764 -0.5921  1.8317
   40DOPE   C11 5039   3.745   5.548  12.304  0.5435  0.3613 -0.3411
   40DOPE  H11A 5040   3.705   5.651  12.292 -1.3670 -0.3512 -0.4608
   40DOPE  H11B 5041   3.809   5.529  12.215  1.7009  1.3902  0.2250
   40DOPE     P 5042   3.867   5.644  12.512  0.0247 -0.3631  0.1376
   40DOPE   O13 5043   4.006   5.618  12.567  0.3831  0.5985 -0.6094
   40DOPE   O14 5044   3.756   5.679  12.599  0.1316 -0.4078 -0.3139
   40DOPE   O11 5045   3.887   5.764  12.407  0.0721 -0.3980  0.1168
   40DOPE   O12 5046   3.822   5.520  12.425  0.5270 -0.0576 -0.2338
   40DOPE    C1 5047   3.845   5.897  12.438 -0.1931 -0.4010 -0.1740
   40DOPE    HA 5048   3.760   5.907  12.509  1.1160  2.4295  1.1847
   40DOPE    HB 5049   3.824   5.957  12.347 -2.4163  0.8575  1.0727
   40DOPE    C2 5050   3.958   5.982  12.500  0.3411  0.4094  0.5893
   40DOPE    HS 5051   4.036   5.995  12.423 -0.2006 -1.0408 -0.2346
   40DOPE   O21 5052   4.013   5.930  12.621 -0.1314  0.3717  0.0325
   40DOPE   C21 5053   4.141   5.968  12.648 -0.6252 -0.0727 -0.5910
   40DOPE   O22 5054   4.222   6.005  12.562 -0.0893  0.0590 -0.0365
   40DOPE   C22 5055   4.165   5.939  12.802  0.1844 -0.6248  0.2048
   40DOPE   H2R 5056   4.248   5.865  12.800  0.3577 -0.4721  1.1575
   40DOPE   H2S 5057   4.075   5.894  12.848  0.3389  0.6346  1.8378
   40DOPE    C3 5058   3.907   6.126  12.523 -0.0753 -0.2959 -0.4826
   40DOPE    HX 5059   3.824   6.115  12.597  0.3882  2.1345  0.5332
   40DOPE    HY 5060   3.860   6.163  12.430  1.6388  0.3866 -1.1190
   40DOPE   O31 5061   4.019   6.214  12.571  0.3406 -0.1523 -0.6042
   40DOPE   C31 5062   3.966   6.328  12.613 -0.3510 -0.0555  0.2599
   40DOPE   O32 5063   3.848   6.354  12.605  0.4810  0.0362 -0.3048
   40DOPE   C32 5064   4.076   6.400  12.687  0.0764  0.3307 -0.4272
   40DOPE   H2X 5065   4.124   6.332  12.760  1.3074 -0.8321 -2.2190
   40DOPE   H2Y 5066   4.150   6.443  12.615  0.7641  2.4965  1.4435
   40DOPE   C23 5067   4.206   6.057  12.882  0.6366 -0.4450 -0.4820
   40DOPE   H3R 5068   4.185   6.030  12.988 -0.2208 -0.5419 -0.6776
   40DOPE   H3S 5069   4.135   6.139  12.862 -0.1607 -1.1985 -0.8040
   40DOPE   C24 5070   4.350   6.105  12.862 -0.0959 -1.3818 -0.3507
   40DOPE   H4R 5071   4.373   6.122  12.755 -1.3914 -0.5529 -0.5144
   40DOPE   H4S 5072   4.414   6.017  12.889  1.6755  0.4431  1.8353
   40DOPE   C25 5073   4.384   6.234  12.940  0.8036 -0.1295  0.4031
   40DOPE   H5R 5074   4.317   6.242  13.028 -0.0381  0.1469 -0.2485
   40DOPE   H5S 5075   4.348   6.319  12.878  1.1127  0.9810  1.6847
   40DOPE   C26 5076   4.537   6.247  12.973 -0.4114 -0.0364  0.1999
   40DOPE   H6R 5077   4.585   6.228  12.875 -1.0417 -2.3158  0.2781
   40DOPE   H6S 5078   4.563   6.173  13.051  0.0177  1.9519  2.0522
   40DOPE   C27 5079   4.571   6.381  13.041 -0.2038 -0.6583 -0.1219
   40DOPE   H7R 5080   4.682   6.387  13.048 -0.2813  0.3610  0.3437
   40DOPE   H7S 5081   4.516   6.373  13.137 -1.8662  1.7967 -0.7839
   40DOPE   C28 5082   4.521   6.504  12.969 -0.3062 -0.2415  0.2272
   40DOPE   H8R 5083   4.414   6.522  12.991 -0.2030  1.5871 -0.6011
   40DOPE   H8S 5084   4.536   6.487  12.860  1.8413  2.0927  0.0733
   40DOPE   C29 5085   4.576   6.648  12.991 -0.0920  0.0725 -0.4610
   40DOPE   H9R 5086   4.634   6.698  12.913  1.1487  3.7645  2.5182
   40DOPE  C210 5087   4.565   6.708  13.107  0.6302  0.3017  0.3671
   40DOPE  H10R 5088   4.606   6.810  13.113  1.5279  0.0485 -0.9589
   40DOPE  C211 5089   4.479   6.680  13.231 -0.0215  0.1860  0.1158
   40DOPE  H11R 5090   4.394   6.612  13.213  0.0585 -0.2944  1.4752
   40DOPE  H11S 5091   4.431   6.776  13.262  1.5327  1.0915 -0.1672
   40DOPE  C212 5092   4.569   6.621  13.335  0.1667  0.0226 -0.0127
   40DOPE  H12R 5093   4.636   6.698  13.380  0.4943 -0.0488 -0.3756
   40DOPE  H12S 5094   4.639   6.548  13.290 -0.1124 -2.7630  3.5911
   40DOPE  C213 5095   4.482   6.538  13.440 -0.5176  0.0194  0.9261
   40DOPE  H13R 5096   4.547   6.496  13.520 -0.2389  1.0442  1.2512
   40DOPE  H13S 5097   4.433   6.455  13.384  0.3587 -0.0123  0.1904
   40DOPE  C214 5098   4.369   6.626  13.503 -0.6511 -0.7301  0.1376
   40DOPE  H14R 5099   4.286   6.638  13.430  0.4911  1.5499 -0.9069
   40DOPE  H14S 5100   4.415   6.727  13.516  0.4739 -1.4179  1.8220
   40DOPE  C215 5101   4.321   6.571  13.637 -0.0709 -0.1203  0.7442
   40DOPE  H15R 5102   4.400   6.540  13.708 -0.3462  2.2191  2.1659
   40DOPE  H15S 5103   4.268   6.477  13.610 -0.2453 -0.1530  1.1867
   40DOPE  C216 5104   4.210   6.663  13.693 -0.5000 -0.2416  0.5766
   40DOPE  H16R 5105   4.121   6.663  13.627 -0.3845 -0.9985  0.4160
   40DOPE  H16S 5106   4.235   6.771  13.695  0.2454 -0.3832 -0.4316
   40DOPE  C217 5107   4.155   6.611  13.823 -0.4057  0.5575 -0.3909
   40DOPE  H17R 5108   4.172   6.501  13.832  0.5903  0.8395  1.5010
   40DOPE  H17S 5109   4.047   6.629  13.836 -0.3990 -0.7191  1.9480
   40DOPE  C218 5110   4.226   6.685  13.936  0.2421  0.2505 -0.0132
   40DOPE  H18R 5111   4.337   6.683  13.931  0.4682 -0.7247  3.1642
   40DOPE  H18S 5112   4.198   6.644  14.035 -0.2375  0.3939 -0.0897
   40DOPE  H18T 5113   4.203   6.793  13.939 -0.5185  0.1029 -0.2681
   40DOPE   C33 5114   4.028   6.533  12.764 -0.5826 -0.5959 -0.2665
   40DOPE   H3X 5115   3.946   6.491  12.826 -2.1897  1.6573 -0.7157
   40DOPE   H3Y 5116   3.983   6.588  12.678  1.6098  0.4430 -0.8171
   40DOPE   C34 5117   4.137   6.610  12.846 -0.1639  0.2137  0.3771
   40DOPE   H4X 5118   4.191   6.537  12.911  1.7240  0.7573 -0.5058
   40DOPE   H4Y 5119   4.214   6.650  12.777 -1.7790  0.8148 -1.1199
   40DOPE   C35 5120   4.085   6.716  12.944 -0.5007 -0.1163  0.6983
   40DOPE   H5X 5121   4.180   6.763  12.979 -0.3574  0.5092 -0.4900
   40DOPE   H5Y 5122   4.038   6.675  13.036 -0.4693 -2.0123 -0.0842
   40DOPE   C36 5123   4.001   6.824  12.882 -0.1348 -0.1664  0.1002
   40DOPE   H6X 5124   3.914   6.784  12.825  0.2496  0.9244 -1.2984
   40DOPE   H6Y 5125   4.050   6.890  12.808  0.6458  0.4147  1.1155
   40DOPE   C37 5126   3.937   6.919  12.988  0.4953  0.8391 -0.3424
   40DOPE   H7X 5127   3.857   6.864  13.043  0.2039 -0.3969 -1.9382
   40DOPE   H7Y 5128   4.004   6.964  13.064 -0.5128 -0.4796  1.4108
   40DOPE   C38 5129   3.865   7.034  12.907 -0.1032 -0.3809 -1.1946
   40DOPE   H8X 5130   3.933   7.060  12.824 -1.1637 -1.7713 -2.5514
   40DOPE   H8Y 5131   3.865   7.119  12.979 -0.3962 -0.6201 -0.9098
   40DOPE   C39 5132   3.720   6.995  12.869  0.2437  0.4248  0.0692
   40DOPE   H9X 5133   3.708   6.938  12.776  1.6011  0.4167 -0.1121
   40DOPE  C310 5134   3.606   7.034  12.932 -0.9888  0.3184  0.2312
   40DOPE  H10X 5135   3.512   6.995  12.890  0.3394 -0.7680 -1.9325
   40DOPE  C311 5136   3.595   7.107  13.067  0.3379  0.0982  0.5685
   40DOPE  H11X 5137   3.696   7.121  13.111  0.4367 -0.3920  0.5047
   40DOPE  H11Y 5138   3.548   7.207  13.065 -1.3696 -0.6791 -1.0752
   40DOPE  C312 5139   3.507   7.034  13.167  0.3196  0.1535  0.4471
   40DOPE  H12X 5140   3.409   7.012  13.120  0.3087  2.4731 -0.7906
   40DOPE  H12Y 5141   3.481   7.100  13.253  1.5773  1.6466 -0.2480
   40DOPE  C313 5142   3.581   6.906  13.223 -0.2528  0.4871 -0.2239
   40DOPE  H13X 5143   3.614   6.836  13.144 -0.0304  0.6303 -0.2565
   40DOPE  H13Y 5144   3.678   6.936  13.270  0.4257 -0.7751 -0.7854
   40DOPE  C314 5145   3.483   6.836  13.325 -0.2374  0.5388  0.5655
   40DOPE  H14X 5146   3.391   6.796  13.277 -0.3518  0.3198  0.9626
   40DOPE  H14Y 5147   3.457   6.914  13.398  2.4389  2.3387 -0.2483
   40DOPE  C315 5148   3.544   6.717  13.404  0.5547 -1.0210  0.0908
   40DOPE  H15X 5149   3.649   6.739  13.433  0.3071 -0.9330  0.9434
   40DOPE  H15Y 5150   3.548   6.626  13.339  1.8678 -0.9304  0.0146
   40DOPE  C316 5151   3.486   6.678  13.540 -0.3225  0.3667  0.3506
   40DOPE  H16X 5152   3.486   6.756  13.619 -0.1473  1.5521 -0.7849
   40DOPE  H16Y 5153   3.552   6.601  13.586  0.9094  0.4166 -1.2640
   40DOPE  C317 5154   3.339   6.628  13.532  0.1616 -0.1750 -0.1272
   40DOPE  H17X 5155   3.269   6.711  13.512  0.8989  0.8766  1.3730
   40DOPE  H17Y 5156   3.327   6.551  13.454  1.2193  0.0773 -0.5573
   40DOPE  C318 5157   3.300   6.571  13.675 -0.3446  0.1781  0.8930
   40DOPE  H18X 5158   3.360   6.481  13.698  2.0291  1.0417 -1.3112
   40DOPE  H18Y 5159   3.310   6.649  13.754  0.6730  0.8472  0.1410
   40DOPE  H18Z 5160   3.192   6.554  13.688 -0.3547  0.3957  1.0975
   41DOPE     N 5161   2.679   6.738  12.291  0.8695 -0.5102  0.6441
   41DOPE   HN1 5162   2.581   6.741  12.258  1.4031  1.2445 -0.9878
   41DOPE   HN2 5163   2.705   6.838  12.284  0.2828 -0.4593 -1.7350
   41DOPE   HN3 5164   2.733   6.674  12.228 -1.2444 -2.0653  0.3229
   41DOPE   C12 5165   2.674   6.682  12.424 -0.1324 -0.3501 -0.6386
   41DOPE  H12A 5166   2.582   6.620  12.438  1.1091 -2.1871 -0.1735
   41DOPE  H12B 5167   2.675   6.769  12.493  0.8042  0.2747 -1.4196
   41DOPE   C11 5168   2.798   6.589  12.447  0.5857  0.1296 -0.4970
   41DOPE  H11A 5169   2.792   6.554  12.553  1.3811 -0.4486 -0.6253
   41DOPE  H11B 5170   2.888   6.654  12.439  1.2930 -0.3346  2.4823
   41DOPE     P 5171   2.716   6.354  12.356  0.3088 -0.2762 -0.0136
   41DOPE   O13 5172   2.759   6.261  12.249 -0.1867  0.2994 -0.6169
   41DOPE   O14 5173   2.580   6.399  12.346 -0.2986  0.0493  0.0375
   41DOPE   O11 5174   2.741   6.291  12.498 -0.3075  0.1661  0.4921
   41DOPE   O12 5175   2.808   6.485  12.346 -0.4302  0.2380  0.0475
   41DOPE    C1 5176   2.876   6.292  12.553  0.4000  0.0502 -0.0069
   41DOPE    HA 5177   2.884   6.356  12.644 -0.2777  1.3926 -0.8648
   41DOPE    HB 5178   2.949   6.332  12.479 -1.8031 -1.0908 -2.9896
   41DOPE    C2 5179   2.911   6.151  12.599 -0.4485  0.6082  0.2066
   41DOPE    HS 5180   2.908   6.083  12.512 -1.0871 -0.6351  1.1547
   41DOPE   O21 5181   2.821   6.115  12.706  0.0828  0.1035  0.0336
   41DOPE   C21 5182   2.729   6.028  12.669  0.2906  0.1461  0.5200
   41DOPE   O22 5183   2.706   5.991  12.555 -0.8784 -0.4088  0.9664
   41DOPE   C22 5184   2.651   5.981  12.796 -0.2148 -0.5321 -0.1207
   41DOPE   H2R 5185   2.684   6.044  12.881 -0.0127  1.4774 -1.6275
   41DOPE   H2S 5186   2.699   5.884  12.823  1.3029 -0.1437 -1.2497
   41DOPE    C3 5187   3.056   6.143  12.640 -0.0460 -0.2062  0.0042
   41DOPE    HX 5188   3.075   6.230  12.706 -1.6172 -0.6291  1.0771
   41DOPE    HY 5189   3.120   6.160  12.551 -0.2610 -1.7254 -0.4735
   41DOPE   O31 5190   3.080   6.020  12.703 -0.4379 -0.0399 -0.0292
   41DOPE   C31 5191   3.196   6.007  12.768 -0.3217 -0.9485  0.1399
   41DOPE   O32 5192   3.293   6.084  12.754  0.0675  0.0053  0.7090
   41DOPE   C32 5193   3.193   5.887  12.857  0.0673 -0.3790  0.3412
   41DOPE   H2X 5194   3.122   5.911  12.939  0.2442 -2.3123  1.1059
   41DOPE   H2Y 5195   3.155   5.803  12.795 -0.2224  0.7352 -1.0487
   41DOPE   C23 5196   2.496   5.985  12.778  0.2572  0.9240 -0.2006
   41DOPE   H3R 5197   2.458   5.970  12.675 -0.3566  0.4832  0.0833
   41DOPE   H3S 5198   2.465   6.087  12.807  1.6759  0.8698  1.6708
   41DOPE   C24 5199   2.424   5.888  12.881 -0.9130  0.2675  0.0023
   41DOPE   H4R 5200   2.459   5.783  12.875 -3.0886 -0.6489  1.7106
   41DOPE   H4S 5201   2.315   5.878  12.859 -0.6351  0.7456 -1.6698
   41DOPE   C25 5202   2.443   5.923  13.026 -0.0685  0.6573  0.2471
   41DOPE   H5R 5203   2.349   5.962  13.071  0.5786  2.7539 -0.0815
   41DOPE   H5S 5204   2.524   5.999  13.038 -0.3809  1.1851 -0.9191
   41DOPE   C26 5205   2.494   5.797  13.111 -0.2226  0.1440 -0.4279
   41DOPE   H6R 5206   2.504   5.843  13.211 -1.8840  0.8050 -0.5325
   41DOPE   H6S 5207   2.594   5.765  13.074 -0.4862 -1.8218  0.4353
   41DOPE   C27 5208   2.394   5.680  13.112 -0.3915  0.0265 -0.0345
   41DOPE   H7R 5209   2.447   5.590  13.148  1.3822 -0.2843 -3.0261
   41DOPE   H7S 5210   2.357   5.648  13.012 -0.0853 -0.7460  0.0914
   41DOPE   C28 5211   2.275   5.708  13.200  0.1771 -0.3398 -0.8332
   41DOPE   H8R 5212   2.192   5.749  13.139 -0.1587  1.2241  0.6151
   41DOPE   H8S 5213   2.296   5.778  13.283  0.7717 -0.6994 -0.6700
   41DOPE   C29 5214   2.203   5.583  13.251  0.4426  0.4672 -0.0722
   41DOPE   H9R 5215   2.135   5.555  13.169 -0.1858 -0.3901  0.7191
   41DOPE  C210 5216   2.193   5.537  13.372  0.0534 -0.1297 -0.2333
   41DOPE  H10R 5217   2.142   5.443  13.399  0.7264 -0.1790  0.9525
   41DOPE  C211 5218   2.255   5.593  13.495  0.2977 -0.7448 -0.2672
   41DOPE  H11R 5219   2.179   5.644  13.557 -1.7589 -1.4505 -2.1019
   41DOPE  H11S 5220   2.330   5.672  13.472 -0.0894 -0.6442 -1.2477
   41DOPE  C212 5221   2.298   5.470  13.589  0.0208  0.1773 -0.0488
   41DOPE  H12R 5222   2.207   5.409  13.607  0.3735 -0.6742 -1.0545
   41DOPE  H12S 5223   2.320   5.514  13.689 -0.2105 -2.2530  1.1572
   41DOPE  C213 5224   2.412   5.382  13.544 -0.3614  0.0450 -0.0246
   41DOPE  H13R 5225   2.490   5.458  13.520  0.1955 -0.0541  1.3632
   41DOPE  H13S 5226   2.392   5.318  13.456  1.3423 -2.3015  1.1855
   41DOPE  C214 5227   2.459   5.281  13.653  0.5263  0.3771 -0.2110
   41DOPE  H14R 5228   2.378   5.206  13.670  0.2572  1.1976  2.8271
   41DOPE  H14S 5229   2.472   5.338  13.748  0.0178  1.1678 -0.6040
   41DOPE  C215 5230   2.591   5.217  13.623 -0.3005 -0.3746  0.0938
   41DOPE  H15R 5231   2.650   5.309  13.604 -2.3162  0.7763 -0.9174
   41DOPE  H15S 5232   2.576   5.157  13.531 -1.3024 -0.4966  0.3249
   41DOPE  C216 5233   2.637   5.124  13.735 -0.6670  0.0871 -0.0298
   41DOPE  H16R 5234   2.584   5.133  13.832 -0.9626 -2.6916  0.1462
   41DOPE  H16S 5235   2.744   5.148  13.754 -0.7243  1.0327 -0.8233
   41DOPE  C217 5236   2.617   4.983  13.702 -0.3762 -0.1127 -0.5550
   41DOPE  H17R 5237   2.633   4.952  13.597  2.3537 -1.0569  0.0496
   41DOPE  H17S 5238   2.509   4.962  13.715 -0.1493 -0.8301  0.2901
   41DOPE  C218 5239   2.689   4.887  13.799  0.4088 -0.0220  0.3463
   41DOPE  H18R 5240   2.647   4.906  13.900  0.0130 -0.3979  0.2573
   41DOPE  H18S 5241   2.797   4.912  13.802  0.4868 -0.0383 -1.2900
   41DOPE  H18T 5242   2.664   4.781  13.778 -0.7541  0.0921  1.0705
   41DOPE   C33 5243   3.338   5.859  12.914  0.1480 -0.0657  0.8426
   41DOPE   H3X 5244   3.413   5.886  12.837 -1.1401  0.9801 -0.1046
   41DOPE   H3Y 5245   3.335   5.748  12.917 -1.0836 -0.3262 -3.4108
   41DOPE   C34 5246   3.370   5.932  13.040  0.4460 -0.4386  0.6954
   41DOPE   H4X 5247   3.481   5.942  13.050  0.5055  2.1177 -1.5207
   41DOPE   H4Y 5248   3.321   6.031  13.046 -0.2072 -0.7735  0.9905
   41DOPE   C35 5249   3.337   5.857  13.170  0.4750 -0.9356  0.8455
   41DOPE   H5X 5250   3.374   5.753  13.157 -0.2712 -1.0534 -0.5050
   41DOPE   H5Y 5251   3.228   5.861  13.192  0.7084  1.5597  1.9044
   41DOPE   C36 5252   3.413   5.908  13.295 -0.5067  0.5557  0.4594
   41DOPE   H6X 5253   3.520   5.878  13.281 -0.8239  0.4340 -2.0472
   41DOPE   H6Y 5254   3.379   5.847  13.381  0.6816 -0.1369  0.4721
   41DOPE   C37 5255   3.407   6.058  13.324 -0.1974 -0.1047  0.6931
   41DOPE   H7X 5256   3.450   6.121  13.243  1.0152 -0.8747  0.7095
   41DOPE   H7Y 5257   3.300   6.080  13.345 -0.6383 -1.8638  0.4564
   41DOPE   C38 5258   3.489   6.093  13.451  0.3947  0.0243  0.2384
   41DOPE   H8X 5259   3.446   6.027  13.529  2.1808 -1.8936 -0.2849
   41DOPE   H8Y 5260   3.475   6.196  13.489  4.3990  0.1636  1.8297
   41DOPE   C39 5261   3.641   6.075  13.439 -0.3849 -0.3973  0.1056
   41DOPE   H9X 5262   3.694   6.117  13.353  0.6351 -1.0994  0.3762
   41DOPE  C310 5263   3.713   6.007  13.526 -0.7482 -0.5407 -0.3831
   41DOPE  H10X 5264   3.822   5.996  13.510 -0.4405  1.8758 -0.3480
   41DOPE  C311 5265   3.666   5.918  13.642 -0.3424 -0.2839 -0.3903
   41DOPE  H11X 5266   3.560   5.891  13.623 -0.9744  1.2598  0.7341
   41DOPE  H11Y 5267   3.728   5.827  13.654 -0.9552 -0.4937  1.5366
   41DOPE  C312 5268   3.660   5.964  13.789 -0.2330 -0.0694 -0.5221
   41DOPE  H12X 5269   3.570   5.922  13.838  0.3052 -1.3543 -0.5879
   41DOPE  H12Y 5270   3.630   6.070  13.799 -4.8847 -1.2447  0.5879
   41DOPE  C313 5271   3.778   5.927  13.883 -0.0355 -0.8764  0.6559
   41DOPE  H13X 5272   3.750   5.911  13.989  1.3720  1.8421  1.5248
   41DOPE  H13Y 5273   3.815   5.828  13.849 -0.9836 -0.4139 -1.9806
   41DOPE  C314 5274   3.892   6.031  13.867  0.5589 -0.2066  0.5183
   41DOPE  H14X 5275   3.928   6.047  13.763  2.6479  2.8740  1.5821
   41DOPE  H14Y 5276   3.977   5.973  13.909  0.0171 -1.8226 -0.4957
   41DOPE  C315 5277   3.874   6.164  13.936  0.9763  0.4245  0.1914
   41DOPE  H15X 5278   3.874   6.156  14.047 -0.9432 -0.6034  0.1699
   41DOPE  H15Y 5279   3.770   6.197  13.915 -0.7402 -2.7921  2.7039
   41DOPE  C316 5280   3.974   6.269  13.881 -0.0792  0.1414 -0.1016
   41DOPE  H16X 5281   4.079   6.239  13.902 -0.1974  0.7436  1.4939
   41DOPE  H16Y 5282   3.960   6.362  13.940 -0.7950 -0.3086  0.4511
   41DOPE  C317 5283   3.960   6.315  13.732 -0.3603  0.2010 -0.0131
   41DOPE  H17X 5284   4.024   6.394  13.687 -1.4042  0.3090 -1.3994
   41DOPE  H17Y 5285   3.979   6.223  13.672  0.1818  0.6900 -0.6107
   41DOPE  C318 5286   3.823   6.353  13.694  0.4793 -0.6867 -0.0820
   41DOPE  H18X 5287   3.817   6.398  13.593 -1.8484 -0.4549  0.0972
   41DOPE  H18Y 5288   3.749   6.270  13.697  0.6272 -0.8071  0.3398
   41DOPE  H18Z 5289   3.779   6.436  13.753  0.5515 -1.4926  1.1445
   42DOPE     N 5290   2.601   5.876  12.335 -1.1230  0.5166 -0.1254
   42DOPE   HN1 5291   2.654   5.788  12.319 -2.4562 -0.4227  0.4953
   42DOPE   HN2 5292   2.617   5.916  12.240  0.2413 -2.2510 -1.1767
   42DOPE   HN3 5293   2.649   5.924  12.414  1.1291  0.9453 -1.6479
   42DOPE   C12 5294   2.461   5.864  12.389  0.0712 -0.1653 -0.0217
   42DOPE  H12A 5295   2.399   5.835  12.301  2.8188 -0.9970 -1.7911
   42DOPE  H12B 5296   2.425   5.963  12.425  0.2728 -0.5951  1.4114
   42DOPE   C11 5297   2.447   5.746  12.481 -0.0812  0.7919 -0.1471
   42DOPE  H11A 5298   2.343   5.749  12.519 -0.5080 -1.5447 -0.9205
   42DOPE  H11B 5299   2.512   5.764  12.569 -0.8012 -0.1288  0.6044
   42DOPE     P 5300   2.600   5.539  12.438  0.2694  0.1676  0.2505
   42DOPE   O13 5301   2.720   5.618  12.388  0.4585  0.0408 -0.0313
   42DOPE   O14 5302   2.573   5.408  12.379 -0.3237  0.0613  0.7049
   42DOPE   O11 5303   2.589   5.528  12.594  0.5501 -0.7036 -0.2622
   42DOPE   O12 5304   2.469   5.623  12.413  0.3600 -0.8750 -0.1920
   42DOPE    C1 5305   2.527   5.438  12.684 -0.0773  0.4334 -0.0578
   42DOPE    HA 5306   2.545   5.486  12.783 -0.7976 -0.5577  0.5763
   42DOPE    HB 5307   2.583   5.342  12.675  0.0026  0.5207 -0.4819
   42DOPE    C2 5308   2.380   5.418  12.659 -0.5696 -0.3504  0.4207
   42DOPE    HS 5309   2.363   5.413  12.550  1.4667  1.6237 -0.0587
   42DOPE   O21 5310   2.310   5.531  12.708 -0.6568 -0.3196 -0.2364
   42DOPE   C21 5311   2.180   5.536  12.680 -0.1836 -0.2239 -0.2484
   42DOPE   O22 5312   2.126   5.459  12.600  0.0887  0.0050 -0.1220
   42DOPE   C22 5313   2.113   5.657  12.750 -0.2072  0.1414 -0.7202
   42DOPE   H2R 5314   2.135   5.742  12.682  1.2156  0.9133  0.6518
   42DOPE   H2S 5315   2.156   5.660  12.852 -2.5037 -2.4327  0.4607
   42DOPE    C3 5316   2.332   5.289  12.734 -0.1856 -0.4723 -0.2130
   42DOPE    HX 5317   2.388   5.197  12.707 -0.5989 -0.9163  0.4201
   42DOPE    HY 5318   2.231   5.262  12.696 -0.3789 -2.8254  1.7426
   42DOPE   O31 5319   2.323   5.314  12.879  0.1461 -0.1852 -0.2261
   42DOPE   C31 5320   2.433   5.272  12.943 -0.2341 -0.2525 -0.2460
   42DOPE   O32 5321   2.534   5.242  12.886 -0.3416  0.1331  0.0723
   42DOPE   C32 5322   2.409   5.263  13.093 -0.6921 -0.7211  0.0822
   42DOPE   H2X 5323   2.503   5.272  13.152  0.0453 -0.7395 -1.0691
   42DOPE   H2Y 5324   2.334   5.335  13.131 -2.0950 -0.9417 -2.1370
   42DOPE   C23 5325   1.960   5.644  12.748  0.2707 -0.0264 -0.3129
   42DOPE   H3R 5326   1.926   5.580  12.664 -2.5906  0.9507  0.0117
   42DOPE   H3S 5327   1.920   5.745  12.724  3.6762  1.3263 -0.9503
   42DOPE   C24 5328   1.911   5.585  12.886  0.0083  0.2295 -0.0407
   42DOPE   H4R 5329   1.803   5.603  12.907  0.7520  2.7836  2.1659
   42DOPE   H4S 5330   1.956   5.648  12.965  0.0663 -0.0420  0.1467
   42DOPE   C25 5331   1.962   5.442  12.917 -0.4567  0.9628 -0.5900
   42DOPE   H5R 5332   2.071   5.429  12.927 -0.5606 -0.3757 -1.0444
   42DOPE   H5S 5333   1.927   5.379  12.832  0.7521 -1.2736  0.4767
   42DOPE   C26 5334   1.896   5.374  13.040 -0.3764  0.1083 -0.1910
   42DOPE   H6R 5335   1.787   5.365  13.025 -0.4545 -2.2976  1.3308
   42DOPE   H6S 5336   1.914   5.433  13.132  0.1784  0.7528 -0.6949
   42DOPE   C27 5337   1.947   5.234  13.053 -0.0517 -0.1998 -0.7674
   42DOPE   H7R 5338   2.056   5.229  13.073 -0.1084 -1.9253 -0.7627
   42DOPE   H7S 5339   1.927   5.177  12.960 -3.2777  0.1834 -0.4254
   42DOPE   C28 5340   1.881   5.153  13.171  0.4179 -0.0047 -0.5472
   42DOPE   H8R 5341   1.777   5.193  13.178 -0.9007 -3.1667 -0.2481
   42DOPE   H8S 5342   1.940   5.164  13.264  2.1923 -3.4095 -1.0991
   42DOPE   C29 5343   1.872   5.005  13.135  0.1124  0.0355 -0.5632
   42DOPE   H9R 5344   1.953   4.943  13.175  2.9033  2.8506 -1.4575
   42DOPE  C210 5345   1.773   4.945  13.069  0.4281 -0.1007  0.0639
   42DOPE  H10R 5346   1.793   4.845  13.028 -2.7510 -1.2052  0.8999
   42DOPE  C211 5347   1.651   5.008  13.002 -0.1572  0.2203  0.1696
   42DOPE  H11R 5348   1.673   5.114  12.973 -0.9032  0.1278 -0.7996
   42DOPE  H11S 5349   1.561   4.996  13.066 -1.4173  2.6488 -0.9750
   42DOPE  C212 5350   1.617   4.943  12.874  0.0901  0.7148 -0.6758
   42DOPE  H12R 5351   1.612   4.836  12.905 -0.7607  1.0443  0.3721
   42DOPE  H12S 5352   1.696   4.963  12.798  0.5440 -1.1385 -0.7401
   42DOPE  C213 5353   1.489   4.988  12.821  0.1972  0.2070  0.3905
   42DOPE  H13R 5354   1.468   4.939  12.724 -1.2929 -1.6740  1.5881
   42DOPE  H13S 5355   1.497   5.097  12.800 -2.5271  0.7828  1.8243
   42DOPE  C214 5356   1.357   4.971  12.898  0.5449  0.0951  0.3481
   42DOPE  H14R 5357   1.369   5.001  13.004 -0.8109  1.0248  0.2532
   42DOPE  H14S 5358   1.336   4.863  12.914 -1.3286  0.3972  0.1242
   42DOPE  C215 5359   1.234   5.045  12.829  0.4632 -0.4371 -1.2833
   42DOPE  H15R 5360   1.230   5.011  12.723 -0.2908 -1.7432 -0.8641
   42DOPE  H15S 5361   1.259   5.153  12.825  1.6791 -0.4854  2.1556
   42DOPE  C216 5362   1.103   5.015  12.892  0.4937  0.0019  0.3972
   42DOPE  H16R 5363   1.112   4.911  12.928 -0.2366 -0.2647 -0.1837
   42DOPE  H16S 5364   1.013   5.020  12.827 -0.5612 -0.9254  1.7477
   42DOPE  C217 5365   1.069   5.106  13.010 -0.2025 -0.2735  0.8443
   42DOPE  H17R 5366   1.035   5.205  12.972  0.2641 -0.4058  0.0669
   42DOPE  H17S 5367   1.165   5.134  13.058  0.2775  0.8568 -0.6926
   42DOPE  C218 5368   0.970   5.036  13.096 -0.4691  0.3368 -0.0246
   42DOPE  H18R 5369   1.014   4.947  13.145  0.9237  0.8108 -0.3500
   42DOPE  H18S 5370   0.882   5.013  13.031 -0.2253 -1.4447  0.2269
   42DOPE  H18T 5371   0.931   5.101  13.177  0.4975  0.4025  0.3956
   42DOPE   C33 5372   2.355   5.121  13.126 -0.3096 -0.5499 -0.0029
   42DOPE   H3X 5373   2.436   5.045  13.119  0.6697  0.2707  1.8014
   42DOPE   H3Y 5374   2.278   5.092  13.052 -1.2728  1.9196 -0.0476
   42DOPE   C34 5375   2.285   5.115  13.253 -0.7492 -0.4264 -0.0147
   42DOPE   H4X 5376   2.341   5.164  13.335 -0.5768 -1.9706  0.8450
   42DOPE   H4Y 5377   2.198   5.185  13.254 -0.8952 -0.6063  0.9933
   42DOPE   C35 5378   2.239   4.983  13.309  0.1027  0.0064  0.1289
   42DOPE   H5X 5379   2.322   4.912  13.291  1.2127  1.0970  0.7857
   42DOPE   H5Y 5380   2.156   4.969  13.236 -0.6993  1.7231  0.6522
   42DOPE   C36 5381   2.182   4.985  13.450  0.8238  0.7177 -0.5624
   42DOPE   H6X 5382   2.093   5.050  13.455  0.6457  0.4730 -0.5245
   42DOPE   H6Y 5383   2.249   5.024  13.530  0.5058 -0.0350  0.0891
   42DOPE   C37 5384   2.152   4.837  13.503  0.3091 -0.0233  0.3617
   42DOPE   H7X 5385   2.245   4.779  13.484  1.6181  2.0683  0.0753
   42DOPE   H7Y 5386   2.147   4.837  13.614  0.2583  0.4611  0.3602
   42DOPE   C38 5387   2.042   4.758  13.427  0.1788  0.0643  0.1634
   42DOPE   H8X 5388   2.081   4.757  13.323  0.8098  2.3725  0.3418
   42DOPE   H8Y 5389   1.948   4.816  13.424 -0.1718 -0.4934  0.1955
   42DOPE   C39 5390   2.030   4.621  13.490  0.4188  1.1677  0.5019
   42DOPE   H9X 5391   2.049   4.533  13.426 -2.0960 -0.0552  1.2890
   42DOPE  C310 5392   1.978   4.594  13.612  0.1895 -0.9256  0.4664
   42DOPE  H10X 5393   1.993   4.490  13.644  0.8783 -0.9652  0.0314
   42DOPE  C311 5394   1.934   4.680  13.723 -0.0427 -0.1481  0.3386
   42DOPE  H11X 5395   2.027   4.689  13.783 -0.9013 -1.5347  1.9623
   42DOPE  H11Y 5396   1.906   4.784  13.694  0.3737 -0.4296 -1.1764
   42DOPE  C312 5397   1.841   4.599  13.820  0.5414  0.4923 -0.4696
   42DOPE  H12X 5398   1.897   4.522  13.877  0.9397  1.2410  0.1716
   42DOPE  H12Y 5399   1.763   4.542  13.767  1.1216  0.8756 -1.7787
   42DOPE  C313 5400   1.763   4.687  13.922 -0.2487 -0.3884  0.1591
   42DOPE  H13X 5401   1.692   4.763  13.881 -0.1232 -0.4315 -0.1424
   42DOPE  H13Y 5402   1.709   4.618  13.990 -0.7541 -1.1295 -0.9773
   42DOPE  C314 5403   1.862   4.764  14.018  0.4897  0.2879  0.2380
   42DOPE  H14X 5404   1.927   4.824  13.951 -0.2765  0.6069 -0.2388
   42DOPE  H14Y 5405   1.918   4.684  14.071 -1.2630  0.5802  2.7365
   42DOPE  C315 5406   1.808   4.865  14.124  0.3100  0.1209  0.2486
   42DOPE  H15X 5407   1.739   4.942  14.081  0.3553  0.4300  0.7180
   42DOPE  H15Y 5408   1.901   4.921  14.147  1.3831 -1.3240 -0.4972
   42DOPE  C316 5409   1.763   4.806  14.260  0.1277  0.0254 -0.3796
   42DOPE  H16X 5410   1.694   4.719  14.258 -0.4287  0.4646 -0.6291
   42DOPE  H16Y 5411   1.709   4.886  14.315  2.2391  0.4440  1.2125
   42DOPE  C317 5412   1.888   4.771  14.340  0.1364  0.6873 -0.4304
   42DOPE  H17X 5413   1.942   4.696  14.279  0.2400 -1.1482  1.7982
   42DOPE  H17Y 5414   1.947   4.863  14.360 -0.8427  1.6906 -1.8643
   42DOPE  C318 5415   1.857   4.708  14.481  0.0870  0.3749  0.6063
   42DOPE  H18X 5416   1.947   4.671  14.535 -0.0576 -0.7644  0.0866
   42DOPE  H18Y 5417   1.809   4.783  14.547 -0.8922 -0.5742  0.9949
   42DOPE  H18Z 5418   1.781   4.629  14.463  0.7419 -0.1958  0.3144
   43DOPE     N 5419   1.438   3.010  12.230  0.2768 -0.4654 -0.6969
   43DOPE   HN1 5420   1.482   2.934  12.174  2.0369 -0.1245  0.1686
   43DOPE   HN2 5421   1.462   2.989  12.328 -0.6509  1.7394  0.0722
   43DOPE   HN3 5422   1.335   3.016  12.222  0.2816  1.0290  0.0635
   43DOPE   C12 5423   1.489   3.148  12.182 -0.1981  0.4809 -0.0842
   43DOPE  H12A 5424   1.423   3.229  12.219  0.1816  1.5367 -1.6310
   43DOPE  H12B 5425   1.478   3.152  12.072 -0.1061 -2.0147 -0.2415
   43DOPE   C11 5426   1.635   3.172  12.217  0.1504  0.0667  0.8872
   43DOPE  H11A 5427   1.662   3.275  12.185  1.8243  0.4146  3.1028
   43DOPE  H11B 5428   1.708   3.104  12.168 -0.0469  0.3308  0.2227
   43DOPE     P 5429   1.684   3.283  12.455 -0.4907  0.6546 -0.1625
   43DOPE   O13 5430   1.568   3.379  12.446 -0.3006  0.2466  0.3499
   43DOPE   O14 5431   1.813   3.350  12.439 -0.6451  0.2797  0.0958
   43DOPE   O11 5432   1.676   3.219  12.597 -0.2117 -0.4087  0.3915
   43DOPE   O12 5433   1.655   3.158  12.356  0.0098  0.2414 -0.1780
   43DOPE    C1 5434   1.595   3.104  12.623 -0.2961  0.4670 -0.0730
   43DOPE    HA 5435   1.659   3.037  12.684  0.8785 -0.4310 -2.2009
   43DOPE    HB 5436   1.566   3.046  12.533 -0.7582  2.1962 -1.0784
   43DOPE    C2 5437   1.474   3.141  12.709  0.4677 -0.6960 -0.2735
   43DOPE    HS 5438   1.430   3.231  12.661  1.3760 -0.2422 -0.2672
   43DOPE   O21 5439   1.516   3.158  12.848  0.2147  0.1341 -0.6636
   43DOPE   C21 5440   1.512   3.279  12.894 -0.3957 -0.0758 -1.0598
   43DOPE   O22 5441   1.505   3.382  12.839 -0.3256  0.1114 -0.2450
   43DOPE   C22 5442   1.537   3.266  13.049 -0.1002 -1.0175  0.0794
   43DOPE   H2R 5443   1.646   3.263  13.066  0.4256 -0.1104 -2.5788
   43DOPE   H2S 5444   1.501   3.165  13.077  0.6697 -1.0582  0.9679
   43DOPE    C3 5445   1.360   3.038  12.709  0.7118 -0.1145 -0.1669
   43DOPE    HX 5446   1.404   2.936  12.714  1.0884  0.0859  0.9040
   43DOPE    HY 5447   1.313   3.051  12.609  1.1093 -2.7073 -0.7677
   43DOPE   O31 5448   1.256   3.067  12.808  0.3421  0.0105 -0.3448
   43DOPE   C31 5449   1.261   2.994  12.918  0.3611  0.0935 -0.3851
   43DOPE   O32 5450   1.336   2.903  12.940  1.0226 -0.3432  0.4557
   43DOPE   C32 5451   1.146   3.034  13.026 -0.0207  0.3451  0.0479
   43DOPE   H2X 5452   1.195   3.066  13.121 -2.0819 -0.3374  1.3931
   43DOPE   H2Y 5453   1.087   3.114  12.975 -2.2325 -2.3273 -1.8616
   43DOPE   C23 5454   1.465   3.375  13.140  0.2668 -0.2095 -0.3388
   43DOPE   H3R 5455   1.360   3.385  13.107 -0.1594 -0.1558  0.9925
   43DOPE   H3S 5456   1.517   3.473  13.137  3.4549 -1.6155  2.3240
   43DOPE   C24 5457   1.486   3.334  13.287  0.0253  0.9698  0.5338
   43DOPE   H4R 5458   1.595   3.322  13.304  0.0658  0.0840 -0.2949
   43DOPE   H4S 5459   1.433   3.237  13.304 -1.4757  0.8531 -3.7402
   43DOPE   C25 5460   1.423   3.439  13.378  0.0661 -0.4405  0.3891
   43DOPE   H5R 5461   1.312   3.441  13.374  0.0933  1.8122 -1.0957
   43DOPE   H5S 5462   1.454   3.540  13.343 -2.4777  0.4527  0.4896
   43DOPE   C26 5463   1.453   3.414  13.532  0.2607 -0.0244  0.3905
   43DOPE   H6R 5464   1.430   3.307  13.551 -1.7405  0.3693  0.4577
   43DOPE   H6S 5465   1.380   3.474  13.590  0.3715  0.5372 -0.0431
   43DOPE   C27 5466   1.588   3.467  13.582 -0.0621 -0.8681 -0.8422
   43DOPE   H7R 5467   1.596   3.576  13.562  2.2924 -0.6095  1.0084
   43DOPE   H7S 5468   1.667   3.421  13.518  1.6130  0.4592  0.1831
   43DOPE   C28 5469   1.622   3.431  13.731 -0.2953 -0.9870 -0.7160
   43DOPE   H8R 5470   1.732   3.443  13.737 -0.1718 -2.4744  0.5597
   43DOPE   H8S 5471   1.607   3.324  13.758 -0.0509 -0.8115  0.1819
   43DOPE   C29 5472   1.550   3.525  13.824 -0.2893 -0.3444 -0.6388
   43DOPE   H9R 5473   1.448   3.549  13.791 -0.2451  0.4626 -0.2291
   43DOPE  C210 5474   1.597   3.597  13.925  0.1582 -1.0484  0.6768
   43DOPE  H10R 5475   1.516   3.650  13.976  0.9545  0.8537  0.0765
   43DOPE  C211 5476   1.734   3.581  13.992  0.2113 -0.5108  0.6496
   43DOPE  H11R 5477   1.813   3.619  13.924 -1.5508 -1.1788 -1.9096
   43DOPE  H11S 5478   1.763   3.475  14.002 -0.7636 -0.7879  0.6869
   43DOPE  C212 5479   1.758   3.656  14.121 -0.1408 -0.2590  0.8605
   43DOPE  H12R 5480   1.849   3.619  14.174 -0.1933 -0.5859  0.7251
   43DOPE  H12S 5481   1.665   3.653  14.181 -1.2118  1.7748 -0.5587
   43DOPE  C213 5482   1.785   3.803  14.108 -0.0361  0.0862  0.0987
   43DOPE  H13R 5483   1.692   3.859  14.130  1.5228  1.6714  3.5116
   43DOPE  H13S 5484   1.812   3.824  14.002  0.8527  0.8252  0.4510
   43DOPE  C214 5485   1.896   3.868  14.192 -0.6662  0.5192  0.2267
   43DOPE  H14R 5486   1.896   3.976  14.167  1.8055  0.6549  0.5857
   43DOPE  H14S 5487   1.992   3.822  14.160 -0.7256  0.6542 -0.1548
   43DOPE  C215 5488   1.883   3.853  14.347 -0.4931 -0.9028 -0.4079
   43DOPE  H15R 5489   1.973   3.886  14.403 -0.4582  3.5098 -2.6206
   43DOPE  H15S 5490   1.869   3.745  14.370 -0.1767 -1.2349 -1.7103
   43DOPE  C216 5491   1.764   3.934  14.406 -0.2231  0.5005 -0.1522
   43DOPE  H16R 5492   1.667   3.898  14.365  0.8979 -3.0827  0.0499
   43DOPE  H16S 5493   1.770   4.045  14.396  0.5124  0.4809 -0.0148
   43DOPE  C217 5494   1.755   3.904  14.559  0.1261 -0.3613 -0.5292
   43DOPE  H17R 5495   1.852   3.913  14.612  0.1097 -2.1565 -0.1372
   43DOPE  H17S 5496   1.728   3.796  14.569 -0.2972 -0.2129  0.0136
   43DOPE  C218 5497   1.643   3.975  14.639 -0.0630 -0.0998 -0.5369
   43DOPE  H18R 5498   1.544   3.951  14.595  0.5013  0.7910 -2.4205
   43DOPE  H18S 5499   1.653   4.084  14.621 -2.0303  0.0041 -1.2203
   43DOPE  H18T 5500   1.649   3.941  14.744  1.1735 -0.5329 -0.7228
   43DOPE   C33 5501   1.039   2.930  13.063  0.0913  0.1783 -0.0657
   43DOPE   H3X 5502   1.090   2.856  13.128  2.3101  0.2681 -1.6062
   43DOPE   H3Y 5503   1.017   2.881  12.965 -0.7435  1.8574 -0.7654
   43DOPE   C34 5504   0.904   2.993  13.111  0.2288 -0.4808 -0.2775
   43DOPE   H4X 5505   0.861   3.066  13.040  2.3252  1.1578  0.0438
   43DOPE   H4Y 5506   0.828   2.912  13.107 -0.8659  0.5228 -0.3722
   43DOPE   C35 5507   0.898   3.053  13.254  0.0720  0.0427  0.7209
   43DOPE   H5X 5508   0.969   3.138  13.248  0.5302 -0.4106 -0.5154
   43DOPE   H5Y 5509   0.926   2.971  13.324 -0.7504 -0.8433  0.0423
   43DOPE   C36 5510   0.762   3.105  13.285 -0.3860 -0.0347  0.0760
   43DOPE   H6X 5511   0.690   3.020  13.279 -0.0699 -0.2022 -3.7826
   43DOPE   H6Y 5512   0.726   3.160  13.195  2.8753  0.1918 -1.2087
   43DOPE   C37 5513   0.754   3.189  13.411 -0.9597 -0.1275 -0.8961
   43DOPE   H7X 5514   0.786   3.126  13.496  1.7163  0.5379 -1.3147
   43DOPE   H7Y 5515   0.824   3.276  13.409  0.1957 -0.9875  0.4608
   43DOPE   C38 5516   0.608   3.231  13.452  0.8434  0.2681 -0.0528
   43DOPE   H8X 5517   0.553   3.140  13.486  0.0391  1.1578  1.0615
   43DOPE   H8Y 5518   0.555   3.273  13.364 -2.4582  0.0970  1.7098
   43DOPE   C39 5519   0.631   3.325  13.568 -0.2296  0.2847  0.3590
   43DOPE   H9X 5520   0.625   3.431  13.537 -3.0307 -0.9486 -4.3526
   43DOPE  C310 5521   0.635   3.301  13.703  0.1122  0.0267  0.2772
   43DOPE  H10X 5522   0.632   3.395  13.762 -1.8286 -1.2335  2.3459
   43DOPE  C311 5523   0.625   3.166  13.776  0.1473 -0.4941 -0.2092
   43DOPE  H11X 5524   0.543   3.170  13.850  1.5029 -4.2695  1.7607
   43DOPE  H11Y 5525   0.588   3.087  13.707  1.1473  0.7831 -2.3299
   43DOPE  C312 5526   0.759   3.120  13.840 -0.2657 -0.2879  0.7508
   43DOPE  H12X 5527   0.839   3.123  13.763 -1.1851  1.8033 -0.1897
   43DOPE  H12Y 5528   0.759   3.014  13.873 -0.8295 -0.1157  1.3355
   43DOPE  C313 5529   0.808   3.215  13.960  0.1614  0.8512  0.2647
   43DOPE  H13X 5530   0.826   3.315  13.915  1.9346  0.3888 -0.1145
   43DOPE  H13Y 5531   0.730   3.215  14.039 -0.4627  3.1092 -0.2612
   43DOPE  C314 5532   0.935   3.172  14.024  0.3286 -0.7140  0.3390
   43DOPE  H14X 5533   0.990   3.117  13.944  1.0444  0.1644  0.1972
   43DOPE  H14Y 5534   0.915   3.104  14.109 -1.5022 -1.9596 -1.0195
   43DOPE  C315 5535   1.026   3.284  14.076  0.4300 -0.0373  0.0799
   43DOPE  H15X 5536   0.976   3.332  14.163  1.4354  1.8716 -0.3295
   43DOPE  H15Y 5537   1.045   3.362  13.999  2.3365  1.0483  1.5667
   43DOPE  C316 5538   1.163   3.232  14.132  0.3387  0.1073 -0.3211
   43DOPE  H16X 5539   1.227   3.186  14.054  0.1245  0.2540 -0.5830
   43DOPE  H16Y 5540   1.134   3.163  14.214  0.6458 -0.2936 -0.5465
   43DOPE  C317 5541   1.253   3.344  14.191  0.4652  0.0619 -0.0400
   43DOPE  H17X 5542   1.254   3.415  14.105  0.5824  2.9734  2.1870
   43DOPE  H17Y 5543   1.187   3.388  14.269  1.0232  0.9970 -0.0776
   43DOPE  C318 5544   1.388   3.318  14.248  0.0973 -0.1709  0.1859
   43DOPE  H18X 5545   1.422   3.396  14.319 -1.5193 -1.9291  3.0713
   43DOPE  H18Y 5546   1.385   3.232  14.318  1.1073  0.0119  0.4575
   43DOPE  H18Z 5547   1.471   3.287  14.181 -0.0644  0.6297 -0.4119
   44DOPE     N 5548   2.982   1.536  12.427 -0.2873 -0.0808  0.0206
   44DOPE   HN1 5549   2.925   1.477  12.491  0.5685 -0.5802  0.3386
   44DOPE   HN2 5550   3.006   1.621  12.482  3.3671 -1.6430  1.1599
   44DOPE   HN3 5551   2.933   1.535  12.335 -1.1857 -1.0299  0.4863
   44DOPE   C12 5552   3.116   1.473  12.414  0.0079 -0.3455 -0.3387
   44DOPE  H12A 5553   3.185   1.527  12.346 -0.1458 -0.4803 -0.6037
   44DOPE  H12B 5554   3.101   1.373  12.367 -1.1446 -0.5301  0.3985
   44DOPE   C11 5555   3.177   1.435  12.552  0.1093 -0.2785  0.4498
   44DOPE  H11A 5556   3.101   1.375  12.607 -2.3460  1.2721 -1.0453
   44DOPE  H11B 5557   3.186   1.528  12.612  1.4999 -0.6374  0.8145
   44DOPE     P 5558   3.435   1.442  12.514  0.1421 -0.5180  0.1612
   44DOPE   O13 5559   3.400   1.581  12.476  0.1876  0.6864 -0.0990
   44DOPE   O14 5560   3.522   1.369  12.421 -0.3891 -0.7409  0.0579
   44DOPE   O11 5561   3.489   1.438  12.658 -0.3407  0.4848  0.2422
   44DOPE   O12 5562   3.302   1.363  12.525  0.2521  0.4800  0.1949
   44DOPE    C1 5563   3.466   1.327  12.749 -0.3429 -0.1757  0.6371
   44DOPE    HA 5564   3.444   1.237  12.687  0.8553  0.8325 -1.3453
   44DOPE    HB 5565   3.373   1.349  12.806 -0.2365  3.0295 -0.2263
   44DOPE    C2 5566   3.593   1.272  12.824  0.0060 -0.7766 -0.7499
   44DOPE    HS 5567   3.582   1.165  12.850 -0.3076 -0.4057  0.7736
   44DOPE   O21 5568   3.616   1.355  12.945 -0.6921 -0.4381 -0.2324
   44DOPE   C21 5569   3.538   1.333  13.040 -0.7247 -0.3612  0.1246
   44DOPE   O22 5570   3.461   1.239  13.045 -0.7780 -0.4943 -0.7363
   44DOPE   C22 5571   3.557   1.434  13.148 -0.4278 -0.4148 -0.7439
   44DOPE   H2R 5572   3.660   1.474  13.139 -0.2176 -0.9563 -0.7795
   44DOPE   H2S 5573   3.537   1.381  13.244 -1.3367  0.8736 -0.1817
   44DOPE    C3 5574   3.723   1.283  12.744  0.7123 -0.3375  0.5183
   44DOPE    HX 5575   3.736   1.390  12.715  0.3060  0.3395  2.6863
   44DOPE    HY 5576   3.697   1.229  12.650  0.1472 -2.2380  1.7196
   44DOPE   O31 5577   3.840   1.224  12.804 -0.5719 -0.1736  0.0744
   44DOPE   C31 5578   3.930   1.313  12.859  0.1666  0.0572  0.2680
   44DOPE   O32 5579   3.926   1.432  12.847  0.0427 -0.0862 -0.4925
   44DOPE   C32 5580   4.050   1.237  12.904 -0.0975 -0.0342 -1.1042
   44DOPE   H2X 5581   4.022   1.129  12.903  0.1204 -0.1024 -0.4395
   44DOPE   H2Y 5582   4.133   1.253  12.832 -0.5409  0.6555 -1.4710
   44DOPE   C23 5583   3.453   1.547  13.141  0.4937  0.3526  0.9258
   44DOPE   H3R 5584   3.485   1.605  13.051 -1.1667  2.1462  1.4073
   44DOPE   H3S 5585   3.467   1.610  13.232  0.2404  2.5581 -0.4699
   44DOPE   C24 5586   3.306   1.491  13.147  0.7104 -0.1232 -0.8495
   44DOPE   H4R 5587   3.299   1.429  13.239  0.9578  1.8315  0.5452
   44DOPE   H4S 5588   3.290   1.427  13.057  3.5772 -1.0490 -0.8241
   44DOPE   C25 5589   3.198   1.606  13.167 -0.1430  0.6817  0.1602
   44DOPE   H5R 5590   3.165   1.651  13.070 -1.0706 -0.8857 -0.2938
   44DOPE   H5S 5591   3.239   1.693  13.221 -1.8855  2.0565 -0.6251
   44DOPE   C26 5592   3.072   1.552  13.222  0.4087  0.4269 -0.5019
   44DOPE   H6R 5593   3.084   1.459  13.283 -0.0736  1.0255  0.5446
   44DOPE   H6S 5594   3.001   1.527  13.141  1.4835 -1.1373 -1.0095
   44DOPE   C27 5595   3.001   1.652  13.314  0.6028 -0.3891 -0.2859
   44DOPE   H7R 5596   3.017   1.745  13.256  1.9855 -0.9458 -0.8302
   44DOPE   H7S 5597   3.063   1.657  13.407 -1.1079 -1.3626  0.9741
   44DOPE   C28 5598   2.858   1.626  13.361 -0.0086 -0.2460  0.2152
   44DOPE   H8R 5599   2.819   1.716  13.412  3.3629  1.2739  0.3172
   44DOPE   H8S 5600   2.851   1.532  13.421 -1.7475  0.3056  0.9447
   44DOPE   C29 5601   2.765   1.609  13.249 -0.2457  0.1120  0.0757
   44DOPE   H9R 5602   2.782   1.689  13.176  0.9756 -0.4111 -0.2266
   44DOPE  C210 5603   2.669   1.514  13.240  0.9391  0.3055 -0.0297
   44DOPE  H10R 5604   2.607   1.521  13.148  0.1726  0.9202  0.5218
   44DOPE  C211 5605   2.633   1.411  13.338  0.7140  0.7029  0.2690
   44DOPE  H11R 5606   2.527   1.434  13.361  1.1547  1.9328  1.1945
   44DOPE  H11S 5607   2.688   1.431  13.432  0.7312 -0.1814  0.4512
   44DOPE  C212 5608   2.670   1.270  13.297  0.7769 -0.4820  0.8409
   44DOPE  H12R 5609   2.682   1.193  13.377  2.3825 -2.6224 -1.3240
   44DOPE  H12S 5610   2.758   1.262  13.230  0.4017 -0.7244  0.3692
   44DOPE  C213 5611   2.551   1.220  13.208  0.3176  0.1961  0.1968
   44DOPE  H13R 5612   2.531   1.296  13.129 -3.6643 -0.7891  0.0372
   44DOPE  H13S 5613   2.463   1.204  13.273  0.2722 -1.2870 -0.1809
   44DOPE  C214 5614   2.589   1.093  13.135 -0.5395  0.2083 -0.2618
   44DOPE  H14R 5615   2.597   1.005  13.202  1.2107 -0.2187 -0.9591
   44DOPE  H14S 5616   2.691   1.109  13.092  0.3786 -2.4684  0.7221
   44DOPE  C215 5617   2.511   1.054  13.009  0.6418 -0.3643  0.3723
   44DOPE  H15R 5618   2.559   0.964  12.967  1.9995  0.8679 -0.8264
   44DOPE  H15S 5619   2.527   1.134  12.933  0.6525  0.8834  1.6383
   44DOPE  C216 5620   2.363   1.024  13.018 -0.1705 -0.0523 -0.2193
   44DOPE  H16R 5621   2.329   0.993  12.917 -2.8284 -0.6834  0.7761
   44DOPE  H16S 5622   2.312   1.118  13.048  3.9375  1.7522  1.9955
   44DOPE  C217 5623   2.328   0.919  13.130  0.1481 -0.6506 -0.2387
   44DOPE  H17R 5624   2.218   0.903  13.132 -0.0738  0.7980  0.3998
   44DOPE  H17S 5625   2.346   0.954  13.234 -1.7723  0.0789 -0.1181
   44DOPE  C218 5626   2.383   0.776  13.107 -0.2338  0.2486 -0.6476
   44DOPE  H18R 5627   2.388   0.752  12.998 -0.5774 -1.6944 -0.2552
   44DOPE  H18S 5628   2.310   0.704  13.149 -0.4559  0.7298 -0.2058
   44DOPE  H18T 5629   2.487   0.763  13.143 -1.0776  0.8765  2.2194
   44DOPE   C33 5630   4.095   1.276  13.047 -0.0561 -0.1004  0.2313
   44DOPE   H3X 5631   4.087   1.384  13.073 -2.4980 -0.4947  1.3042
   44DOPE   H3Y 5632   4.202   1.246  13.042  0.0584  0.4958 -2.9808
   44DOPE   C34 5633   4.043   1.179  13.155  0.3680 -0.0780  0.4773
   44DOPE   H4X 5634   4.047   1.074  13.119 -0.7281  0.0564 -0.0847
   44DOPE   H4Y 5635   4.108   1.194  13.244 -0.9448  0.6679  1.3442
   44DOPE   C35 5636   3.895   1.209  13.194 -0.8323 -0.0724 -0.3418
   44DOPE   H5X 5637   3.835   1.225  13.101 -0.3364  0.2738 -0.6045
   44DOPE   H5Y 5638   3.886   1.292  13.268 -0.6504 -1.4925  1.3307
   44DOPE   C36 5639   3.833   1.084  13.265 -0.4388 -0.4813 -0.1529
   44DOPE   H6X 5640   3.892   1.058  13.356 -0.4465 -0.9368 -0.2779
   44DOPE   H6Y 5641   3.844   0.998  13.195  4.0613  0.9391 -1.6107
   44DOPE   C37 5642   3.689   1.095  13.305  0.4484  0.1490 -0.1737
   44DOPE   H7X 5643   3.678   1.191  13.361  0.3649 -0.7059  1.3327
   44DOPE   H7Y 5644   3.618   1.109  13.220 -0.5859  0.1547  0.6699
   44DOPE   C38 5645   3.642   0.972  13.386 -0.1991 -0.7491 -0.4554
   44DOPE   H8X 5646   3.682   0.878  13.343  1.1627  0.0884 -1.0767
   44DOPE   H8Y 5647   3.531   0.973  13.382 -0.2028  0.8940 -0.8031
   44DOPE   C39 5648   3.690   0.988  13.527  0.2061 -0.3307 -0.3661
   44DOPE   H9X 5649   3.792   0.950  13.542  0.5191  0.0041 -1.5368
   44DOPE  C310 5650   3.621   1.024  13.637 -0.1092 -0.2155  0.1953
   44DOPE  H10X 5651   3.675   1.032  13.733  0.5050  0.5667 -0.2071
   44DOPE  C311 5652   3.476   1.075  13.628 -0.4255 -0.2297 -0.9889
   44DOPE  H11X 5653   3.458   1.122  13.529 -2.3357 -0.4563 -0.8000
   44DOPE  H11Y 5654   3.399   0.997  13.648 -1.1419  1.1092  2.1669
   44DOPE  C312 5655   3.450   1.186  13.730  0.1464 -0.6589 -0.1786
   44DOPE  H12X 5656   3.463   1.149  13.834  3.4832 -1.8567 -0.8885
   44DOPE  H12Y 5657   3.345   1.218  13.717  0.9426  2.9757  1.0371
   44DOPE  C313 5658   3.522   1.317  13.707 -0.0427  0.4399  0.1948
   44DOPE  H13X 5659   3.630   1.304  13.729 -0.3460 -2.5364  0.2917
   44DOPE  H13Y 5660   3.522   1.326  13.596 -2.6440  2.0304  0.2488
   44DOPE  C314 5661   3.459   1.437  13.778 -0.6102  0.6400  0.3608
   44DOPE  H14X 5662   3.481   1.421  13.886  0.7210  1.6026  0.2507
   44DOPE  H14Y 5663   3.350   1.439  13.757 -0.4316 -0.9712 -0.8401
   44DOPE  C315 5664   3.533   1.562  13.737 -0.3976  0.4647 -0.3697
   44DOPE  H15X 5665   3.642   1.541  13.741 -0.5359 -0.1174  2.5037
   44DOPE  H15Y 5666   3.503   1.646  13.803 -0.6680 -0.3406  0.5374
   44DOPE  C316 5667   3.506   1.605  13.589  0.2804 -0.0767  0.8730
   44DOPE  H16X 5668   3.399   1.610  13.561  0.9377  1.0526 -1.8444
   44DOPE  H16Y 5669   3.562   1.542  13.515 -0.0758 -0.8566  1.2602
   44DOPE  C317 5670   3.568   1.742  13.562  0.1111 -0.1594 -0.7584
   44DOPE  H17X 5671   3.517   1.820  13.623  2.0226  0.5319  0.0402
   44DOPE  H17Y 5672   3.676   1.734  13.588 -0.0374  0.3080  0.0523
   44DOPE  C318 5673   3.558   1.803  13.416 -0.0793 -0.2162  0.2554
   44DOPE  H18X 5674   3.454   1.831  13.390  0.1930  1.7131  1.0296
   44DOPE  H18Y 5675   3.608   1.902  13.423 -1.6987  0.5999  0.6995
   44DOPE  H18Z 5676   3.601   1.728  13.346  1.4925 -0.4282  1.3945
   45DOPE     N 5677   5.584   0.588  12.500  0.2323 -0.1027 -0.1924
   45DOPE   HN1 5678   5.541   0.609  12.592  1.7239  0.1002  0.4919
   45DOPE   HN2 5679   5.544   0.495  12.478 -0.6169  0.5937 -1.7539
   45DOPE   HN3 5680   5.684   0.577  12.526 -0.1399  0.7907  1.8557
   45DOPE   C12 5681   5.566   0.687  12.387 -0.0525  0.1159  0.4521
   45DOPE  H12A 5682   5.460   0.718  12.374 -0.1142 -0.2126  0.1471
   45DOPE  H12B 5683   5.598   0.636  12.294  0.1236  1.8228 -0.4547
   45DOPE   C11 5684   5.653   0.813  12.419  0.2150  0.3533  0.1137
   45DOPE  H11A 5685   5.669   0.880  12.332 -0.2189  3.4423  2.2645
   45DOPE  H11B 5686   5.758   0.781  12.439 -0.2498  0.3834  3.0282
   45DOPE     P 5687   5.516   1.015  12.498 -0.4481  0.3872 -0.0951
   45DOPE   O13 5688   5.437   0.976  12.378 -0.4349  0.0937  0.2532
   45DOPE   O14 5689   5.595   1.137  12.481 -0.3218  0.0796 -0.1384
   45DOPE   O11 5690   5.415   1.042  12.619  0.4429  0.1754  0.5324
   45DOPE   O12 5691   5.600   0.886  12.533  0.0894 -0.0460  0.2145
   45DOPE    C1 5692   5.441   0.999  12.753 -0.2333  0.1845  0.2003
   45DOPE    HA 5693   5.405   1.078  12.823  1.5198  0.0619  1.2877
   45DOPE    HB 5694   5.549   0.977  12.764 -0.5989 -2.1544 -0.4546
   45DOPE    C2 5695   5.365   0.866  12.780  0.5820 -0.5994 -0.3865
   45DOPE    HS 5696   5.348   0.815  12.683  2.4400 -2.3827  0.1754
   45DOPE   O21 5697   5.245   0.890  12.857  0.1928 -0.9276  0.1004
   45DOPE   C21 5698   5.139   0.829  12.821 -0.4409  0.8750 -0.3086
   45DOPE   O22 5699   5.130   0.746  12.730  0.0974  0.2217  0.4723
   45DOPE   C22 5700   5.020   0.877  12.903 -0.0263 -0.2704 -0.0613
   45DOPE   H2R 5701   5.021   0.985  12.930  0.7814 -0.3514  0.2667
   45DOPE   H2S 5702   5.024   0.824  13.001  1.0186 -0.1855 -0.0423
   45DOPE    C3 5703   5.460   0.787  12.872 -0.6382 -0.3891 -0.0381
   45DOPE    HX 5704   5.488   0.856  12.954  1.8884 -1.0562 -0.2559
   45DOPE    HY 5705   5.552   0.759  12.817  0.3393  0.0209  1.3336
   45DOPE   O31 5706   5.403   0.663  12.926  0.2305 -0.4577  0.1879
   45DOPE   C31 5707   5.432   0.551  12.859 -0.1151  0.6570  0.4027
   45DOPE   O32 5708   5.466   0.547  12.746  0.3361 -0.6029  0.2779
   45DOPE   C32 5709   5.410   0.431  12.950  0.2881  0.0463  0.8997
   45DOPE   H2X 5710   5.326   0.373  12.905  2.2769 -0.8994 -1.8347
   45DOPE   H2Y 5711   5.502   0.370  12.957  0.1979 -0.1641  0.3060
   45DOPE   C23 5712   4.890   0.851  12.828 -0.1479 -0.8490  0.5078
   45DOPE   H3R 5713   4.890   0.743  12.799 -0.4507 -0.5110 -0.8170
   45DOPE   H3S 5714   4.895   0.903  12.730 -0.9542 -2.0805 -0.2153
   45DOPE   C24 5715   4.765   0.884  12.902 -0.0220  0.2884 -0.1257
   45DOPE   H4R 5716   4.787   0.878  13.011  0.5987  0.5073 -0.2330
   45DOPE   H4S 5717   4.683   0.811  12.883 -0.3919  0.0932  1.9603
   45DOPE   C25 5718   4.719   1.027  12.874 -0.0549 -0.0954  0.3149
   45DOPE   H5R 5719   4.712   1.026  12.763 -0.7374 -1.6556  0.3410
   45DOPE   H5S 5720   4.801   1.100  12.892 -0.3431  0.4198 -0.3954
   45DOPE   C26 5721   4.588   1.062  12.935 -0.4999  0.8014 -0.6479
   45DOPE   H6R 5722   4.592   1.031  13.041  0.3283 -2.3797 -1.5199
   45DOPE   H6S 5723   4.511   0.997  12.889 -0.4131  1.0755 -1.1833
   45DOPE   C27 5724   4.560   1.207  12.928  0.3068 -0.4679  0.2027
   45DOPE   H7R 5725   4.452   1.234  12.932  0.2888  0.3482 -3.2014
   45DOPE   H7S 5726   4.588   1.232  12.824 -1.0245 -2.3654 -0.6644
   45DOPE   C28 5727   4.623   1.311  13.020 -0.5290  0.5003 -0.0215
   45DOPE   H8R 5728   4.732   1.295  13.003 -0.4114  0.9538  0.2873
   45DOPE   H8S 5729   4.598   1.281  13.124 -1.5984  2.3020  0.2785
   45DOPE   C29 5730   4.591   1.453  12.996 -0.3708  0.0418 -0.5628
   45DOPE   H9R 5731   4.598   1.487  12.891  2.6497 -1.1897 -0.8846
   45DOPE  C210 5732   4.563   1.541  13.092 -0.1447 -0.1592 -0.1330
   45DOPE  H10R 5733   4.550   1.648  13.071 -1.0445  0.1175  1.6596
   45DOPE  C211 5734   4.556   1.509  13.242 -0.0412  0.1598  0.5704
   45DOPE  H11R 5735   4.570   1.597  13.308 -2.1802  0.0139  1.2905
   45DOPE  H11S 5736   4.630   1.429  13.262 -0.5577 -0.0272  1.8583
   45DOPE  C212 5737   4.424   1.447  13.289 -0.4221  0.0197  0.6445
   45DOPE  H12R 5738   4.420   1.344  13.247  0.5386  0.2532 -0.0508
   45DOPE  H12S 5739   4.340   1.512  13.255 -0.6672  0.3271  1.7966
   45DOPE  C213 5740   4.426   1.415  13.443 -0.1292  0.3586 -0.2947
   45DOPE  H13R 5741   4.474   1.495  13.503 -0.2441 -0.1799  0.5322
   45DOPE  H13S 5742   4.484   1.322  13.460 -1.5393 -0.9867 -2.3143
   45DOPE  C214 5743   4.285   1.403  13.501  0.0429  0.0607  0.7647
   45DOPE  H14R 5744   4.273   1.376  13.608 -0.4010 -0.2383  0.6444
   45DOPE  H14S 5745   4.231   1.320  13.451  2.1744 -0.6079 -0.5530
   45DOPE  C215 5746   4.212   1.537  13.488 -0.1452 -0.2327 -0.2067
   45DOPE  H15R 5747   4.218   1.579  13.385  1.0989  0.2458  0.0555
   45DOPE  H15S 5748   4.264   1.609  13.554  0.3851  0.3485 -1.2279
   45DOPE  C216 5749   4.066   1.523  13.530 -0.2031 -0.3076  0.1579
   45DOPE  H16R 5750   4.069   1.464  13.624  2.5970 -0.0583  0.3099
   45DOPE  H16S 5751   4.013   1.461  13.455 -0.8320 -0.0533  0.3863
   45DOPE  C217 5752   3.999   1.660  13.551  0.3250 -0.1482 -0.0800
   45DOPE  H17R 5753   4.056   1.706  13.634 -0.9947  1.1506  0.1520
   45DOPE  H17S 5754   3.891   1.645  13.573 -0.3107  1.9851 -1.4159
   45DOPE  C218 5755   4.005   1.754  13.429  0.1411  0.2394 -0.2300
   45DOPE  H18R 5756   3.975   1.701  13.336 -0.9225  0.4987 -0.0547
   45DOPE  H18S 5757   4.106   1.792  13.404  0.8680 -1.9535 -0.7915
   45DOPE  H18T 5758   3.935   1.840  13.442  0.3250  0.0330  2.9807
   45DOPE   C33 5759   5.375   0.459  13.099  0.5355  0.7528 -0.1955
   45DOPE   H3X 5760   5.282   0.521  13.094  0.0948  0.0205 -2.9001
   45DOPE   H3Y 5761   5.455   0.513  13.154  1.1939 -0.0563 -0.3445
   45DOPE   C34 5762   5.345   0.325  13.164 -0.3757  0.0935 -0.2210
   45DOPE   H4X 5763   5.265   0.279  13.103 -0.6617 -1.8159  1.5067
   45DOPE   H4Y 5764   5.437   0.264  13.175 -0.1441  0.4740  0.0072
   45DOPE   C35 5765   5.303   0.337  13.311  0.7455 -0.3915 -0.8202
   45DOPE   H5X 5766   5.248   0.433  13.317  0.5026 -0.5646 -0.2334
   45DOPE   H5Y 5767   5.396   0.353  13.370  0.9718 -1.0150 -0.9992
   45DOPE   C36 5768   5.222   0.231  13.372  0.3446  0.4227  0.2430
   45DOPE   H6X 5769   5.143   0.189  13.306  1.1506 -0.4622 -0.1676
   45DOPE   H6Y 5770   5.170   0.274  13.461 -3.3793 -1.2827 -0.8887
   45DOPE   C37 5771   5.311   0.121  13.418 -0.3247 -0.5726  0.1670
   45DOPE   H7X 5772   5.373   0.090  13.331 -0.1022  0.8381 -0.2082
   45DOPE   H7Y 5773   5.367   0.163  13.504  0.5347 -0.7189 -0.3018
   45DOPE   C38 5774   5.232  -0.005  13.470 -0.3188  0.7105  0.5096
   45DOPE   H8X 5775   5.171  -0.034  13.382  1.2698  2.0021 -1.1193
   45DOPE   H8Y 5776   5.170   0.030  13.555 -1.6883 -2.1069  0.7967
   45DOPE   C39 5777   5.333  -0.114  13.503 -0.2403 -0.4739  0.0206
   45DOPE   H9X 5778   5.390  -0.158  13.420  0.8611  0.8206  0.0547
   45DOPE  C310 5779   5.348  -0.170  13.624  0.3834  0.1307  0.2176
   45DOPE  H10X 5780   5.407  -0.263  13.628  1.2190  0.6425  0.2752
   45DOPE  C311 5781   5.274  -0.126  13.755  0.8036  0.8045  0.1772
   45DOPE  H11X 5782   5.174  -0.086  13.728 -0.3871 -0.2939  2.5914
   45DOPE  H11Y 5783   5.236  -0.213  13.813 -0.2308 -0.7056 -2.5717
   45DOPE  C312 5784   5.341  -0.028  13.855  0.2679  0.3326  0.4489
   45DOPE  H12X 5785   5.267  -0.024  13.938  0.0877 -0.5417  0.3402
   45DOPE  H12Y 5786   5.359   0.074  13.814  0.3197  0.0986 -0.1163
   45DOPE  C313 5787   5.462  -0.095  13.917 -0.2978 -0.1492  0.2919
   45DOPE  H13X 5788   5.441  -0.201  13.944 -0.2684  0.0833  1.2473
   45DOPE  H13Y 5789   5.539  -0.108  13.838  0.5831  0.4802  1.0311
   45DOPE  C314 5790   5.530  -0.018  14.028  0.0019  0.3212  0.1495
   45DOPE  H14X 5791   5.460  -0.029  14.113 -2.2816  0.6911 -1.5736
   45DOPE  H14Y 5792   5.541   0.089  14.003  2.4993 -0.1961 -1.2511
   45DOPE  C315 5793   5.661  -0.087  14.063 -0.4433  0.1552 -0.2121
   45DOPE  H15X 5794   5.725  -0.076  13.973 -0.3156 -1.1733 -0.3029
   45DOPE  H15Y 5795   5.631  -0.193  14.075  3.0163 -1.0134 -0.9149
   45DOPE  C316 5796   5.722  -0.038  14.191 -0.0863  0.2072 -0.2933
   45DOPE  H16X 5797   5.654  -0.054  14.278  0.9572  1.7394  0.8680
   45DOPE  H16Y 5798   5.740   0.071  14.195 -0.5899  0.2761  0.2871
   45DOPE  C317 5799   5.863  -0.096  14.213 -0.2396 -0.5235  0.2337
   45DOPE  H17X 5800   5.903  -0.050  14.306  0.0591  0.8060 -0.5264
   45DOPE  H17Y 5801   5.866  -0.205  14.234  0.8685 -0.6687 -0.5737
   45DOPE  C318 5802   5.970  -0.050  14.119 -0.9548  0.0647 -0.1689
   45DOPE  H18X 5803   5.936  -0.036  14.014 -0.1165  1.2648 -0.2988
   45DOPE  H18Y 5804   5.993   0.056  14.143  0.9434  0.2845 -2.5833
   45DOPE  H18Z 5805   6.059  -0.116  14.121 -0.6988  0.3788 -0.9350
   46DOPE     N 5806   5.011   7.173  12.502 -0.3301  0.1254 -0.1636
   46DOPE   HN1 5807   5.108   7.210  12.499 -1.0740  2.0968 -0.7061
   46DOPE   HN2 5808   5.007   7.073  12.532  0.1700 -0.4561 -1.9386
   46DOPE   HN3 5809   4.969   7.176  12.407  0.1220 -1.2817 -0.4409
   46DOPE   C12 5810   4.917   7.255  12.588 -0.0940  0.0936  0.3451
   46DOPE  H12A 5811   4.890   7.199  12.679 -1.9299  0.6657  0.1962
   46DOPE  H12B 5812   4.822   7.262  12.531  1.4124 -0.2311 -2.4216
   46DOPE   C11 5813   4.984   7.388  12.610  0.1400 -0.3203 -0.4243
   46DOPE  H11A 5814   5.081   7.373  12.663 -0.1082 -1.3902 -0.2599
   46DOPE  H11B 5815   4.910   7.452  12.663 -0.4972 -2.5829  1.5712
   46DOPE     P 5816   4.912   7.527  12.395 -0.4725  0.1663  0.1870
   46DOPE   O13 5817   4.910   7.456  12.265 -0.1642  0.3840  0.0344
   46DOPE   O14 5818   4.932   7.677  12.392 -0.4325 -0.1990  0.1763
   46DOPE   O11 5819   4.769   7.512  12.460 -0.6017 -0.3155  0.2732
   46DOPE   O12 5820   5.009   7.453  12.487  0.1951 -0.8063 -0.4583
   46DOPE    C1 5821   4.676   7.617  12.488 -0.2804 -0.2736  0.1882
   46DOPE    HA 5822   4.576   7.568  12.477 -0.6660  0.3757  0.7077
   46DOPE    HB 5823   4.690   7.699  12.414  1.8156 -0.9496 -0.2221
   46DOPE    C2 5824   4.689   7.673  12.633  0.0006  0.9093 -0.6350
   46DOPE    HS 5825   4.797   7.695  12.649  1.0375 -1.4408 -3.4130
   46DOPE   O21 5826   4.640   7.564  12.712  0.2305 -0.0834  0.4086
   46DOPE   C21 5827   4.679   7.571  12.841 -0.1672 -0.2748 -0.0873
   46DOPE   O22 5828   4.787   7.619  12.873 -0.0198 -0.0384 -0.3926
   46DOPE   C22 5829   4.580   7.493  12.935  0.1508 -0.0963  0.3759
   46DOPE   H2R 5830   4.564   7.387  12.904 -0.4749  0.4599 -1.3200
   46DOPE   H2S 5831   4.478   7.534  12.924  0.9978  1.6752 -1.6905
   46DOPE    C3 5832   4.607   7.801  12.669  0.0226  0.3081 -0.6248
   46DOPE    HX 5833   4.498   7.776  12.665 -0.3076  1.5241  0.1823
   46DOPE    HY 5834   4.618   7.886  12.598 -0.5263  1.6207  0.7904
   46DOPE   O31 5835   4.631   7.844  12.806 -0.4737  0.2721  0.4744
   46DOPE   C31 5836   4.741   7.917  12.813 -0.3444 -0.2766 -0.2311
   46DOPE   O32 5837   4.822   7.940  12.727  0.3523  0.2352 -0.2910
   46DOPE   C32 5838   4.758   7.991  12.953  0.4133 -0.0437  0.2430
   46DOPE   H2X 5839   4.789   8.097  12.940  1.3217 -0.1452  1.3685
   46DOPE   H2Y 5840   4.655   7.994  12.993  0.1495 -2.4249 -0.0942
   46DOPE   C23 5841   4.624   7.494  13.081  0.1726  0.4700 -0.2442
   46DOPE   H3R 5842   4.732   7.494  13.107 -0.0139 -2.6274  0.9238
   46DOPE   H3S 5843   4.596   7.395  13.123  0.5608  0.4131 -0.1179
   46DOPE   C24 5844   4.543   7.592  13.166 -0.1948 -0.5346  0.1819
   46DOPE   H4R 5845   4.440   7.604  13.124  0.3116 -1.1578 -1.3032
   46DOPE   H4S 5846   4.596   7.689  13.166  1.3994 -1.2621 -2.9862
   46DOPE   C25 5847   4.518   7.543  13.309 -0.0383  0.2095 -0.1860
   46DOPE   H5R 5848   4.470   7.444  13.293  0.8884 -0.4352  0.8292
   46DOPE   H5S 5849   4.447   7.613  13.357 -0.4501 -0.9984  1.0377
   46DOPE   C26 5850   4.648   7.543  13.389  0.1518  0.6467 -0.7158
   46DOPE   H6R 5851   4.699   7.641  13.387  0.0862  0.7048  0.2626
   46DOPE   H6S 5852   4.715   7.475  13.332 -0.1119  0.4152 -0.7512
   46DOPE   C27 5853   4.627   7.503  13.535 -0.4819 -0.1584 -0.0542
   46DOPE   H7R 5854   4.728   7.496  13.580  0.7898  3.9493 -1.8437
   46DOPE   H7S 5855   4.576   7.404  13.544 -0.1541 -0.5509 -2.0126
   46DOPE   C28 5856   4.553   7.610  13.615  0.4311  0.1220  0.6414
   46DOPE   H8R 5857   4.459   7.633  13.561  1.4789  2.8121 -0.2686
   46DOPE   H8S 5858   4.612   7.705  13.609 -0.7227  0.8179 -0.3265
   46DOPE   C29 5859   4.528   7.555  13.752 -0.2827  0.1809  0.4422
   46DOPE   H9R 5860   4.607   7.582  13.824  0.8123  1.0172 -1.0299
   46DOPE  C210 5861   4.417   7.481  13.790 -0.0248 -0.1668  0.1599
   46DOPE  H10R 5862   4.413   7.451  13.896 -1.5632 -0.0757  0.1450
   46DOPE  C211 5863   4.291   7.449  13.717  0.1690  0.5668 -0.0480
   46DOPE  H11R 5864   4.267   7.515  13.631 -2.6680 -1.3053 -0.8341
   46DOPE  H11S 5865   4.204   7.477  13.780 -1.2580 -1.7228 -0.8442
   46DOPE  C212 5866   4.282   7.301  13.671  0.6578 -0.8214  0.2813
   46DOPE  H12R 5867   4.364   7.282  13.598  2.5395  4.3949  0.6536
   46DOPE  H12S 5868   4.180   7.292  13.626  0.9292  0.7973 -0.7325
   46DOPE  C213 5869   4.275   7.192  13.787  0.2807 -1.2167 -0.6608
   46DOPE  H13R 5870   4.371   7.199  13.842  0.1140  3.2865 -0.5799
   46DOPE  H13S 5871   4.255   7.088  13.752 -2.7534 -0.7087 -0.7123
   46DOPE  C214 5872   4.167   7.225  13.894  0.1380 -0.1112  0.0469
   46DOPE  H14R 5873   4.078   7.273  13.848  0.9392  0.8235 -0.5610
   46DOPE  H14S 5874   4.221   7.307  13.946 -1.2572  0.4293  0.6954
   46DOPE  C215 5875   4.133   7.112  13.998  0.2458 -0.1706  0.3292
   46DOPE  H15R 5876   4.226   7.079  14.049 -0.0060  0.9386  1.5549
   46DOPE  H15S 5877   4.084   7.034  13.936 -0.7301  0.8910 -0.2749
   46DOPE  C216 5878   4.046   7.166  14.110 -0.2562 -0.6135  0.2389
   46DOPE  H16R 5879   4.088   7.248  14.173 -3.1058  0.2400  1.1930
   46DOPE  H16S 5880   4.025   7.082  14.180 -1.1339 -1.1974 -0.7105
   46DOPE  C217 5881   3.923   7.239  14.059  0.1486  0.3607  0.0461
   46DOPE  H17R 5882   3.864   7.193  13.977  0.0833  0.1748  0.1977
   46DOPE  H17S 5883   3.954   7.338  14.020 -1.6731 -0.1948 -3.1179
   46DOPE  C218 5884   3.827   7.265  14.180 -0.1273  0.6547 -0.0243
   46DOPE  H18R 5885   3.888   7.304  14.265 -1.6541  2.7644  0.1920
   46DOPE  H18S 5886   3.765   7.176  14.203  1.3684 -0.4013  0.0219
   46DOPE  H18T 5887   3.769   7.351  14.140 -1.5069 -0.2851 -0.1031
   46DOPE   C33 5888   4.847   7.923  13.059  0.1973 -0.1264 -0.1887
   46DOPE   H3X 5889   4.954   7.921  13.029 -0.1283 -1.8067 -1.4073
   46DOPE   H3Y 5890   4.805   7.821  13.068  1.0528 -0.3434  1.7778
   46DOPE   C34 5891   4.845   7.991  13.198  0.2195 -0.1534 -1.0965
   46DOPE   H4X 5892   4.881   8.096  13.199  2.3881 -0.8003  1.9762
   46DOPE   H4Y 5893   4.738   7.998  13.228  0.6209  2.0853  0.0435
   46DOPE   C35 5894   4.914   7.911  13.319 -0.8137 -0.5615  0.2765
   46DOPE   H5X 5895   5.022   7.937  13.318 -0.3377 -2.0692  2.5877
   46DOPE   H5Y 5896   4.907   7.800  13.316 -1.0526 -0.7932  4.0455
   46DOPE   C36 5897   4.855   7.960  13.450  0.1276 -0.3504  0.1773
   46DOPE   H6X 5898   4.889   7.899  13.536  1.1007  0.9767  0.7765
   46DOPE   H6Y 5899   4.744   7.951  13.453  0.1921 -1.0932  2.3885
   46DOPE   C37 5900   4.890   8.107  13.481 -0.3118 -0.5140 -0.5659
   46DOPE   H7X 5901   5.001   8.107  13.477 -0.2676  2.1765 -1.3238
   46DOPE   H7Y 5902   4.856   8.175  13.399 -0.2949 -0.3329 -0.4234
   46DOPE   C38 5903   4.827   8.157  13.617 -0.2359  0.9602  1.0109
   46DOPE   H8X 5904   4.870   8.098  13.700  1.2168  1.1808  0.4340
   46DOPE   H8Y 5905   4.727   8.109  13.605  0.9007 -1.3959  0.5795
   46DOPE   C39 5906   4.831   8.302  13.634  0.0664 -0.7034 -0.1456
   46DOPE   H9X 5907   4.920   8.351  13.591 -0.6360  1.0786  0.3501
   46DOPE  C310 5908   4.739   8.371  13.703  0.4574 -0.1643  0.3224
   46DOPE  H10X 5909   4.741   8.480  13.693 -1.9537 -0.1207 -0.1545
   46DOPE  C311 5910   4.620   8.315  13.777 -0.4723  0.7873 -0.2567
   46DOPE  H11X 5911   4.547   8.268  13.707  0.0883 -2.3825  1.0825
   46DOPE  H11Y 5912   4.646   8.233  13.848  1.2026  1.7893  0.3362
   46DOPE  C312 5913   4.559   8.431  13.857  0.1283  0.0256  1.0646
   46DOPE  H12X 5914   4.646   8.479  13.907  0.4164  0.7650 -0.1112
   46DOPE  H12Y 5915   4.492   8.379  13.929 -0.2540 -0.9742  0.0142
   46DOPE  C313 5916   4.481   8.540  13.778 -0.3426  0.6794 -0.5278
   46DOPE  H13X 5917   4.526   8.544  13.676  0.6896 -0.8606 -0.1643
   46DOPE  H13Y 5918   4.375   8.509  13.774 -0.6886  0.4736  4.3170
   46DOPE  C314 5919   4.487   8.683  13.840 -0.0967  0.1787  0.0273
   46DOPE  H14X 5920   4.455   8.761  13.767 -1.4508  0.0365  0.4349
   46DOPE  H14Y 5921   4.595   8.705  13.855 -0.4636  0.9989  1.6905
   46DOPE  C315 5922   4.418   8.703  13.971 -0.6710  0.0692  0.1200
   46DOPE  H15X 5923   4.451   8.623  14.041  0.5008  0.3610 -0.0815
   46DOPE  H15Y 5924   4.310   8.690  13.952 -0.4939 -1.6416  0.0958
   46DOPE  C316 5925   4.467   8.833  14.050 -0.0293  0.4813 -0.3966
   46DOPE  H16X 5926   4.451   8.924  13.989 -0.7294 -0.8020 -2.1870
   46DOPE  H16Y 5927   4.577   8.826  14.069 -0.2365  0.8270  1.0920
   46DOPE  C317 5928   4.413   8.854  14.190  0.6720  0.7378  0.5066
   46DOPE  H17X 5929   4.303   8.842  14.183  0.9412 -2.1223 -0.0639
   46DOPE  H17Y 5930   4.438   8.768  14.256 -0.9104  0.8159  1.2372
   46DOPE  C318 5931   4.470   8.983  14.252  0.2746  0.3788  0.3987
   46DOPE  H18X 5932   4.427   9.011  14.350  1.0288 -2.7454  1.7670
   46DOPE  H18Y 5933   4.577   8.976  14.282  0.5111  0.3485 -0.4252
   46DOPE  H18Z 5934   4.462   9.069  14.183  0.8984 -0.3181 -0.5682
   47DOPE     N 5935   1.755   6.791  12.537 -0.9242  0.1236  0.3968
   47DOPE   HN1 5936   1.785   6.890  12.546  0.1181  0.0209 -1.5124
   47DOPE   HN2 5937   1.671   6.789  12.476 -0.0748 -0.0244 -0.8002
   47DOPE   HN3 5938   1.735   6.753  12.632 -1.2484 -1.2492 -0.1857
   47DOPE   C12 5939   1.850   6.698  12.470 -0.5007 -1.2907  0.9425
   47DOPE  H12A 5940   1.855   6.726  12.363  1.1264  1.0530  1.5332
   47DOPE  H12B 5941   1.807   6.596  12.467 -1.4687 -0.9121  1.3425
   47DOPE   C11 5942   1.989   6.706  12.537 -0.1927  0.0979 -0.3073
   47DOPE  H11A 5943   2.026   6.807  12.563 -0.9457  0.4664 -0.6545
   47DOPE  H11B 5944   2.059   6.667  12.460  0.0099 -1.0283  0.4059
   47DOPE     P 5945   2.134   6.601  12.727 -0.4665  0.4622 -0.4556
   47DOPE   O13 5946   2.242   6.606  12.625  0.2313  0.4156 -0.1432
   47DOPE   O14 5947   2.125   6.473  12.807 -0.1026  0.4510 -0.3674
   47DOPE   O11 5948   2.140   6.721  12.826 -0.0935  0.2942  0.3702
   47DOPE   O12 5949   1.998   6.619  12.653 -0.4870 -0.5382  0.1763
   47DOPE    C1 5950   2.021   6.796  12.853  0.2698 -0.1032  1.2587
   47DOPE    HA 5951   1.968   6.841  12.766  2.5400 -0.5261 -0.4383
   47DOPE    HB 5952   2.056   6.881  12.914 -0.4587  1.0775  0.0854
   47DOPE    C2 5953   1.922   6.726  12.956  0.0321 -0.1147  0.8144
   47DOPE    HS 5954   1.894   6.629  12.909  1.0934  0.3211 -0.7718
   47DOPE   O21 5955   1.808   6.798  13.002  0.8578 -0.3876  0.2120
   47DOPE   C21 5956   1.711   6.808  12.909  0.6905  0.5518  0.1409
   47DOPE   O22 5957   1.716   6.760  12.797 -0.3609  0.3117  0.0592
   47DOPE   C22 5958   1.599   6.889  12.966  0.5541 -0.0049  0.6763
   47DOPE   H2R 5959   1.503   6.838  12.947  0.2806  0.6969  0.1346
   47DOPE   H2S 5960   1.591   6.989  12.918 -1.5677 -0.4709 -0.0379
   47DOPE    C3 5961   2.007   6.696  13.086  0.4906  0.0297 -0.0988
   47DOPE    HX 5962   2.063   6.790  13.107  1.0440 -0.1213 -0.8494
   47DOPE    HY 5963   2.084   6.622  13.055  0.0071 -0.3569 -0.3934
   47DOPE   O31 5964   1.921   6.653  13.189 -0.6552  0.4772  0.2673
   47DOPE   C31 5965   1.890   6.526  13.202 -0.3898  0.7732 -0.6610
   47DOPE   O32 5966   1.932   6.434  13.129  0.1947 -0.0311  0.3021
   47DOPE   C32 5967   1.797   6.508  13.325  0.0265  0.2245  0.2964
   47DOPE   H2X 5968   1.740   6.597  13.358 -2.4992 -0.6866 -1.2825
   47DOPE   H2Y 5969   1.724   6.432  13.290  1.8637 -1.5967  0.1674
   47DOPE   C23 5970   1.613   6.926  13.120 -0.6705  0.4975  0.1624
   47DOPE   H3R 5971   1.709   6.974  13.150 -0.7723  0.2365  0.9382
   47DOPE   H3S 5972   1.606   6.839  13.189 -4.4325  0.7983  0.3427
   47DOPE   C24 5973   1.510   7.037  13.159  0.4691  0.7019  0.7872
   47DOPE   H4R 5974   1.406   7.006  13.132  0.2883  0.6884  1.4735
   47DOPE   H4S 5975   1.527   7.131  13.102 -1.8352  0.8696  0.2558
   47DOPE   C25 5976   1.495   7.057  13.313  0.1265 -0.2319 -0.1500
   47DOPE   H5R 5977   1.599   7.077  13.345  0.6551 -1.1477 -1.2278
   47DOPE   H5S 5978   1.465   6.966  13.368  1.3968  0.1361  1.1977
   47DOPE   C26 5979   1.403   7.173  13.347 -0.6641 -1.1181  0.2645
   47DOPE   H6R 5980   1.302   7.147  13.308 -1.3167 -0.6412  1.5639
   47DOPE   H6S 5981   1.443   7.268  13.306 -1.0809 -0.2511  1.8076
   47DOPE   C27 5982   1.373   7.202  13.497 -0.9187  0.2634 -0.1416
   47DOPE   H7R 5983   1.471   7.223  13.544 -0.4407  1.0202 -1.4196
   47DOPE   H7S 5984   1.332   7.111  13.546 -1.2600 -0.7000 -2.1245
   47DOPE   C28 5985   1.272   7.319  13.518 -0.3404  0.6351  0.7175
   47DOPE   H8R 5986   1.314   7.403  13.457  0.3978  0.1015  0.4684
   47DOPE   H8S 5987   1.270   7.348  13.625 -0.4698 -0.9993  1.1808
   47DOPE   C29 5988   1.139   7.268  13.462  0.2853 -0.3564  0.5461
   47DOPE   H9R 5989   1.130   7.293  13.355  0.8869  1.2900  0.8507
   47DOPE  C210 5990   1.053   7.195  13.535 -0.1858 -0.4033  0.2755
   47DOPE  H10R 5991   0.967   7.155  13.478 -0.5595  0.5301  0.1642
   47DOPE  C211 5992   1.062   7.131  13.671  0.3313  0.2571 -0.1891
   47DOPE  H11R 5993   0.977   7.164  13.734  0.0656  1.6679 -1.2465
   47DOPE  H11S 5994   1.158   7.161  13.718  1.7937 -0.4221 -2.5541
   47DOPE  C212 5995   1.053   6.977  13.669 -0.2146 -0.6464 -0.0323
   47DOPE  H12R 5996   1.142   6.923  13.630 -0.5678 -1.4466  0.2510
   47DOPE  H12S 5997   0.971   6.949  13.599  0.2333  0.1631 -0.9019
   47DOPE  C213 5998   1.023   6.905  13.802  0.2664  0.1203  0.0424
   47DOPE  H13R 5999   1.109   6.933  13.867  1.1977 -0.6820 -0.8094
   47DOPE  H13S 6000   1.028   6.797  13.775  0.4381  0.1199  0.0753
   47DOPE  C214 6001   0.893   6.946  13.878 -0.1733 -0.1794  0.0426
   47DOPE  H14R 6002   0.822   6.956  13.793 -1.7560 -1.5717  1.1503
   47DOPE  H14S 6003   0.903   7.043  13.931  0.7770 -0.8014  1.0409
   47DOPE  C215 6004   0.848   6.829  13.967  0.0444 -0.8616  0.2480
   47DOPE  H15R 6005   0.942   6.800  14.020  1.0993  1.1985 -0.4268
   47DOPE  H15S 6006   0.805   6.742  13.913 -2.3864  0.5514 -0.2372
   47DOPE  C216 6007   0.752   6.881  14.084  0.6503 -0.0751  0.3085
   47DOPE  H16R 6008   0.796   6.975  14.124  1.4100 -0.7135  1.0241
   47DOPE  H16S 6009   0.754   6.808  14.167 -0.4633 -0.5647 -0.0738
   47DOPE  C217 6010   0.606   6.879  14.039 -0.2226 -1.0094  0.7097
   47DOPE  H17R 6011   0.585   6.770  14.030  0.8730 -1.1970  0.2470
   47DOPE  H17S 6012   0.584   6.917  13.937  0.0045 -2.3258  0.1405
   47DOPE  C218 6013   0.507   6.934  14.145  1.0239  0.3921  0.0165
   47DOPE  H18R 6014   0.522   7.044  14.156  0.6460  0.3995  0.5132
   47DOPE  H18S 6015   0.519   6.880  14.241 -1.7605 -1.5658 -0.6359
   47DOPE  H18T 6016   0.405   6.915  14.108  1.4319 -3.2719  0.3623
   47DOPE   C33 6017   1.864   6.449  13.447  0.1865  0.3137 -0.8020
   47DOPE   H3X 6018   1.916   6.525  13.509 -0.2686 -1.3493  1.8095
   47DOPE   H3Y 6019   1.935   6.369  13.416 -0.2249 -1.0507  1.4953
   47DOPE   C34 6020   1.764   6.400  13.549 -0.1019  0.1419 -0.1478
   47DOPE   H4X 6021   1.677   6.468  13.556  0.8374  1.2149  2.1559
   47DOPE   H4Y 6022   1.719   6.304  13.516  0.5980  0.2955 -1.6273
   47DOPE   C35 6023   1.831   6.398  13.687 -0.1269  0.5843  0.4205
   47DOPE   H5X 6024   1.878   6.497  13.706 -0.3659  1.2141 -1.9576
   47DOPE   H5Y 6025   1.904   6.316  13.701  0.3383  1.0454  0.7214
   47DOPE   C36 6026   1.721   6.389  13.791 -0.3054  0.2613 -0.0871
   47DOPE   H6X 6027   1.669   6.292  13.777  0.8128 -0.6888  1.8505
   47DOPE   H6Y 6028   1.641   6.465  13.780  0.1752  0.5414 -1.7570
   47DOPE   C37 6029   1.787   6.387  13.931 -0.1357 -0.5108  0.0460
   47DOPE   H7X 6030   1.870   6.314  13.929 -1.3004 -1.8800 -0.1061
   47DOPE   H7Y 6031   1.827   6.489  13.950  0.9375 -1.0373  0.6698
   47DOPE   C38 6032   1.693   6.352  14.051 -0.6734  0.1491  0.3662
   47DOPE   H8X 6033   1.600   6.412  14.044  0.9701  2.6803 -2.1176
   47DOPE   H8Y 6034   1.737   6.393  14.144 -2.2946  1.7037  0.5081
   47DOPE   C39 6035   1.660   6.203  14.051 -0.3250 -0.0547 -0.3703
   47DOPE   H9X 6036   1.749   6.139  14.064 -1.4594 -1.2194  2.7209
   47DOPE  C310 6037   1.540   6.141  14.042  0.3978 -0.3636 -0.0401
   47DOPE  H10X 6038   1.542   6.031  14.042 -0.2435 -0.3787  0.6720
   47DOPE  C311 6039   1.406   6.212  14.031 -0.0813 -1.0309  0.4767
   47DOPE  H11X 6040   1.435   6.310  13.988  2.4818 -0.8383  2.4274
   47DOPE  H11Y 6041   1.347   6.167  13.948 -1.3191  0.0821  0.6988
   47DOPE  C312 6042   1.320   6.244  14.158 -0.1299 -0.0381  0.1925
   47DOPE  H12X 6043   1.245   6.322  14.132  0.7025  0.5794 -0.4327
   47DOPE  H12Y 6044   1.381   6.294  14.236  1.4986 -1.4214 -0.1325
   47DOPE  C313 6045   1.258   6.118  14.220 -0.3625  0.1112 -0.3629
   47DOPE  H13X 6046   1.181   6.067  14.159 -1.4016 -0.0168  0.9886
   47DOPE  H13Y 6047   1.338   6.043  14.237 -1.0034 -0.2752  1.0954
   47DOPE  C314 6048   1.181   6.153  14.351 -0.2501  0.1181 -0.4037
   47DOPE  H14X 6049   1.092   6.212  14.319 -0.7184 -0.6849 -0.6096
   47DOPE  H14Y 6050   1.245   6.216  14.417 -1.7925  0.9001  0.3948
   47DOPE  C315 6051   1.141   6.033  14.436 -0.0533  0.6554 -0.4169
   47DOPE  H15X 6052   1.229   5.966  14.424 -1.0931 -1.0919  1.2561
   47DOPE  H15Y 6053   1.072   5.972  14.373  3.8922 -1.5578 -3.0087
   47DOPE  C316 6054   1.076   6.062  14.574 -0.5014 -0.3792  0.4241
   47DOPE  H16X 6055   1.122   6.156  14.612  0.6999 -0.7945  0.0735
   47DOPE  H16Y 6056   1.083   5.981  14.649  0.2728  0.7482  1.6206
   47DOPE  C317 6057   0.929   6.083  14.555 -0.4459  0.0285  0.0027
   47DOPE  H17X 6058   0.913   6.162  14.479 -2.4426  0.5671  0.9185
   47DOPE  H17Y 6059   0.886   5.982  14.540 -0.2617  0.0641 -0.7800
   47DOPE  C318 6060   0.861   6.147  14.682 -0.4066  0.1613  0.3495
   47DOPE  H18X 6061   0.825   6.075  14.758 -0.9674  2.3782  2.2721
   47DOPE  H18Y 6062   0.938   6.209  14.733  0.8635 -1.1942  0.1695
   47DOPE  H18Z 6063   0.781   6.221  14.659 -0.4312  0.2574  0.7502
   48DOPE     N 6064   7.300   3.223  12.361 -0.9528 -0.5347  0.5801
   48DOPE   HN1 6065   7.231   3.148  12.385 -2.5642  1.5264  2.8785
   48DOPE   HN2 6066   7.278   3.308  12.417  1.0922  1.4090 -1.3925
   48DOPE   HN3 6067   7.287   3.254  12.263 -1.5224 -0.9389  0.5180
   48DOPE   C12 6068   7.441   3.167  12.371  0.3229  0.6915 -0.2877
   48DOPE  H12A 6069   7.511   3.252  12.358  1.1425  0.1995  0.8249
   48DOPE  H12B 6070   7.456   3.092  12.290  0.7827 -1.0362  1.3276
   48DOPE   C11 6071   7.466   3.112  12.513  0.3246  0.0247 -0.4244
   48DOPE  H11A 6072   7.464   3.200  12.580  2.7653 -1.4351  1.7215
   48DOPE  H11B 6073   7.570   3.073  12.516  0.1478 -0.6565 -2.0426
   48DOPE     P 6074   7.355   2.984  12.706 -0.3473  0.1981  0.1616
   48DOPE   O13 6075   7.488   2.972  12.773  0.3153 -0.1621 -0.1902
   48DOPE   O14 6076   7.264   2.869  12.730  0.5389  0.4278 -0.1296
   48DOPE   O11 6077   7.286   3.120  12.748  0.3220 -0.5692  0.5023
   48DOPE   O12 6078   7.369   3.012  12.552  0.1439  0.3991 -1.1491
   48DOPE    C1 6079   7.143   3.138  12.757  0.3709  0.1007 -0.3043
   48DOPE    HA 6080   7.085   3.051  12.720 -2.7197  1.2679  1.4293
   48DOPE    HB 6081   7.123   3.223  12.688  0.3400 -0.2923 -0.7888
   48DOPE    C2 6082   7.092   3.167  12.897 -0.3187  0.1509 -0.3377
   48DOPE    HS 6083   6.983   3.191  12.900 -0.2452  0.5052  2.7459
   48DOPE   O21 6084   7.166   3.286  12.953 -0.1486 -0.5611  0.2880
   48DOPE   C21 6085   7.095   3.384  13.003  0.3680 -0.3734  0.4147
   48DOPE   O22 6086   6.975   3.396  12.985  0.1993 -0.2959  0.3565
   48DOPE   C22 6087   7.187   3.483  13.079 -0.7400 -0.3451  0.0196
   48DOPE   H2R 6088   7.259   3.530  13.009 -1.0671  1.2177  0.6743
   48DOPE   H2S 6089   7.251   3.436  13.158  1.6729  0.8322 -1.1141
   48DOPE    C3 6090   7.126   3.050  12.991 -0.1187  0.1889  0.2864
   48DOPE    HX 6091   7.236   3.034  12.983  0.1065  2.3641 -1.7357
   48DOPE    HY 6092   7.091   2.956  12.942  0.0792  1.3959 -2.3075
   48DOPE   O31 6093   7.076   3.082  13.126 -0.2253  0.2416  0.5605
   48DOPE   C31 6094   7.164   3.089  13.217  0.2358  1.0091 -0.4761
   48DOPE   O32 6095   7.286   3.100  13.205  0.6666 -0.6278 -0.1652
   48DOPE   C32 6096   7.097   3.106  13.348  0.1888  0.4617  0.1146
   48DOPE   H2X 6097   7.157   3.154  13.429  1.6362 -3.2699  1.4848
   48DOPE   H2Y 6098   7.006   3.169  13.341  0.5261  0.8194 -1.3335
   48DOPE   C23 6099   7.104   3.594  13.148  0.7307  0.8123 -0.4205
   48DOPE   H3R 6100   7.034   3.626  13.067 -0.5938  0.1440  0.4252
   48DOPE   H3S 6101   7.152   3.691  13.172 -1.9369  2.1233  0.0268
   48DOPE   C24 6102   7.038   3.541  13.277  0.0453  0.3417  0.8291
   48DOPE   H4R 6103   6.984   3.447  13.251 -1.5231  1.4018  0.0555
   48DOPE   H4S 6104   6.975   3.629  13.304  0.9756  1.4636 -0.5326
   48DOPE   C25 6105   7.132   3.520  13.397  0.1326  0.0016  0.4769
   48DOPE   H5R 6106   7.196   3.610  13.409  2.6316 -1.7264  0.9323
   48DOPE   H5S 6107   7.203   3.438  13.371  0.2905  0.2653  0.0793
   48DOPE   C26 6108   7.070   3.474  13.531 -0.3379 -0.4636 -0.5449
   48DOPE   H6R 6109   7.014   3.378  13.530  1.0298 -1.4006  2.0861
   48DOPE   H6S 6110   6.999   3.556  13.557 -0.3456  0.0856 -2.1804
   48DOPE   C27 6111   7.175   3.473  13.648  0.2164  0.0939 -0.0196
   48DOPE   H7R 6112   7.118   3.446  13.739 -2.7242  1.4937 -1.3079
   48DOPE   H7S 6113   7.226   3.572  13.654  0.0220  0.1124  1.6047
   48DOPE   C28 6114   7.291   3.379  13.623 -0.8947  0.6288  0.6076
   48DOPE   H8R 6115   7.349   3.407  13.532  0.1086 -0.4695  0.8823
   48DOPE   H8S 6116   7.256   3.276  13.605  0.2913 -0.2137  2.7720
   48DOPE   C29 6117   7.389   3.366  13.735 -0.3216 -0.0068 -0.5985
   48DOPE   H9R 6118   7.481   3.421  13.710 -1.6325  1.9198 -1.4389
   48DOPE  C210 6119   7.381   3.280  13.845  0.5017 -0.2331  0.3326
   48DOPE  H10R 6120   7.464   3.276  13.916 -1.0423 -0.1069  2.2404
   48DOPE  C211 6121   7.268   3.191  13.881  0.0363 -0.6771 -0.9026
   48DOPE  H11R 6122   7.289   3.089  13.842 -1.1661 -0.8856 -1.0398
   48DOPE  H11S 6123   7.170   3.231  13.847  0.8594  3.1133  0.7326
   48DOPE  C212 6124   7.243   3.170  14.033  1.2102  0.2376 -0.3226
   48DOPE  H12R 6125   7.323   3.111  14.082  1.1806  0.8979  0.5474
   48DOPE  H12S 6126   7.148   3.111  14.035  1.1699  0.3099  0.0718
   48DOPE  C213 6127   7.214   3.300  14.115 -0.1970  0.9274  0.9589
   48DOPE  H13R 6128   7.169   3.370  14.042 -1.9500  0.9873  2.0605
   48DOPE  H13S 6129   7.315   3.339  14.140  1.2794 -0.7236 -1.8488
   48DOPE  C214 6130   7.124   3.286  14.243  0.4294 -0.9223  0.5848
   48DOPE  H14R 6131   7.175   3.214  14.309  2.3847  0.3882  0.5827
   48DOPE  H14S 6132   7.018   3.254  14.227  0.0317  0.0458  1.1999
   48DOPE  C215 6133   7.111   3.418  14.314  0.0300  0.0012 -0.4311
   48DOPE  H15R 6134   7.054   3.492  14.255 -0.5690  0.3627  0.5773
   48DOPE  H15S 6135   7.214   3.453  14.337  1.1064 -1.7653 -2.2475
   48DOPE  C216 6136   7.032   3.394  14.449  0.0664  0.0962 -0.2626
   48DOPE  H16R 6137   7.073   3.300  14.491 -0.7703  0.5493  1.6549
   48DOPE  H16S 6138   6.926   3.364  14.434 -0.8969  1.9093  2.3499
   48DOPE  C217 6139   7.039   3.508  14.553  0.2765 -0.3253 -0.3790
   48DOPE  H17R 6140   6.991   3.592  14.498 -3.4166 -0.6394  1.9814
   48DOPE  H17S 6141   7.146   3.534  14.566 -0.5467  3.1349  0.4647
   48DOPE  C218 6142   6.963   3.495  14.688 -0.9278 -0.4338 -0.0980
   48DOPE  H18R 6143   6.855   3.518  14.682 -0.8710  0.7773  2.2624
   48DOPE  H18S 6144   7.005   3.570  14.759 -2.9275 -0.0247  0.7087
   48DOPE  H18T 6145   6.980   3.392  14.725 -2.3795 -0.8863 -0.6306
   48DOPE   C33 6146   7.045   2.963  13.411  0.0789  0.2039  0.4503
   48DOPE   H3X 6147   7.128   2.891  13.423 -0.2373  0.0786  2.0793
   48DOPE   H3Y 6148   6.965   2.933  13.340  0.3161  1.5179 -0.4117
   48DOPE   C34 6149   6.988   2.986  13.550 -0.6605 -0.9170 -0.1785
   48DOPE   H4X 6150   7.051   3.056  13.609 -1.5899 -0.8330  0.7424
   48DOPE   H4Y 6151   6.892   3.040  13.534  1.6622  2.7238 -3.5881
   48DOPE   C35 6152   7.001   2.862  13.642  0.5425 -0.4130 -0.6136
   48DOPE   H5X 6153   6.960   2.885  13.743  0.8361 -2.0436 -0.1095
   48DOPE   H5Y 6154   7.108   2.835  13.651  0.4491 -0.7593 -0.5547
   48DOPE   C36 6155   6.924   2.741  13.592  0.4030  0.1435 -0.5494
   48DOPE   H6X 6156   6.940   2.655  13.660  0.2846  1.5167  1.2959
   48DOPE   H6Y 6157   6.971   2.697  13.501 -0.5151 -1.6515 -0.2033
   48DOPE   C37 6158   6.775   2.767  13.564  0.0023 -0.0090 -0.2189
   48DOPE   H7X 6159   6.741   2.850  13.629 -0.5947  0.5729 -1.2550
   48DOPE   H7Y 6160   6.756   2.804  13.461  0.6126  0.4744 -0.1628
   48DOPE   C38 6161   6.690   2.645  13.589 -0.4524 -0.1892  0.4342
   48DOPE   H8X 6162   6.584   2.674  13.574 -1.0897 -2.0578  1.0265
   48DOPE   H8Y 6163   6.700   2.628  13.699 -1.8186  1.2484  0.8144
   48DOPE   C39 6164   6.738   2.528  13.508 -0.3681 -0.4280 -0.6291
   48DOPE   H9X 6165   6.846   2.507  13.518  0.3706  1.9009 -2.6571
   48DOPE  C310 6166   6.666   2.439  13.439 -0.1163  0.0591 -0.3595
   48DOPE  H10X 6167   6.712   2.348  13.398  0.6166 -0.6364  1.8667
   48DOPE  C311 6168   6.516   2.451  13.433  0.3806 -0.8031  0.5604
   48DOPE  H11X 6169   6.465   2.465  13.530 -0.9428 -0.8226 -0.1149
   48DOPE  H11Y 6170   6.488   2.530  13.360  1.2021  0.4025  1.5149
   48DOPE  C312 6171   6.462   2.320  13.371  0.1737  0.4774  0.5345
   48DOPE  H12X 6172   6.506   2.308  13.269  0.6721 -0.6940  0.8684
   48DOPE  H12Y 6173   6.352   2.326  13.354  0.3117 -1.0109 -1.2527
   48DOPE  C313 6174   6.486   2.193  13.453  0.0602  0.2245 -0.5677
   48DOPE  H13X 6175   6.596   2.178  13.456  0.2723  1.5889 -0.6598
   48DOPE  H13Y 6176   6.448   2.215  13.556 -2.7339 -0.7581 -1.2930
   48DOPE  C314 6177   6.425   2.068  13.389  0.4852 -0.3231 -0.2718
   48DOPE  H14X 6178   6.496   2.042  13.308  1.0529 -0.6066  0.3052
   48DOPE  H14Y 6179   6.332   2.089  13.332  0.7361  2.1721  0.1155
   48DOPE  C315 6180   6.405   1.958  13.488  0.2725  0.2207 -0.0837
   48DOPE  H15X 6181   6.499   1.948  13.546 -0.4609 -1.4352  0.8776
   48DOPE  H15Y 6182   6.395   1.859  13.439  1.1873 -0.6369  1.3885
   48DOPE  C316 6183   6.287   1.970  13.590  0.4777 -0.3900 -0.3863
   48DOPE  H16X 6184   6.183   1.949  13.555  0.0525  1.0291 -0.0419
   48DOPE  H16Y 6185   6.286   2.078  13.613  0.1378 -0.5371  0.3126
   48DOPE  C317 6186   6.302   1.897  13.723  0.9324  0.7311  0.0828
   48DOPE  H17X 6187   6.406   1.910  13.758  0.8362  1.3396  0.1599
   48DOPE  H17Y 6188   6.248   1.942  13.810  2.8458 -2.8376  3.4233
   48DOPE  C318 6189   6.261   1.749  13.709 -0.4107  0.2310  0.0911
   48DOPE  H18X 6190   6.260   1.695  13.806 -0.7382 -2.5256 -1.3259
   48DOPE  H18Y 6191   6.157   1.743  13.670 -1.4432  1.7839  2.4073
   48DOPE  H18Z 6192   6.332   1.705  13.635  0.5708  1.0683  0.5084
   49DOPE     N 6193   1.042   6.259  12.183  0.7172  0.6933 -0.2138
   49DOPE   HN1 6194   1.037   6.205  12.094  2.0887 -1.3710  0.8844
   49DOPE   HN2 6195   0.972   6.220  12.250  0.9786  1.2232  0.3728
   49DOPE   HN3 6196   1.020   6.359  12.166 -2.5491  0.5350  2.0753
   49DOPE   C12 6197   1.178   6.246  12.246  0.0039  0.0773  0.3087
   49DOPE  H12A 6198   1.250   6.256  12.163 -1.3549  1.9326 -0.7365
   49DOPE  H12B 6199   1.188   6.148  12.298  0.6371  0.9486  1.9200
   49DOPE   C11 6200   1.199   6.356  12.345 -0.4573  0.3258 -0.1947
   49DOPE  H11A 6201   1.289   6.332  12.405 -1.2063  0.0439  0.8346
   49DOPE  H11B 6202   1.120   6.357  12.423  0.8485 -1.6417  1.2459
   49DOPE     P 6203   1.115   6.587  12.260 -0.0785 -0.0110  0.1383
   49DOPE   O13 6204   1.013   6.531  12.165 -0.3480 -0.5994 -0.6433
   49DOPE   O14 6205   1.176   6.717  12.222  0.5993 -0.5429 -0.2169
   49DOPE   O11 6206   1.047   6.598  12.404  0.2338  0.0346  0.2655
   49DOPE   O12 6207   1.225   6.482  12.281  0.0885  0.0786 -0.2209
   49DOPE    C1 6208   1.079   6.699  12.502 -0.0036  0.0868 -0.0171
   49DOPE    HA 6209   0.998   6.725  12.574 -0.2544  3.6570 -1.3787
   49DOPE    HB 6210   1.106   6.795  12.454  1.3145  0.0699  0.6464
   49DOPE    C2 6211   1.197   6.651  12.585  0.4028  0.1482  0.1082
   49DOPE    HS 6212   1.290   6.645  12.523  0.5238 -1.4730  0.3992
   49DOPE   O21 6213   1.154   6.525  12.638  0.7323 -0.2606 -0.3690
   49DOPE   C21 6214   1.239   6.430  12.658 -0.6312  0.2658  0.1898
   49DOPE   O22 6215   1.362   6.447  12.640  0.6012 -0.1017 -0.1958
   49DOPE   C22 6216   1.186   6.290  12.692 -0.6603 -1.4448 -0.1859
   49DOPE   H2R 6217   1.113   6.272  12.609  1.4908  0.8373 -2.7667
   49DOPE   H2S 6218   1.129   6.312  12.784 -0.0066 -0.0373 -0.0990
   49DOPE    C3 6219   1.242   6.746  12.700  0.0874  0.5263 -0.4909
   49DOPE    HX 6220   1.259   6.835  12.637 -1.4857 -0.2135 -2.0351
   49DOPE    HY 6221   1.346   6.724  12.732 -0.3256 -3.7969 -1.4360
   49DOPE   O31 6222   1.148   6.764  12.811  0.5043 -0.1305  0.6098
   49DOPE   C31 6223   1.068   6.870  12.798 -0.2583  0.2081  0.0808
   49DOPE   O32 6224   1.075   6.948  12.709 -0.0682  0.1423  0.2283
   49DOPE   C32 6225   0.965   6.863  12.903  1.0395 -0.3442  0.0131
   49DOPE   H2X 6226   0.875   6.808  12.869  0.7270  0.9410 -1.3970
   49DOPE   H2Y 6227   1.006   6.797  12.982  0.7710  0.0028  0.4510
   49DOPE   C23 6228   1.287   6.179  12.713  0.3711  0.1572  0.1105
   49DOPE   H3R 6229   1.362   6.181  12.631  0.7661 -1.6932  0.3817
   49DOPE   H3S 6230   1.220   6.090  12.712 -0.1212  0.5067 -1.6928
   49DOPE   C24 6231   1.355   6.184  12.850 -0.3212  0.3082 -0.6617
   49DOPE   H4R 6232   1.421   6.272  12.863 -2.2019  1.7563 -0.5011
   49DOPE   H4S 6233   1.407   6.087  12.866 -0.6920  0.0782 -0.8229
   49DOPE   C25 6234   1.258   6.202  12.970  0.2778 -0.1006  0.4397
   49DOPE   H5R 6235   1.165   6.140  12.966  1.6440 -2.3292  1.3121
   49DOPE   H5S 6236   1.225   6.308  12.969  2.1942  0.5445 -1.1826
   49DOPE   C26 6237   1.315   6.151  13.103 -0.5878 -0.3514  0.5276
   49DOPE   H6R 6238   1.416   6.193  13.124 -0.3438 -0.4523 -0.3832
   49DOPE   H6S 6239   1.332   6.043  13.082  0.7491 -0.5433  2.3441
   49DOPE   C27 6240   1.227   6.168  13.231 -0.0834 -1.1159 -0.0077
   49DOPE   H7R 6241   1.235   6.276  13.259 -0.8662 -0.1894 -2.9934
   49DOPE   H7S 6242   1.272   6.101  13.307  1.3435  1.4968  1.6085
   49DOPE   C28 6243   1.080   6.141  13.214  0.4352  0.0437  0.1975
   49DOPE   H8R 6244   1.053   6.038  13.181 -1.7878  0.2474  1.1270
   49DOPE   H8S 6245   1.042   6.208  13.135 -1.2242  1.5569  2.1602
   49DOPE   C29 6246   0.992   6.166  13.340  0.4554  0.6535  0.2579
   49DOPE   H9R 6247   0.959   6.268  13.365 -3.0153 -0.3380  0.2450
   49DOPE  C210 6248   0.950   6.069  13.423 -0.9146 -0.5875  0.0977
   49DOPE  H10R 6249   0.904   6.096  13.519 -1.0030 -1.3752  0.2838
   49DOPE  C211 6250   0.990   5.925  13.411 -0.3032 -0.3832 -0.1004
   49DOPE  H11R 6251   1.013   5.887  13.309  0.0471  0.4396 -0.3325
   49DOPE  H11S 6252   0.891   5.879  13.431 -0.4772  0.7349  1.8519
   49DOPE  C212 6253   1.091   5.872  13.517 -0.3923  0.6744 -0.4247
   49DOPE  H12R 6254   1.184   5.931  13.507 -1.4999  2.9319  1.6083
   49DOPE  H12S 6255   1.113   5.770  13.480 -0.7833  0.4289  0.0100
   49DOPE  C213 6256   1.044   5.879  13.661  0.5964  0.2260 -0.0750
   49DOPE  H13R 6257   0.952   5.817  13.664  0.8622 -0.1317  1.6917
   49DOPE  H13S 6258   1.004   5.981  13.682  1.3051  0.4249  0.3324
   49DOPE  C214 6259   1.145   5.833  13.763 -0.4089  0.2945 -0.4960
   49DOPE  H14R 6260   1.226   5.909  13.765 -0.5878  0.4850 -0.4091
   49DOPE  H14S 6261   1.180   5.732  13.736  0.3551 -0.1585  1.9498
   49DOPE  C215 6262   1.102   5.806  13.912  0.0367  0.1213 -0.1197
   49DOPE  H15R 6263   1.013   5.740  13.923 -1.5420  1.7258 -2.2654
   49DOPE  H15S 6264   1.055   5.902  13.942 -0.9143  1.1139 -4.1813
   49DOPE  C216 6265   1.213   5.772  14.009 -0.0463 -0.2388 -0.1312
   49DOPE  H16R 6266   1.294   5.847  13.997 -1.3822  1.2442 -0.2864
   49DOPE  H16S 6267   1.268   5.678  13.988  2.5850  1.2186 -0.1623
   49DOPE  C217 6268   1.163   5.765  14.149  0.0096  0.2810  0.0498
   49DOPE  H17R 6269   1.086   5.685  14.148  0.9051 -0.6494  1.9369
   49DOPE  H17S 6270   1.117   5.860  14.182 -0.4992 -0.2043  0.7811
   49DOPE  C218 6271   1.280   5.727  14.245 -0.7367 -0.3334 -0.1707
   49DOPE  H18R 6272   1.340   5.821  14.245  1.1634 -1.4992  0.5268
   49DOPE  H18S 6273   1.338   5.642  14.203  0.3931  0.0602  0.5370
   49DOPE  H18T 6274   1.239   5.709  14.346  1.6672  0.6597  1.0724
   49DOPE   C33 6275   0.936   7.001  12.962  0.4701 -0.3890 -0.4631
   49DOPE   H3X 6276   0.870   7.061  12.895  1.7157  1.6032 -0.0002
   49DOPE   H3Y 6277   1.031   7.053  12.987 -0.9883  1.3046  2.1038
   49DOPE   C34 6278   0.865   6.977  13.090  0.0519 -0.3497 -0.5028
   49DOPE   H4X 6279   0.774   6.919  13.062 -2.2019  2.3064  0.7982
   49DOPE   H4Y 6280   0.942   6.926  13.151  1.3851  0.6391 -1.2939
   49DOPE   C35 6281   0.801   7.094  13.170 -0.5208 -0.1031  0.1590
   49DOPE   H5X 6282   0.723   7.141  13.106  0.5843 -0.7916 -1.7758
   49DOPE   H5Y 6283   0.874   7.174  13.193  0.1101 -0.6850  0.1982
   49DOPE   C36 6284   0.742   7.063  13.306  0.0464  0.0216 -0.4358
   49DOPE   H6X 6285   0.819   7.035  13.381 -0.1975  0.1022 -0.1523
   49DOPE   H6Y 6286   0.675   6.977  13.284 -1.2425  0.8727  0.0736
   49DOPE   C37 6287   0.653   7.179  13.356 -0.3402 -0.3033 -0.0104
   49DOPE   H7X 6288   0.708   7.275  13.369 -0.2253 -0.3252 -0.3243
   49DOPE   H7Y 6289   0.577   7.193  13.277  0.3608 -1.1356 -0.8532
   49DOPE   C38 6290   0.578   7.137  13.483  0.2368  0.0092  0.1411
   49DOPE   H8X 6291   0.528   7.044  13.450  0.6822 -0.0382 -0.4048
   49DOPE   H8Y 6292   0.502   7.217  13.499  2.9548  2.6122  0.9249
   49DOPE   C39 6293   0.667   7.132  13.608  0.1714  0.2106 -0.4732
   49DOPE   H9X 6294   0.773   7.151  13.585  0.1306  1.7520  0.5028
   49DOPE  C310 6295   0.630   7.166  13.728 -0.3242 -0.2009  0.2384
   49DOPE  H10X 6296   0.706   7.141  13.803  2.1244  2.3250 -1.1732
   49DOPE  C311 6297   0.483   7.181  13.773  0.4141 -0.4002  0.2173
   49DOPE  H11X 6298   0.435   7.228  13.684 -0.5160  0.5178  1.1809
   49DOPE  H11Y 6299   0.433   7.084  13.788 -0.4962  0.0508  0.1364
   49DOPE  C312 6300   0.473   7.270  13.896  0.2295 -0.1357  0.1271
   49DOPE  H12X 6301   0.501   7.375  13.874 -1.5517  0.5905  1.1068
   49DOPE  H12Y 6302   0.547   7.242  13.973  1.8647 -1.1042 -1.7112
   49DOPE  C313 6303   0.334   7.269  13.960  0.3130 -0.5979 -0.1649
   49DOPE  H13X 6304   0.257   7.303  13.887  0.4783  0.5234  0.1662
   49DOPE  H13Y 6305   0.294   7.173  13.998 -0.9727  0.4655  1.2811
   49DOPE  C314 6306   0.322   7.361  14.077  0.3053  0.7416 -0.1671
   49DOPE  H14X 6307   0.401   7.340  14.152  2.1650 -1.9576 -2.6203
   49DOPE  H14Y 6308   0.221   7.342  14.120  1.3345 -1.1343  1.5704
   49DOPE  C315 6309   0.324   7.505  14.029 -0.7277 -0.4883  0.4290
   49DOPE  H15X 6310   0.402   7.519  13.952 -0.3462  1.6786  1.1201
   49DOPE  H15Y 6311   0.354   7.574  14.111 -1.2942  0.7967 -0.3993
   49DOPE  C316 6312   0.190   7.572  13.981 -0.7902  0.8068 -0.5066
   49DOPE  H16X 6313   0.110   7.547  14.055 -0.7247  0.6388 -0.4930
   49DOPE  H16Y 6314   0.156   7.527  13.886  0.8436 -0.0816 -0.7044
   49DOPE  C317 6315   0.199   7.718  13.939 -0.3399  0.4213 -0.4239
   49DOPE  H17X 6316   0.266   7.766  14.013 -1.9536 -2.6123  3.3144
   49DOPE  H17Y 6317   0.250   7.727  13.840  1.1394  1.0038  0.3717
   49DOPE  C318 6318   0.060   7.791  13.918 -0.5083  0.4617  0.0457
   49DOPE  H18X 6319   0.017   7.813  14.018  0.8808 -2.2220  1.3643
   49DOPE  H18Y 6320   0.077   7.880  13.854 -0.4738  2.4118  2.5954
   49DOPE  H18Z 6321  -0.012   7.719  13.873 -1.7621  1.6385  0.0900
   50DOPE     N 6322   2.186   3.498  12.735 -0.0130  0.3436 -0.0254
   50DOPE   HN1 6323   2.209   3.586  12.685 -0.0265  0.3382 -0.0413
   50DOPE   HN2 6324   2.244   3.506  12.821  0.9646 -0.1904 -0.6203
   50DOPE   HN3 6325   2.209   3.420  12.669  0.0447  0.3789 -0.0466
   50DOPE   C12 6326   2.046   3.516  12.769 -0.3722  0.3544  0.4307
   50DOPE  H12A 6327   2.040   3.585  12.856 -0.5611 -0.3787  1.0086
   50DOPE  H12B 6328   2.001   3.420  12.803 -2.4239  1.6821  1.7279
   50DOPE   C11 6329   1.972   3.573  12.647 -0.2883  0.1024 -0.0895
   50DOPE  H11A 6330   1.861   3.574  12.659 -0.4324 -2.3248 -0.7564
   50DOPE  H11B 6331   1.977   3.509  12.556  0.3176  2.6012 -1.9270
   50DOPE     P 6332   1.936   3.839  12.596  0.0663 -0.0554 -0.2834
   50DOPE   O13 6333   1.821   3.824  12.507  0.1488  0.2899  0.0162
   50DOPE   O14 6334   2.039   3.939  12.560 -0.0371  0.0348 -0.4246
   50DOPE   O11 6335   1.887   3.864  12.744 -0.3828  0.7203  0.5110
   50DOPE   O12 6336   2.015   3.703  12.612  0.1978 -0.3282 -0.4421
   50DOPE    C1 6337   1.980   3.912  12.842 -0.0509  0.1915  0.3515
   50DOPE    HA 6338   2.030   4.004  12.806 -0.6946 -0.4768 -2.4797
   50DOPE    HB 6339   2.064   3.846  12.873  0.6653  0.2850 -1.2798
   50DOPE    C2 6340   1.902   3.945  12.979  0.0383 -0.3601 -0.4337
   50DOPE    HS 6341   1.918   3.857  13.045 -0.6927 -0.7251 -0.7339
   50DOPE   O21 6342   1.755   3.960  12.957 -0.1318  0.4161 -0.3879
   50DOPE   C21 6343   1.688   3.849  12.950  0.5514  0.9464  0.8605
   50DOPE   O22 6344   1.733   3.739  12.980 -0.4041 -0.2983 -0.7268
   50DOPE   C22 6345   1.549   3.865  12.903 -0.1222 -0.9573  0.4694
   50DOPE   H2R 6346   1.525   3.792  12.823 -0.6341  0.2134 -0.4782
   50DOPE   H2S 6347   1.541   3.969  12.865 -0.2953 -1.3180 -0.5082
   50DOPE    C3 6348   1.944   4.087  13.028  0.6477 -0.1194 -0.5090
   50DOPE    HX 6349   1.897   4.120  13.122  1.6887  1.2310 -0.4383
   50DOPE    HY 6350   1.893   4.147  12.950 -0.0697  1.1856  0.9250
   50DOPE   O31 6351   2.079   4.109  13.029  0.2483 -0.3886 -0.7244
   50DOPE   C31 6352   2.119   4.233  13.067  0.5078  1.0744 -0.3297
   50DOPE   O32 6353   2.045   4.323  13.107 -0.5239 -0.2334  0.1051
   50DOPE   C32 6354   2.272   4.240  13.066 -0.1301  0.1463  0.3178
   50DOPE   H2X 6355   2.311   4.173  12.987 -0.1231  1.6132 -0.9803
   50DOPE   H2Y 6356   2.299   4.340  13.024 -1.8299  0.1229 -0.9462
   50DOPE   C23 6357   1.451   3.842  13.021 -0.4028 -0.5891  1.0754
   50DOPE   H3R 6358   1.465   3.916  13.103 -1.4851  2.1962 -1.0865
   50DOPE   H3S 6359   1.465   3.744  13.072  0.3769 -0.5316  0.9836
   50DOPE   C24 6360   1.311   3.848  12.968 -0.0391  0.5018  0.4016
   50DOPE   H4R 6361   1.256   3.816  13.059 -0.7578 -0.7274 -0.4342
   50DOPE   H4S 6362   1.294   3.764  12.897  1.9331  0.6490 -0.3094
   50DOPE   C25 6363   1.260   3.984  12.914 -0.4803  0.3179 -0.0772
   50DOPE   H5R 6364   1.152   3.975  12.892 -0.0504 -1.2716 -1.7475
   50DOPE   H5S 6365   1.315   4.003  12.819 -1.4755 -0.1106 -0.7527
   50DOPE   C26 6366   1.293   4.109  13.005 -0.3668 -0.7486  0.7198
   50DOPE   H6R 6367   1.394   4.147  12.980 -0.5478  0.2235  1.4156
   50DOPE   H6S 6368   1.296   4.078  13.111 -2.0189  1.4076  1.4741
   50DOPE   C27 6369   1.187   4.221  12.983 -0.3038 -0.5219 -0.8232
   50DOPE   H7R 6370   1.099   4.209  13.051  1.1868  1.3319  1.5875
   50DOPE   H7S 6371   1.150   4.234  12.879 -1.1517  2.1804 -0.2519
   50DOPE   C28 6372   1.241   4.361  13.011  1.0976 -0.4069  0.3807
   50DOPE   H8R 6373   1.302   4.405  12.929 -0.1904 -0.4589 -0.6369
   50DOPE   H8S 6374   1.306   4.343  13.099  2.1447 -0.7674 -0.4479
   50DOPE   C29 6375   1.131   4.467  13.051 -0.3213  0.0914  0.1040
   50DOPE   H9R 6376   1.027   4.449  13.020  0.0472 -1.5176 -0.2911
   50DOPE  C210 6377   1.160   4.574  13.127  0.6341 -0.2311  0.7384
   50DOPE  H10R 6378   1.079   4.645  13.146 -0.1226 -1.3050  1.6368
   50DOPE  C211 6379   1.296   4.617  13.176  0.3588  0.2098  0.4630
   50DOPE  H11R 6380   1.356   4.659  13.092 -0.1531  2.5427  1.1755
   50DOPE  H11S 6381   1.356   4.531  13.212  1.7164  1.7088  1.9445
   50DOPE  C212 6382   1.301   4.717  13.296 -0.1706  0.4231  0.1157
   50DOPE  H12R 6383   1.395   4.703  13.354 -0.6423 -1.6186  0.4703
   50DOPE  H12S 6384   1.220   4.698  13.370 -1.5320  2.0641 -0.8696
   50DOPE  C213 6385   1.306   4.869  13.259 -0.8513  0.0575  0.4596
   50DOPE  H13R 6386   1.226   4.894  13.186 -2.4609 -0.0278  2.1256
   50DOPE  H13S 6387   1.405   4.903  13.221 -0.9590 -0.6370 -0.4672
   50DOPE  C214 6388   1.266   4.938  13.388 -0.3752 -0.1497  0.1247
   50DOPE  H14R 6389   1.165   4.903  13.416  0.0240 -1.1021  0.4153
   50DOPE  H14S 6390   1.254   5.044  13.357  3.4270  1.0828  2.1435
   50DOPE  C215 6391   1.359   4.942  13.511 -0.2719  0.0731 -0.5791
   50DOPE  H15R 6392   1.385   4.838  13.542 -2.2997 -0.5545 -0.8579
   50DOPE  H15S 6393   1.310   4.985  13.601  1.3144  0.9310 -0.0821
   50DOPE  C216 6394   1.496   5.020  13.509  0.6651  0.7332  0.1773
   50DOPE  H16R 6395   1.465   5.127  13.508 -2.9831 -0.1569  1.4172
   50DOPE  H16S 6396   1.540   4.998  13.410  1.1740  1.0331  0.3343
   50DOPE  C217 6397   1.602   4.984  13.611  0.3820  0.4179 -0.6370
   50DOPE  H17R 6398   1.696   5.041  13.596  1.3261 -1.0789 -0.6891
   50DOPE  H17S 6399   1.620   4.874  13.601 -0.1284  0.2194  0.4601
   50DOPE  C218 6400   1.543   5.001  13.763 -0.5162  0.0376  0.6890
   50DOPE  H18R 6401   1.489   5.099  13.769 -0.1549  0.3250 -0.5006
   50DOPE  H18S 6402   1.611   4.987  13.850 -2.5346 -0.9520  2.1781
   50DOPE  H18T 6403   1.472   4.918  13.782  0.3173 -1.1410 -1.1836
   50DOPE   C33 6404   2.325   4.223  13.209 -0.2679  0.7837 -0.1241
   50DOPE   H3X 6405   2.273   4.299  13.271 -2.4264 -0.9132  0.2813
   50DOPE   H3Y 6406   2.435   4.231  13.203 -0.0116 -1.9400 -0.2098
   50DOPE   C34 6407   2.313   4.077  13.262  0.3923 -0.5806 -0.4191
   50DOPE   H4X 6408   2.223   4.029  13.218 -0.5079  0.1904  0.4953
   50DOPE   H4Y 6409   2.405   4.024  13.232  0.3961 -0.3679 -0.7978
   50DOPE   C35 6410   2.320   4.073  13.416 -0.4842 -0.1876  0.2014
   50DOPE   H5X 6411   2.241   4.141  13.454  0.7783  1.6593 -0.3341
   50DOPE   H5Y 6412   2.417   4.111  13.454 -1.0336  0.9262  0.5131
   50DOPE   C36 6413   2.300   3.927  13.470 -0.3657 -0.5815  0.3341
   50DOPE   H6X 6414   2.364   3.864  13.405  1.5141  0.4271  1.1374
   50DOPE   H6Y 6415   2.191   3.906  13.463 -0.2225 -0.8902 -1.6115
   50DOPE   C37 6416   2.354   3.904  13.609 -0.3899 -0.2171 -0.0469
   50DOPE   H7X 6417   2.459   3.939  13.615  0.8229 -2.9552 -2.5072
   50DOPE   H7Y 6418   2.303   3.974  13.679 -1.2153 -0.3243 -0.5320
   50DOPE   C38 6419   2.361   3.763  13.658 -0.0747 -0.7836  0.3712
   50DOPE   H8X 6420   2.388   3.767  13.766  0.2512  1.4878  0.2694
   50DOPE   H8Y 6421   2.440   3.703  13.608  1.9181  1.4593  0.6023
   50DOPE   C39 6422   2.229   3.693  13.639  0.4350  0.5734  0.0650
   50DOPE   H9X 6423   2.197   3.679  13.534 -1.4709  2.3629  0.3423
   50DOPE  C310 6424   2.146   3.647  13.733  0.5721  0.1094 -0.4007
   50DOPE  H10X 6425   2.056   3.593  13.702  1.1413 -0.3474 -1.3034
   50DOPE  C311 6426   2.182   3.652  13.880  0.6333  0.4454 -0.0075
   50DOPE  H11X 6427   2.290   3.646  13.905  0.2897  0.7713  1.6926
   50DOPE  H11Y 6428   2.143   3.747  13.924  0.1772  0.5450 -0.6202
   50DOPE  C312 6429   2.129   3.529  13.948  0.6471 -0.3964 -0.2977
   50DOPE  H12X 6430   2.165   3.428  13.920 -1.9861 -1.9621  1.4267
   50DOPE  H12Y 6431   2.019   3.524  13.931  0.7724  0.8788 -1.6505
   50DOPE  C313 6432   2.151   3.530  14.098  0.5755 -0.0603 -0.2980
   50DOPE  H13X 6433   2.094   3.621  14.129 -0.5885  0.0231 -2.4570
   50DOPE  H13Y 6434   2.097   3.445  14.144 -1.7657  1.6896  0.3897
   50DOPE  C314 6435   2.295   3.513  14.147 -0.4196 -0.8162 -0.2458
   50DOPE  H14X 6436   2.355   3.596  14.102 -0.5973  0.2941  1.4672
   50DOPE  H14Y 6437   2.324   3.415  14.105 -2.4109 -1.7546  0.4855
   50DOPE  C315 6438   2.307   3.524  14.304 -0.3581 -0.5690  0.2832
   50DOPE  H15X 6439   2.267   3.434  14.353  0.1978 -1.2760 -0.5311
   50DOPE  H15Y 6440   2.248   3.604  14.353  0.0582 -0.3600  0.4548
   50DOPE  C316 6441   2.454   3.548  14.351  0.3241 -0.3892  0.2217
   50DOPE  H16X 6442   2.452   3.585  14.456  2.5238  1.3099 -0.2691
   50DOPE  H16Y 6443   2.486   3.631  14.285 -1.7959  0.2003 -0.1347
   50DOPE  C317 6444   2.547   3.428  14.332  0.1345  0.1532 -0.6750
   50DOPE  H17X 6445   2.622   3.441  14.413 -1.1892  2.9891  0.2498
   50DOPE  H17Y 6446   2.485   3.338  14.353 -1.6387  1.1140 -1.5482
   50DOPE  C318 6447   2.620   3.413  14.198 -0.0307 -0.9250  0.2645
   50DOPE  H18X 6448   2.557   3.450  14.115 -0.2292 -1.1410  0.3164
   50DOPE  H18Y 6449   2.716   3.469  14.200  0.6447 -1.7252 -3.0353
   50DOPE  H18Z 6450   2.652   3.307  14.184  0.5194 -0.8174  0.6662
   51DOPE     N 6451   3.405   7.383  12.189 -0.4534  0.1773 -0.3989
   51DOPE   HN1 6452   3.494   7.340  12.155  0.3153  1.4884 -0.1313
   51DOPE   HN2 6453   3.321   7.326  12.166  0.1710 -0.7564 -0.4211
   51DOPE   HN3 6454   3.394   7.476  12.144  0.3694 -0.3664 -1.7917
   51DOPE   C12 6455   3.422   7.412  12.334  0.2992 -0.0241 -0.3737
   51DOPE  H12A 6456   3.417   7.320  12.395 -0.1800  1.6520  2.2655
   51DOPE  H12B 6457   3.342   7.479  12.371  1.1671  1.8483 -1.6915
   51DOPE   C11 6458   3.563   7.467  12.363 -0.5254  0.6103  0.6017
   51DOPE  H11A 6459   3.571   7.451  12.473  2.1635 -1.3163  0.2387
   51DOPE  H11B 6460   3.573   7.574  12.338  0.4509  0.3549 -0.1737
   51DOPE     P 6461   3.808   7.432  12.267  0.4566 -0.1158 -0.1090
   51DOPE   O13 6462   3.825   7.502  12.135 -0.1118  0.1161 -0.8806
   51DOPE   O14 6463   3.899   7.315  12.283 -0.6398  0.1808 -0.0110
   51DOPE   O11 6464   3.832   7.537  12.385  0.1543 -0.6143 -0.0364
   51DOPE   O12 6465   3.655   7.377  12.296  0.5166 -0.2829 -0.0569
   51DOPE    C1 6466   3.951   7.525  12.465  0.0408  0.4674  0.6571
   51DOPE    HA 6467   3.989   7.625  12.495  1.2937  0.3732 -0.5212
   51DOPE    HB 6468   4.029   7.476  12.403 -0.9966  1.6187 -1.6443
   51DOPE    C2 6469   3.924   7.447  12.597  0.1734  0.0516 -0.0047
   51DOPE    HS 6470   3.886   7.344  12.578 -1.7503  0.9658 -1.4193
   51DOPE   O21 6471   3.824   7.531  12.662 -0.4832 -0.0488 -0.2838
   51DOPE   C21 6472   3.762   7.468  12.762 -0.1586  0.2519  0.2627
   51DOPE   O22 6473   3.774   7.351  12.789  0.3200  0.0769  0.4215
   51DOPE   C22 6474   3.674   7.573  12.822 -0.4277 -0.1690  0.7640
   51DOPE   H2R 6475   3.609   7.601  12.736  0.5848  3.1136  0.9321
   51DOPE   H2S 6476   3.733   7.663  12.848  0.8692 -0.8949  0.4025
   51DOPE    C3 6477   4.051   7.438  12.685  1.1268  0.2016  1.3319
   51DOPE    HX 6478   4.123   7.362  12.646  0.4413  0.1684  0.0443
   51DOPE    HY 6479   4.015   7.389  12.778 -1.7798 -1.8181 -0.6593
   51DOPE   O31 6480   4.119   7.569  12.686  0.5705 -0.4964  0.3288
   51DOPE   C31 6481   4.094   7.638  12.793 -0.8137  0.2588 -0.4181
   51DOPE   O32 6482   4.003   7.623  12.874  0.0783 -0.1788 -0.5897
   51DOPE   C32 6483   4.208   7.751  12.807  0.6218  0.6887  0.0835
   51DOPE   H2X 6484   4.298   7.717  12.751 -0.1140 -1.5851  0.1653
   51DOPE   H2Y 6485   4.151   7.834  12.759 -2.0637  0.8852  3.1771
   51DOPE   C23 6486   3.588   7.521  12.943  0.0193 -0.0568 -0.3362
   51DOPE   H3R 6487   3.553   7.419  12.917  1.7911 -0.9041  0.3905
   51DOPE   H3S 6488   3.503   7.590  12.960  0.3127 -0.1721  1.8657
   51DOPE   C24 6489   3.670   7.537  13.075  0.3594  0.6429  0.5703
   51DOPE   H4R 6490   3.713   7.639  13.072  4.0379 -0.7465 -1.6527
   51DOPE   H4S 6491   3.754   7.464  13.069 -0.5862 -0.4109 -0.3644
   51DOPE   C25 6492   3.585   7.500  13.201  0.4130  0.2308  0.4110
   51DOPE   H5R 6493   3.492   7.444  13.176  1.7390 -2.3718  0.9696
   51DOPE   H5S 6494   3.538   7.590  13.245  1.5171  0.3567  1.3455
   51DOPE   C26 6495   3.659   7.399  13.292  0.8341 -0.2687  0.1479
   51DOPE   H6R 6496   3.764   7.436  13.302  0.1938  1.9515 -0.7352
   51DOPE   H6S 6497   3.658   7.298  13.246 -0.0296  0.1374 -0.7608
   51DOPE   C27 6498   3.588   7.376  13.420  0.4605  0.5999 -0.8784
   51DOPE   H7R 6499   3.489   7.329  13.401  1.1463 -1.9784  1.3410
   51DOPE   H7S 6500   3.573   7.469  13.479  0.5687 -1.7676  3.2898
   51DOPE   C28 6501   3.674   7.297  13.527  0.4790  0.6024 -0.1494
   51DOPE   H8R 6502   3.649   7.324  13.631  2.4881  1.1955  0.2369
   51DOPE   H8S 6503   3.784   7.314  13.518  0.6206 -0.9164 -1.7200
   51DOPE   C29 6504   3.654   7.146  13.514 -1.1177  0.2811 -0.7384
   51DOPE   H9R 6505   3.709   7.111  13.426 -2.5646  0.6042 -1.8067
   51DOPE  C210 6506   3.597   7.066  13.603 -0.1200  0.5545  0.2661
   51DOPE  H10R 6507   3.595   6.960  13.572  0.4580  1.0620 -1.6275
   51DOPE  C211 6508   3.531   7.109  13.736  0.1908 -0.7704  0.1335
   51DOPE  H11R 6509   3.428   7.070  13.755  0.1989 -1.7486 -1.6938
   51DOPE  H11S 6510   3.520   7.219  13.748 -1.9898 -0.6681 -2.1152
   51DOPE  C212 6511   3.624   7.058  13.839 -0.7377  0.3812  0.0913
   51DOPE  H12R 6512   3.583   7.087  13.938 -2.2728  1.0355 -0.7054
   51DOPE  H12S 6513   3.725   7.096  13.813 -0.9363 -1.8175 -4.9457
   51DOPE  C213 6514   3.632   6.905  13.839  0.5704 -0.2132  0.8359
   51DOPE  H13R 6515   3.693   6.868  13.754 -0.2641  0.8027 -0.2267
   51DOPE  H13S 6516   3.535   6.852  13.833  0.4950 -0.0582  0.6819
   51DOPE  C214 6517   3.691   6.847  13.969 -0.6122 -0.4602  0.2310
   51DOPE  H14R 6518   3.677   6.737  13.960  2.6549 -0.9806  0.4986
   51DOPE  H14S 6519   3.629   6.883  14.054 -2.5210  0.6204 -1.5167
   51DOPE  C215 6520   3.841   6.873  13.978  0.6097  0.4147 -0.0241
   51DOPE  H15R 6521   3.851   6.979  13.946  0.3466  0.9346  1.5621
   51DOPE  H15S 6522   3.888   6.813  13.896 -0.7479 -1.5474  0.5474
   51DOPE  C216 6523   3.907   6.843  14.118 -0.6087 -0.1728 -0.2095
   51DOPE  H16R 6524   3.854   6.914  14.185 -2.5285 -0.8112 -0.9996
   51DOPE  H16S 6525   4.017   6.860  14.108 -1.0169  2.3706 -1.2136
   51DOPE  C217 6526   3.879   6.704  14.170  0.0764 -1.3341  1.0066
   51DOPE  H17R 6527   3.918   6.630  14.098 -3.0129 -0.3420 -1.9697
   51DOPE  H17S 6528   3.768   6.700  14.179 -0.3501  0.3646 -1.9756
   51DOPE  C218 6529   3.941   6.692  14.305 -0.3244  0.1006 -0.4154
   51DOPE  H18R 6530   3.872   6.658  14.385  0.8840 -0.2671  0.5088
   51DOPE  H18S 6531   3.985   6.787  14.340  1.5002  0.0391 -2.3010
   51DOPE  H18T 6532   4.020   6.614  14.301 -0.8378 -0.4443 -0.1214
   51DOPE   C33 6533   4.234   7.789  12.954 -0.1952 -0.0845  0.4351
   51DOPE   H3X 6534   4.307   7.719  13.000  0.1188 -0.1781 -0.1886
   51DOPE   H3Y 6535   4.136   7.790  13.006 -0.6336 -0.3831 -0.3782
   51DOPE   C34 6536   4.283   7.936  12.952 -0.1413  0.5804  0.3484
   51DOPE   H4X 6537   4.348   7.963  12.866 -2.8373  1.3466 -1.5915
   51DOPE   H4Y 6538   4.189   7.995  12.944 -0.7162 -0.2200  0.9664
   51DOPE   C35 6539   4.359   7.972  13.087  0.2119 -0.0897 -0.1153
   51DOPE   H5X 6540   4.456   7.917  13.090  1.3712  1.7760 -1.3664
   51DOPE   H5Y 6541   4.293   7.947  13.172 -0.8935  0.1749 -0.8764
   51DOPE   C36 6542   4.391   8.115  13.096  0.3065  0.3418 -0.2587
   51DOPE   H6X 6543   4.297   8.170  13.077  0.1972  0.0573 -0.5493
   51DOPE   H6Y 6544   4.465   8.141  13.017  0.7877  0.4797  0.2280
   51DOPE   C37 6545   4.462   8.151  13.234 -0.3977 -0.2969  0.0750
   51DOPE   H7X 6546   4.391   8.116  13.312  1.4416 -0.1886  1.9032
   51DOPE   H7Y 6547   4.550   8.084  13.245 -0.2509 -0.0299  0.5986
   51DOPE   C38 6548   4.515   8.298  13.257  0.3426  0.1551 -0.4224
   51DOPE   H8X 6549   4.561   8.307  13.358 -0.7898 -1.6989  0.3068
   51DOPE   H8Y 6550   4.422   8.359  13.250 -0.1786 -0.7025 -1.2702
   51DOPE   C39 6551   4.614   8.346  13.153  0.9166 -0.8230 -0.5686
   51DOPE   H9X 6552   4.626   8.289  13.061  0.3275  0.5939 -1.5598
   51DOPE  C310 6553   4.656   8.472  13.145 -0.0758  0.1577 -0.4346
   51DOPE  H10X 6554   4.718   8.507  13.062 -0.4610  1.3529 -0.2402
   51DOPE  C311 6555   4.637   8.581  13.249  0.3014 -0.4641  0.0707
   51DOPE  H11X 6556   4.644   8.683  13.206  1.8152  0.2018  1.7688
   51DOPE  H11Y 6557   4.544   8.572  13.310 -0.5548 -0.0741 -1.1434
   51DOPE  C312 6558   4.754   8.574  13.343 -0.7567 -0.2313 -0.0318
   51DOPE  H12X 6559   4.848   8.595  13.287  0.7245 -2.5331  1.4040
   51DOPE  H12Y 6560   4.760   8.475  13.393 -0.6877 -0.1791  0.0628
   51DOPE  C313 6561   4.727   8.685  13.449 -0.2870  0.2140 -0.6155
   51DOPE  H13X 6562   4.691   8.782  13.408 -1.6160 -0.6293 -1.5276
   51DOPE  H13Y 6563   4.641   8.643  13.505 -1.1790  0.4890 -1.7460
   51DOPE  C314 6564   4.852   8.706  13.534 -0.5399  0.3482  0.0898
   51DOPE  H14X 6565   4.942   8.733  13.474 -0.0818 -0.8077  0.2433
   51DOPE  H14Y 6566   4.878   8.607  13.577 -0.8154  0.2463  0.0241
   51DOPE  C315 6567   4.826   8.792  13.662 -0.3228  0.0631  0.6997
   51DOPE  H15X 6568   4.917   8.777  13.724  0.9254 -2.9038 -1.5806
   51DOPE  H15Y 6569   4.746   8.741  13.719 -0.0152  0.8410  1.8737
   51DOPE  C316 6570   4.810   8.942  13.625  0.2825  0.6468  0.5308
   51DOPE  H16X 6571   4.747   8.972  13.538  1.9721  2.1619 -0.2204
   51DOPE  H16Y 6572   4.904   8.981  13.582 -0.8323  1.0220 -1.6891
   51DOPE  C317 6573   4.761   9.018  13.748 -0.0061 -0.0543  0.1018
   51DOPE  H17X 6574   4.756   9.129  13.741 -0.3828 -0.1223 -0.7698
   51DOPE  H17Y 6575   4.652   9.007  13.769  0.2334 -1.1191  0.8677
   51DOPE  C318 6576   4.826   8.993  13.880  0.1670 -0.4230 -0.6519
   51DOPE  H18X 6577   4.796   8.896  13.924  1.9586 -0.5039  0.4677
   51DOPE  H18Y 6578   4.936   8.992  13.889  0.1436  0.1848 -0.1989
   51DOPE  H18Z 6579   4.807   9.072  13.956  0.6270 -0.1803 -0.7844
   52DOPE     N 6580   7.530   3.603  12.800 -0.2134  0.1244 -0.0087
   52DOPE   HN1 6581   7.463   3.528  12.772 -0.7570  1.4218 -2.4737
   52DOPE   HN2 6582   7.472   3.689  12.789  1.8426  1.3567 -2.0561
   52DOPE   HN3 6583   7.601   3.622  12.726  0.0766 -2.0264 -0.3624
   52DOPE   C12 6584   7.594   3.592  12.939  0.6947  0.6771  0.3223
   52DOPE  H12A 6585   7.623   3.486  12.956  0.6248  0.2399 -2.0344
   52DOPE  H12B 6586   7.519   3.614  13.018  1.9249  2.6759  1.0216
   52DOPE   C11 6587   7.707   3.694  12.952  0.3044 -0.1034 -0.8237
   52DOPE  H11A 6588   7.732   3.703  13.060  1.3290 -0.9795 -0.9697
   52DOPE  H11B 6589   7.668   3.796  12.934  0.1592  0.0790  0.4631
   52DOPE     P 6590   7.914   3.562  12.885 -0.3034 -0.3750  0.0059
   52DOPE   O13 6591   8.044   3.599  12.832  0.3386 -0.3902 -0.0528
   52DOPE   O14 6592   7.856   3.433  12.853  0.0303  0.0552 -0.3511
   52DOPE   O11 6593   7.918   3.560  13.042  0.3066 -0.5157  0.3355
   52DOPE   O12 6594   7.813   3.678  12.861 -0.4542 -0.0686 -0.3337
   52DOPE    C1 6595   8.024   3.479  13.093  0.4199  0.5628  0.8188
   52DOPE    HA 6596   8.122   3.523  13.066  1.5750 -1.6723  1.1201
   52DOPE    HB 6597   8.026   3.374  13.057 -1.0036  1.0900 -0.9530
   52DOPE    C2 6598   8.027   3.465  13.247 -0.5950 -0.6177  0.7885
   52DOPE    HS 6599   7.925   3.439  13.281 -1.0146  0.3826  0.3529
   52DOPE   O21 6600   8.062   3.600  13.283 -0.1826 -0.2607  0.2688
   52DOPE   C21 6601   8.034   3.629  13.411 -0.3641  0.9202 -0.0743
   52DOPE   O22 6602   7.952   3.570  13.476  0.3958  0.6086  0.5062
   52DOPE   C22 6603   8.113   3.749  13.459 -0.6178  0.0695  0.5703
   52DOPE   H2R 6604   8.040   3.832  13.450 -1.4569 -0.8158 -1.7592
   52DOPE   H2S 6605   8.189   3.758  13.378 -0.5047 -1.9527  0.3933
   52DOPE    C3 6606   8.122   3.356  13.294 -0.1082 -0.2284  0.1046
   52DOPE    HX 6607   8.225   3.386  13.264  0.3914 -0.8471  1.1168
   52DOPE    HY 6608   8.105   3.257  13.248  0.2122  0.5385 -1.7463
   52DOPE   O31 6609   8.120   3.343  13.435 -0.5638  0.2845  0.2388
   52DOPE   C31 6610   8.014   3.293  13.491  0.0940  0.8620  0.2732
   52DOPE   O32 6611   7.910   3.259  13.439  0.5719 -0.0098  0.0665
   52DOPE   C32 6612   8.043   3.295  13.642 -0.2801 -0.1668  0.4697
   52DOPE   H2X 6613   7.947   3.268  13.691 -1.6293  0.5340 -1.6645
   52DOPE   H2Y 6614   8.118   3.218  13.668 -0.8370  0.0746  3.1084
   52DOPE   C23 6615   8.179   3.749  13.601  0.2573 -0.2088 -0.2383
   52DOPE   H3R 6616   8.269   3.683  13.598 -0.1522 -0.8933  1.3176
   52DOPE   H3S 6617   8.102   3.702  13.666  0.4188 -0.4933 -0.2519
   52DOPE   C24 6618   8.216   3.885  13.650 -0.0438 -0.1367 -0.0738
   52DOPE   H4R 6619   8.125   3.949  13.637  0.6768  1.1760  1.0571
   52DOPE   H4S 6620   8.279   3.940  13.577  1.0181  0.3344  1.1621
   52DOPE   C25 6621   8.275   3.906  13.795  0.1709  0.3452 -0.2817
   52DOPE   H5R 6622   8.203   3.853  13.861 -0.8431 -1.6612 -2.7927
   52DOPE   H5S 6623   8.276   4.015  13.814 -0.4347  0.6323 -1.7802
   52DOPE   C26 6624   8.417   3.851  13.819  0.4147 -0.6118 -0.4259
   52DOPE   H6R 6625   8.483   3.917  13.760  0.6768 -2.0874 -1.8652
   52DOPE   H6S 6626   8.436   3.755  13.765 -0.9039 -1.0406 -0.1913
   52DOPE   C27 6627   8.452   3.843  13.971  0.2016 -0.5349 -0.1267
   52DOPE   H7R 6628   8.377   3.773  14.014  0.1106  0.7371  1.9848
   52DOPE   H7S 6629   8.437   3.944  14.017  1.6654  0.2784 -1.3689
   52DOPE   C28 6630   8.596   3.798  13.999  0.2279  0.3770  0.3096
   52DOPE   H8R 6631   8.599   3.687  13.995 -1.2761  0.3279  0.0508
   52DOPE   H8S 6632   8.617   3.827  14.104 -1.0647  0.1805  0.6341
   52DOPE   C29 6633   8.705   3.857  13.918  0.4499  0.4423 -0.0807
   52DOPE   H9R 6634   8.710   3.967  13.907  2.0279  0.3277 -0.8659
   52DOPE  C210 6635   8.800   3.787  13.844  0.1382  0.5429 -0.4317
   52DOPE  H10R 6636   8.873   3.856  13.798 -1.2256  1.4125 -1.3601
   52DOPE  C211 6637   8.826   3.635  13.836  0.2595 -0.0327 -0.2365
   52DOPE  H11R 6638   8.861   3.610  13.733 -0.0257 -0.0139 -0.3387
   52DOPE  H11S 6639   8.741   3.568  13.858  1.1862 -0.5069  2.2363
   52DOPE  C212 6640   8.926   3.587  13.948 -0.1728  0.2153 -0.2531
   52DOPE  H12R 6641   8.940   3.477  13.941  1.0659  0.0519  2.8418
   52DOPE  H12S 6642   8.876   3.606  14.045  0.2079  0.0286 -0.0174
   52DOPE  C213 6643   9.066   3.647  13.951  0.1456  0.2620 -0.1379
   52DOPE  H13R 6644   9.068   3.753  13.986 -0.2329 -0.0090  0.7314
   52DOPE  H13S 6645   9.113   3.645  13.850  1.8229  1.5153  0.5625
   52DOPE  C214 6646   9.166   3.585  14.050 -0.7261  0.9450  0.2080
   52DOPE  H14R 6647   9.196   3.485  14.013 -0.1832  1.3820 -0.5601
   52DOPE  H14S 6648   9.114   3.575  14.148 -2.0009 -2.1246 -0.6750
   52DOPE  C215 6649   9.302   3.658  14.056  0.3264 -0.8263  0.8324
   52DOPE  H15R 6650   9.382   3.629  14.128  0.5751  0.3917  1.0690
   52DOPE  H15S 6651   9.270   3.758  14.093 -1.6616 -1.8339  1.9953
   52DOPE  C216 6652   9.374   3.679  13.920 -0.3344  0.9845 -0.1686
   52DOPE  H16R 6653   9.313   3.749  13.858  0.2385  2.1304  0.5242
   52DOPE  H16S 6654   9.377   3.575  13.882  0.3538  0.1829  1.9877
   52DOPE  C217 6655   9.514   3.751  13.922 -0.2118  0.1919 -0.7720
   52DOPE  H17R 6656   9.494   3.838  13.987 -2.0743 -0.6371 -0.1785
   52DOPE  H17S 6657   9.537   3.798  13.824  0.5575  1.7737  0.1381
   52DOPE  C218 6658   9.622   3.654  13.976  0.1040 -0.7723  0.0640
   52DOPE  H18R 6659   9.720   3.707  13.978 -0.0352 -0.2940 -2.5330
   52DOPE  H18S 6660   9.598   3.612  14.076 -0.1437 -2.8150 -0.8122
   52DOPE  H18T 6661   9.640   3.570  13.905 -1.8790 -1.5426  0.4135
   52DOPE   C33 6662   8.082   3.441  13.690 -0.2524  0.2467 -0.2010
   52DOPE   H3X 6663   7.998   3.513  13.684 -1.0532 -0.6991 -0.8748
   52DOPE   H3Y 6664   8.151   3.488  13.618  0.1953 -0.9970 -0.6190
   52DOPE   C34 6665   8.127   3.452  13.840  0.3556 -0.3446  0.4850
   52DOPE   H4X 6666   8.122   3.561  13.861  0.9306 -0.5380  1.6847
   52DOPE   H4Y 6667   8.054   3.405  13.909  1.4617 -0.1429  1.8378
   52DOPE   C35 6668   8.270   3.391  13.862  0.1607  0.1422 -0.1783
   52DOPE   H5X 6669   8.346   3.458  13.816 -0.1660  0.0762 -0.8252
   52DOPE   H5Y 6670   8.274   3.289  13.818 -3.1653 -0.1771  0.0413
   52DOPE   C36 6671   8.309   3.381  14.009 -0.7366 -0.2697  0.2458
   52DOPE   H6X 6672   8.420   3.378  14.008 -0.7531 -2.1058  0.6587
   52DOPE   H6Y 6673   8.266   3.286  14.048 -0.4399  0.0774  1.4569
   52DOPE   C37 6674   8.288   3.508  14.094 -0.6199 -0.0010  0.4081
   52DOPE   H7X 6675   8.343   3.578  14.026 -1.1263 -0.7092 -0.7666
   52DOPE   H7Y 6676   8.178   3.521  14.092 -0.8178 -1.4530 -1.4932
   52DOPE   C38 6677   8.351   3.516  14.236  0.6941 -0.2235  0.2711
   52DOPE   H8X 6678   8.460   3.526  14.217  0.6411  0.1380  0.1529
   52DOPE   H8Y 6679   8.321   3.424  14.292  2.7729  0.3539  2.4971
   52DOPE   C39 6680   8.285   3.624  14.316 -0.1124  0.5019 -0.5397
   52DOPE   H9X 6681   8.196   3.655  14.259 -1.0229 -0.2730  0.4220
   52DOPE  C310 6682   8.318   3.682  14.433  0.3189 -0.6015  0.9441
   52DOPE  H10X 6683   8.257   3.771  14.454 -1.0114 -1.1685 -0.3087
   52DOPE  C311 6684   8.446   3.671  14.514  0.0485  0.4645 -0.9323
   52DOPE  H11X 6685   8.428   3.619  14.611 -0.0733 -0.4346 -1.4354
   52DOPE  H11Y 6686   8.511   3.606  14.452  1.0400  0.8235 -0.2928
   52DOPE  C312 6687   8.524   3.803  14.544  0.3944  1.2532  0.4681
   52DOPE  H12X 6688   8.595   3.772  14.624 -0.5371 -2.3920  0.0560
   52DOPE  H12Y 6689   8.455   3.876  14.592 -2.9627 -1.1874 -0.2492
   52DOPE  C313 6690   8.591   3.838  14.413  0.1324 -0.3659  0.7933
   52DOPE  H13X 6691   8.656   3.761  14.366  0.8241  0.1178  0.9540
   52DOPE  H13Y 6692   8.508   3.852  14.341 -0.5599  1.5855  1.8852
   52DOPE  C314 6693   8.666   3.972  14.421  1.5659  0.0747  0.4952
   52DOPE  H14X 6694   8.713   3.974  14.522  0.7727  2.6532  0.8898
   52DOPE  H14Y 6695   8.605   4.065  14.425 -0.5119 -1.1460 -0.7760
   52DOPE  C315 6696   8.771   3.991  14.318  0.3097 -0.7668  0.8684
   52DOPE  H15X 6697   8.730   3.994  14.214  1.5075  2.0646  0.3951
   52DOPE  H15Y 6698   8.852   3.915  14.316 -1.6887 -3.0177 -0.7405
   52DOPE  C316 6699   8.834   4.133  14.339  0.0079  0.4537  0.8319
   52DOPE  H16X 6700   8.839   4.148  14.449  2.3090  0.7653  0.7222
   52DOPE  H16Y 6701   8.764   4.207  14.294 -0.6663 -1.3733 -1.3202
   52DOPE  C317 6702   8.974   4.140  14.274 -0.6208  0.1895 -0.2104
   52DOPE  H17X 6703   9.019   4.232  14.315 -0.2151 -0.7873  1.6135
   52DOPE  H17Y 6704   9.037   4.052  14.302  0.4595  0.5575 -1.3870
   52DOPE  C318 6705   8.969   4.146  14.119  0.0294  0.3389 -0.1330
   52DOPE  H18X 6706   8.920   4.058  14.073  0.1911 -0.3220  0.9086
   52DOPE  H18Y 6707   8.906   4.235  14.101 -0.3712  0.4220  1.4966
   52DOPE  H18Z 6708   9.069   4.167  14.075 -0.9332  3.1990 -1.1498
   53DOPE     N 6709   6.718   7.001  12.361  0.0586 -0.0911 -0.1235
   53DOPE   HN1 6710   6.764   7.083  12.405  0.9965  0.1700 -1.5111
   53DOPE   HN2 6711   6.774   6.915  12.376  0.3185  0.3846  1.9883
   53DOPE   HN3 6712   6.713   7.015  12.258  2.4771  2.4676 -0.0269
   53DOPE   C12 6713   6.585   6.966  12.421  0.1149  0.4483 -0.3310
   53DOPE  H12A 6714   6.587   6.953  12.531 -1.3670  1.9371 -0.0861
   53DOPE  H12B 6715   6.557   6.868  12.376 -0.6085 -1.7606  4.2940
   53DOPE   C11 6716   6.478   7.075  12.386  0.5166  0.7514  0.2935
   53DOPE  H11A 6717   6.375   7.035  12.392  0.7788  0.0445  0.1626
   53DOPE  H11B 6718   6.500   7.099  12.280 -0.6662  1.3589  0.1723
   53DOPE     P 6719   6.410   7.216  12.607 -0.2068 -0.6869  0.5813
   53DOPE   O13 6720   6.272   7.181  12.577 -0.2856  0.0593 -0.4790
   53DOPE   O14 6721   6.429   7.356  12.660 -0.0831 -0.0890 -0.1043
   53DOPE   O11 6722   6.470   7.098  12.701  0.2273  0.1907 -0.1184
   53DOPE   O12 6723   6.500   7.193  12.473 -0.1160  0.3772 -0.3040
   53DOPE    C1 6724   6.598   7.112  12.756  0.1638  0.2468 -1.0558
   53DOPE    HA 6725   6.656   7.198  12.716 -0.8502  1.3385 -0.2418
   53DOPE    HB 6726   6.667   7.026  12.741 -0.7360 -0.9075  1.1106
   53DOPE    C2 6727   6.592   7.120  12.915 -0.5963  0.1149 -0.3301
   53DOPE    HS 6728   6.692   7.091  12.954 -0.4943  0.4691 -0.3209
   53DOPE   O21 6729   6.501   7.020  12.969 -0.3088 -0.2967  0.6401
   53DOPE   C21 6730   6.526   6.888  12.952  0.4459 -0.1073 -0.2019
   53DOPE   O22 6731   6.625   6.839  12.912 -0.5797 -0.4642  0.0126
   53DOPE   C22 6732   6.398   6.819  12.995  0.2807 -0.3020 -0.5103
   53DOPE   H2R 6733   6.339   6.795  12.904  2.7094 -0.3420 -2.1596
   53DOPE   H2S 6734   6.352   6.888  13.069 -1.0143 -1.6617 -0.0001
   53DOPE    C3 6735   6.573   7.267  12.955 -0.3905  0.5291 -1.1950
   53DOPE    HX 6736   6.498   7.319  12.891 -0.0049  0.4786 -1.7012
   53DOPE    HY 6737   6.669   7.322  12.939  1.4949 -1.6992  1.4875
   53DOPE   O31 6738   6.549   7.291  13.098 -0.6968  0.0755 -0.5095
   53DOPE   C31 6739   6.431   7.275  13.146  0.9413 -0.0896 -0.2044
   53DOPE   O32 6740   6.339   7.220  13.089  0.2624  0.4248  0.2579
   53DOPE   C32 6741   6.416   7.334  13.284  0.1614  0.3278 -0.0570
   53DOPE   H2X 6742   6.383   7.253  13.353  2.8857 -0.8275  0.0134
   53DOPE   H2Y 6743   6.508   7.377  13.330  0.5096 -1.7560  1.3164
   53DOPE   C23 6744   6.419   6.685  13.069 -0.4795  0.2647 -0.4347
   53DOPE   H3R 6745   6.501   6.692  13.145 -1.8508 -2.8891  1.5611
   53DOPE   H3S 6746   6.454   6.605  13.000  1.8401  1.1886 -0.4455
   53DOPE   C24 6747   6.290   6.646  13.138  0.8160  0.0230 -0.2713
   53DOPE   H4R 6748   6.198   6.631  13.077  0.1784 -0.3213  0.7557
   53DOPE   H4S 6749   6.262   6.723  13.213  0.6931  0.6289 -0.9226
   53DOPE   C25 6750   6.308   6.515  13.213 -0.4487 -0.3027 -0.0909
   53DOPE   H5R 6751   6.390   6.529  13.286  0.0377  0.4121 -0.7559
   53DOPE   H5S 6752   6.334   6.435  13.141 -1.5213 -2.4459  1.7958
   53DOPE   C26 6753   6.182   6.487  13.298  0.3140  0.7431 -0.6762
   53DOPE   H6R 6754   6.101   6.485  13.222 -0.7193  0.4666  0.4016
   53DOPE   H6S 6755   6.154   6.583  13.347  0.6944  0.7384 -0.4416
   53DOPE   C27 6756   6.184   6.373  13.406  0.0161 -0.0207  0.2256
   53DOPE   H7R 6757   6.267   6.383  13.479  0.5932  1.7128 -0.6143
   53DOPE   H7S 6758   6.214   6.278  13.356 -0.5810 -0.0110 -0.1562
   53DOPE   C28 6759   6.053   6.354  13.488  0.3543 -0.2467 -0.4325
   53DOPE   H8R 6760   6.017   6.451  13.529 -0.3754 -1.0235  0.8297
   53DOPE   H8S 6761   6.071   6.301  13.584  0.8917  2.4728  1.0515
   53DOPE   C29 6762   5.941   6.296  13.409 -0.0223 -0.0085  0.1624
   53DOPE   H9R 6763   5.950   6.319  13.302  0.3126  2.0165  0.5824
   53DOPE  C210 6764   5.840   6.220  13.467 -1.0749  0.0628 -0.0116
   53DOPE  H10R 6765   5.750   6.188  13.412 -2.6677  0.6333  2.1407
   53DOPE  C211 6766   5.824   6.218  13.614 -0.4219 -0.1578  0.3206
   53DOPE  H11R 6767   5.715   6.225  13.637 -0.4303 -0.0049  0.2360
   53DOPE  H11S 6768   5.868   6.305  13.667 -2.3688  0.7228  0.5755
   53DOPE  C212 6769   5.879   6.094  13.686 -0.4144  0.0009 -0.4771
   53DOPE  H12R 6770   5.983   6.080  13.650  0.2503  1.4570  0.7937
   53DOPE  H12S 6771   5.816   6.003  13.672 -1.3001  0.4604  0.3670
   53DOPE  C213 6772   5.899   6.122  13.838  0.5163 -0.2807 -0.3144
   53DOPE  H13R 6773   5.800   6.141  13.884  0.4188 -1.3583 -0.0525
   53DOPE  H13S 6774   5.964   6.212  13.849  0.7488 -0.6149  1.4234
   53DOPE  C214 6775   5.950   6.000  13.907 -0.7670  0.0706 -0.2136
   53DOPE  H14R 6776   6.052   5.984  13.866 -0.6766  0.6256 -0.2054
   53DOPE  H14S 6777   5.882   5.919  13.873  0.1643 -1.6372  1.7774
   53DOPE  C215 6778   5.938   5.998  14.066 -0.1818  0.0899  0.0776
   53DOPE  H15R 6779   5.937   5.894  14.105 -0.0041  1.0002  2.6810
   53DOPE  H15S 6780   5.839   6.040  14.091  0.2164  0.3799  1.2139
   53DOPE  C216 6781   6.048   6.076  14.138 -0.1575  0.3611  0.0398
   53DOPE  H16R 6782   6.022   6.086  14.246 -0.7624  1.1104 -0.1627
   53DOPE  H16S 6783   6.055   6.178  14.095  1.3184  0.7096  1.0195
   53DOPE  C217 6784   6.192   6.020  14.124 -0.5753 -0.0826  0.1901
   53DOPE  H17R 6785   6.186   5.918  14.079  0.5172  1.0779 -2.9121
   53DOPE  H17S 6786   6.244   6.011  14.221  1.5686  0.9044 -0.7808
   53DOPE  C218 6787   6.278   6.104  14.028  0.8940  0.1721  0.1682
   53DOPE  H18R 6788   6.343   6.178  14.078 -0.3103 -0.4380  2.8505
   53DOPE  H18S 6789   6.218   6.151  13.947  0.5413 -2.1328 -1.0022
   53DOPE  H18T 6790   6.344   6.036  13.969 -0.2464 -2.1227  1.3695
   53DOPE   C33 6791   6.304   7.442  13.296 -0.2721 -0.8527  0.1268
   53DOPE   H3X 6792   6.200   7.414  13.270 -0.6689  0.1716  0.5506
   53DOPE   H3Y 6793   6.328   7.530  13.232 -1.8037 -1.1441 -0.8868
   53DOPE   C34 6794   6.284   7.487  13.435 -1.0637 -0.1053 -0.5506
   53DOPE   H4X 6795   6.202   7.563  13.433  0.6374  1.9114  1.1153
   53DOPE   H4Y 6796   6.241   7.407  13.500 -1.5545 -1.4169 -2.3969
   53DOPE   C35 6797   6.393   7.560  13.520 -0.2845  0.4617 -0.3478
   53DOPE   H5X 6798   6.418   7.657  13.471 -1.4474  0.9179 -0.0734
   53DOPE   H5Y 6799   6.484   7.496  13.520 -1.7089 -1.6621  0.7241
   53DOPE   C36 6800   6.361   7.595  13.665 -0.4077 -0.1196 -0.2681
   53DOPE   H6X 6801   6.440   7.665  13.700  0.8347 -1.8478  0.5568
   53DOPE   H6Y 6802   6.376   7.505  13.728 -1.6097  0.3350  0.7095
   53DOPE   C37 6803   6.217   7.659  13.689  0.3425  0.2607  0.0136
   53DOPE   H7X 6804   6.222   7.759  13.641  0.4049  1.2161  1.8995
   53DOPE   H7Y 6805   6.137   7.604  13.635  0.0460  0.0840  0.6179
   53DOPE   C38 6806   6.178   7.672  13.835  0.5672 -0.2432 -0.8449
   53DOPE   H8X 6807   6.097   7.747  13.847  0.9009  0.0443 -0.3462
   53DOPE   H8Y 6808   6.272   7.711  13.880  0.1419 -0.8133  0.5661
   53DOPE   C39 6809   6.143   7.551  13.906  0.8260  0.0152 -0.4424
   53DOPE   H9X 6810   6.057   7.493  13.871  2.0584 -2.0494 -0.2504
   53DOPE  C310 6811   6.210   7.491  14.004 -0.6716 -0.0996  0.5972
   53DOPE  H10X 6812   6.174   7.391  14.030 -0.3027 -0.1698  0.8474
   53DOPE  C311 6813   6.341   7.522  14.067 -0.2631 -0.6509  0.3456
   53DOPE  H11X 6814   6.382   7.618  14.029  0.2198 -0.3641  1.5491
   53DOPE  H11Y 6815   6.319   7.549  14.173 -0.5597 -0.0612  0.1412
   53DOPE  C312 6816   6.446   7.408  14.052 -0.0151  0.7110 -0.3840
   53DOPE  H12X 6817   6.486   7.412  13.949 -0.7911 -0.3904 -0.7386
   53DOPE  H12Y 6818   6.395   7.312  14.075 -0.4834  0.7270 -1.3331
   53DOPE  C313 6819   6.544   7.404  14.168  0.0574 -0.4078 -0.1847
   53DOPE  H13X 6820   6.617   7.488  14.157  0.4632 -0.7063  0.2197
   53DOPE  H13Y 6821   6.490   7.416  14.264 -0.7411 -0.0171 -0.6691
   53DOPE  C314 6822   6.636   7.286  14.185  0.3123 -0.1170 -0.5845
   53DOPE  H14X 6823   6.588   7.187  14.199  0.9956 -0.3969 -0.1576
   53DOPE  H14Y 6824   6.683   7.286  14.286 -1.0419 -1.4624  0.0847
   53DOPE  C315 6825   6.737   7.286  14.069  0.1587  0.1037  0.4134
   53DOPE  H15X 6826   6.840   7.258  14.098 -0.7384 -0.7171  3.0502
   53DOPE  H15Y 6827   6.745   7.389  14.027  0.7908  0.0769  0.4736
   53DOPE  C316 6828   6.680   7.191  13.959  0.3048 -0.0221  1.0353
   53DOPE  H16X 6829   6.575   7.217  13.935 -0.6246 -2.0050  2.6396
   53DOPE  H16Y 6830   6.683   7.089  14.002  0.6641 -0.4778 -0.0466
   53DOPE  C317 6831   6.748   7.186  13.827  0.0923 -0.6157  0.7000
   53DOPE  H17X 6832   6.758   7.285  13.777 -0.9579 -1.0586 -0.4428
   53DOPE  H17Y 6833   6.849   7.145  13.845  0.0732 -0.5370  0.9927
   53DOPE  C318 6834   6.676   7.090  13.732 -0.4874 -0.0319 -0.6063
   53DOPE  H18X 6835   6.592   7.142  13.681 -1.8412 -0.6387  0.9363
   53DOPE  H18Y 6836   6.746   7.054  13.653  0.9815  0.1584  0.5506
   53DOPE  H18Z 6837   6.637   7.010  13.798  0.6254  0.9526  1.3525
   54DOPE     N 6838   8.403   3.333  12.618 -0.5936 -0.3794 -0.1268
   54DOPE   HN1 6839   8.314   3.370  12.657 -1.3238 -1.1552 -1.0293
   54DOPE   HN2 6840   8.427   3.395  12.538 -0.2366 -1.9843 -1.3074
   54DOPE   HN3 6841   8.394   3.235  12.586  2.0808 -0.7006 -0.1431
   54DOPE   C12 6842   8.523   3.327  12.713 -0.0267 -0.6873  0.3103
   54DOPE  H12A 6843   8.489   3.289  12.811  2.2501 -0.3745  1.2877
   54DOPE  H12B 6844   8.550   3.434  12.728 -0.7482 -0.4134 -0.2724
   54DOPE   C11 6845   8.631   3.241  12.653 -0.3116 -0.8350 -0.4805
   54DOPE  H11A 6846   8.710   3.243  12.731  0.6001 -2.1797 -1.3169
   54DOPE  H11B 6847   8.672   3.297  12.566  0.7717  0.8709  1.0581
   54DOPE     P 6848   8.659   2.985  12.659 -0.2848 -0.5493 -0.2365
   54DOPE   O13 6849   8.789   2.982  12.586 -0.1255 -0.3853  0.2988
   54DOPE   O14 6850   8.574   2.866  12.651 -0.0983 -0.1637 -0.0476
   54DOPE   O11 6851   8.697   3.012  12.810  0.3563 -0.8568  0.0855
   54DOPE   O12 6852   8.578   3.112  12.624  0.4125  0.5324 -0.2174
   54DOPE    C1 6853   8.604   3.006  12.918 -0.7365 -0.1258 -0.1747
   54DOPE    HA 6854   8.525   2.929  12.905 -0.3502 -0.8821  1.6328
   54DOPE    HB 6855   8.555   3.105  12.927  0.2358  0.1863  2.2844
   54DOPE    C2 6856   8.665   2.992  13.052  0.5685 -0.3922  0.0574
   54DOPE    HS 6857   8.588   3.015  13.129 -1.2460 -0.7391 -1.5911
   54DOPE   O21 6858   8.776   3.083  13.068  0.0454 -0.1627 -0.4469
   54DOPE   C21 6859   8.745   3.210  13.074  0.1790 -0.7856  0.3051
   54DOPE   O22 6860   8.635   3.256  13.066  0.2435 -0.2064 -0.3708
   54DOPE   C22 6861   8.871   3.293  13.104  0.7408 -0.2400 -0.5207
   54DOPE   H2R 6862   8.917   3.314  13.005 -0.7568 -0.7588 -1.3686
   54DOPE   H2S 6863   8.947   3.245  13.169  1.6009 -1.3978 -2.2901
   54DOPE    C3 6864   8.714   2.847  13.071 -0.4285 -0.5298  0.0507
   54DOPE    HX 6865   8.771   2.862  13.165 -0.9576 -2.3076  0.6910
   54DOPE    HY 6866   8.782   2.811  12.990 -0.0262 -0.1660  0.2217
   54DOPE   O31 6867   8.605   2.765  13.109 -0.1268 -0.1932 -0.6335
   54DOPE   C31 6868   8.590   2.643  13.047  0.0322  0.2062 -0.1040
   54DOPE   O32 6869   8.667   2.597  12.964 -0.0987  0.3777  0.5859
   54DOPE   C32 6870   8.464   2.576  13.103 -0.0276 -0.1861 -0.3436
   54DOPE   H2X 6871   8.412   2.656  13.160  1.1918  1.2890 -1.2439
   54DOPE   H2Y 6872   8.402   2.548  13.016  0.1443 -1.0389 -0.2005
   54DOPE   C23 6873   8.844   3.436  13.159 -0.1208 -0.2894 -0.0906
   54DOPE   H3R 6874   8.824   3.428  13.268 -2.3440 -1.8517 -0.5463
   54DOPE   H3S 6875   8.762   3.486  13.102  0.2563  0.6235  0.1584
   54DOPE   C24 6876   8.953   3.542  13.138 -0.3491  0.7094 -0.0419
   54DOPE   H4R 6877   8.910   3.644  13.144 -0.3967  0.7288 -0.6132
   54DOPE   H4S 6878   9.002   3.528  13.039 -0.8093  0.4945 -0.2380
   54DOPE   C25 6879   9.080   3.536  13.226 -0.1748  0.2686 -0.3582
   54DOPE   H5R 6880   9.102   3.427  13.235  0.2227  0.4146  0.5670
   54DOPE   H5S 6881   9.072   3.596  13.319  2.2001  3.1239 -1.8159
   54DOPE   C26 6882   9.207   3.596  13.162 -0.2264 -0.2638  0.3364
   54DOPE   H6R 6883   9.200   3.704  13.137  1.7765 -0.6688 -2.5000
   54DOPE   H6S 6884   9.238   3.550  13.066 -0.9892  0.3153 -0.1973
   54DOPE   C27 6885   9.324   3.589  13.256  0.1479 -0.7071 -0.1558
   54DOPE   H7R 6886   9.353   3.484  13.273 -2.0680 -1.1825  1.1363
   54DOPE   H7S 6887   9.302   3.633  13.356  3.7137  1.4795 -0.1860
   54DOPE   C28 6888   9.454   3.656  13.207 -0.4277 -0.3854  0.1342
   54DOPE   H8R 6889   9.503   3.586  13.137 -0.1213 -2.2804  2.1247
   54DOPE   H8S 6890   9.516   3.660  13.299 -1.3272  1.4172  0.7051
   54DOPE   C29 6891   9.446   3.778  13.127 -0.3508 -0.0726 -0.2310
   54DOPE   H9R 6892   9.430   3.771  13.018 -1.5623  0.5953 -0.1253
   54DOPE  C210 6893   9.448   3.903  13.179 -0.0865  0.7696 -0.2725
   54DOPE  H10R 6894   9.438   3.993  13.115  0.0349  1.1864  0.2869
   54DOPE  C211 6895   9.476   3.928  13.324 -0.1721 -0.3220  0.4927
   54DOPE  H11R 6896   9.447   3.844  13.390 -1.9240  0.3610  0.6462
   54DOPE  H11S 6897   9.409   4.007  13.364  0.5906 -0.0343  1.2273
   54DOPE  C212 6898   9.630   3.950  13.347  0.5545  0.2614  0.2326
   54DOPE  H12R 6899   9.645   4.060  13.344 -2.3061  0.7367  0.5482
   54DOPE  H12S 6900   9.702   3.910  13.273  0.9045  1.3986 -0.0599
   54DOPE  C213 6901   9.659   3.911  13.499 -0.2958 -0.4224  0.2259
   54DOPE  H13R 6902   9.615   3.815  13.532  0.1375 -0.1785  1.6209
   54DOPE  H13S 6903   9.609   3.986  13.565 -0.6023  0.6590 -1.1799
   54DOPE  C214 6904   9.812   3.915  13.531  0.4101  0.1335 -0.1243
   54DOPE  H14R 6905   9.836   4.021  13.507 -2.1398  0.1459 -3.5219
   54DOPE  H14S 6906   9.865   3.843  13.465  3.6378  1.5993  0.6516
   54DOPE  C215 6907   9.849   3.870  13.673  0.2451 -0.5021  0.1012
   54DOPE  H15R 6908   9.855   3.759  13.677 -2.8245 -0.7626  0.0594
   54DOPE  H15S 6909   9.779   3.906  13.751  0.5570  1.5605 -0.5066
   54DOPE  C216 6910   9.992   3.904  13.720  0.6663  0.3959  0.0043
   54DOPE  H16R 6911  10.054   3.909  13.628  0.8480  3.3614  0.2098
   54DOPE  H16S 6912  10.032   3.825  13.786 -1.2416 -1.5674 -1.0565
   54DOPE  C217 6913  10.005   4.037  13.787  0.2145  0.4743  0.5778
   54DOPE  H17R 6914   9.971   4.119  13.720 -1.3987 -1.8335 -1.5904
   54DOPE  H17S 6915  10.113   4.054  13.805  0.3749 -2.0335  2.4801
   54DOPE  C218 6916   9.935   4.065  13.925 -0.5525 -0.6183  0.5472
   54DOPE  H18R 6917   9.825   4.046  13.923 -0.7957  0.5228 -2.3031
   54DOPE  H18S 6918   9.946   4.164  13.973 -1.6460 -0.4146  0.4077
   54DOPE  H18T 6919   9.983   3.997  13.998  1.9772  0.5341  0.0583
   54DOPE   C33 6920   8.487   2.457  13.203 -0.1342 -0.1064 -0.0754
   54DOPE   H3X 6921   8.391   2.448  13.258 -1.2350 -1.5071 -2.0940
   54DOPE   H3Y 6922   8.573   2.482  13.269 -0.9313  1.0984  0.5570
   54DOPE   C34 6923   8.519   2.327  13.128  0.2458  0.5411 -0.4501
   54DOPE   H4X 6924   8.444   2.325  13.046  0.1007  0.5918 -0.3195
   54DOPE   H4Y 6925   8.622   2.326  13.085  0.4809 -1.0483  0.1031
   54DOPE   C35 6926   8.489   2.208  13.217  0.2495 -0.1284  0.4724
   54DOPE   H5X 6927   8.503   2.113  13.161  3.9797  0.6759 -0.2377
   54DOPE   H5Y 6928   8.388   2.209  13.264  0.5382  0.4057  1.0878
   54DOPE   C36 6929   8.593   2.193  13.323 -0.7321 -0.0913 -0.5878
   54DOPE   H6X 6930   8.585   2.272  13.401  0.3688 -1.8818  1.4079
   54DOPE   H6Y 6931   8.692   2.205  13.275  0.0357 -0.0633  0.9436
   54DOPE   C37 6932   8.595   2.054  13.402 -0.2878  0.4752 -1.5207
   54DOPE   H7X 6933   8.489   2.032  13.424  0.5975 -2.8245  0.0218
   54DOPE   H7Y 6934   8.640   1.982  13.330  2.6278  0.8065 -0.2024
   54DOPE   C38 6935   8.676   2.060  13.530  0.2827  0.1384 -0.2832
   54DOPE   H8X 6936   8.644   1.968  13.584  0.1829 -0.8167 -1.8972
   54DOPE   H8Y 6937   8.645   2.149  13.588  0.1598 -0.0941  0.0084
   54DOPE   C39 6938   8.822   2.063  13.504  0.8525 -0.0214  0.6944
   54DOPE   H9X 6939   8.852   2.115  13.411  0.5506 -1.9041 -0.5127
   54DOPE  C310 6940   8.920   2.023  13.584  0.2093 -0.4302  0.1642
   54DOPE  H10X 6941   9.020   2.038  13.539 -0.0876 -0.9638 -0.6940
   54DOPE  C311 6942   8.893   1.940  13.708 -0.7960  0.0412 -0.0298
   54DOPE  H11X 6943   8.787   1.913  13.724 -0.9384 -0.0944 -1.1582
   54DOPE  H11Y 6944   8.941   1.840  13.701  0.2222  0.5009  0.1476
   54DOPE  C312 6945   8.929   1.998  13.845  0.1423  0.3783  0.6781
   54DOPE  H12X 6946   8.853   2.075  13.870 -1.8460 -0.9379 -1.0555
   54DOPE  H12Y 6947   9.026   2.053  13.839  0.1306  0.2251 -1.8484
   54DOPE  C313 6948   8.917   1.896  13.955  0.3776  0.1506 -0.0442
   54DOPE  H13X 6949   8.813   1.858  13.944  0.0708  0.7944  0.5700
   54DOPE  H13Y 6950   8.982   1.807  13.943 -0.9762 -0.6377 -2.1502
   54DOPE  C314 6951   8.923   1.965  14.087  0.6987 -0.0422 -0.8344
   54DOPE  H14X 6952   8.841   2.040  14.096  0.5701 -0.4881  3.5448
   54DOPE  H14Y 6953   9.010   2.033  14.090  1.7575 -1.2720 -2.2718
   54DOPE  C315 6954   8.934   1.876  14.217 -0.2224  0.7402  1.2130
   54DOPE  H15X 6955   9.017   1.804  14.196 -1.3352 -0.0094 -0.8801
   54DOPE  H15Y 6956   8.847   1.807  14.214 -0.5578  1.1761  0.8183
   54DOPE  C316 6957   8.941   1.928  14.364  0.7532 -0.5175 -0.1580
   54DOPE  H16X 6958   8.927   1.833  14.420  1.3199 -1.2341 -1.2040
   54DOPE  H16Y 6959   8.847   1.984  14.378  1.9539  1.1014  1.9931
   54DOPE  C317 6960   9.061   2.007  14.413  0.4620  0.6456 -0.4966
   54DOPE  H17X 6961   9.080   2.074  14.326 -0.5329 -1.6541 -2.6376
   54DOPE  H17Y 6962   9.039   2.060  14.507 -0.2847 -0.8270  0.1985
   54DOPE  C318 6963   9.182   1.912  14.409  0.1569 -0.6822  0.5551
   54DOPE  H18X 6964   9.201   1.868  14.309  2.0529  3.2495 -1.0031
   54DOPE  H18Y 6965   9.274   1.972  14.428 -0.5589  0.2251  1.2700
   54DOPE  H18Z 6966   9.168   1.829  14.482 -0.2283 -0.7922  0.3592
   55DOPE     N 6967   1.216   5.345  12.271 -0.2636  0.2634 -0.3264
   55DOPE   HN1 6968   1.317   5.358  12.249 -0.0521  1.4221  1.1377
   55DOPE   HN2 6969   1.203   5.402  12.357 -0.7013  1.1849 -0.9916
   55DOPE   HN3 6970   1.202   5.245  12.297 -2.0477  0.6933  0.5369
   55DOPE   C12 6971   1.130   5.414  12.167  0.4564 -0.0892  0.1118
   55DOPE  H12A 6972   1.028   5.436  12.206  1.5732  3.1613  1.5308
   55DOPE  H12B 6973   1.122   5.349  12.078 -0.5840  0.0313  0.1119
   55DOPE   C11 6974   1.192   5.547  12.123 -0.0783 -0.3036 -0.2301
   55DOPE  H11A 6975   1.289   5.517  12.078 -0.6656 -1.0895 -1.0199
   55DOPE  H11B 6976   1.210   5.615  12.209 -0.9676  1.6233 -1.4920
   55DOPE     P 6977   1.026   5.733  12.037  0.0043 -0.1794  0.0884
   55DOPE   O13 6978   0.905   5.700  11.965  0.3016  0.0058  0.2926
   55DOPE   O14 6979   1.107   5.848  11.992  0.2105  0.8502 -0.0184
   55DOPE   O11 6980   0.991   5.749  12.195  0.4869  0.1644 -0.4839
   55DOPE   O12 6981   1.118   5.605  12.021 -0.8072 -0.6176 -0.3866
   55DOPE    C1 6982   0.870   5.810  12.237  0.8870  0.6963 -0.2972
   55DOPE    HA 6983   0.782   5.780  12.176  1.2701  1.8763 -1.4744
   55DOPE    HB 6984   0.874   5.921  12.233  0.3284  0.7169 -0.3286
   55DOPE    C2 6985   0.843   5.774  12.385 -0.1298  0.0753 -0.1198
   55DOPE    HS 6986   0.735   5.795  12.402 -0.5635 -2.3918  0.4874
   55DOPE   O21 6987   0.926   5.844  12.475 -0.4331 -0.1078 -0.2458
   55DOPE   C21 6988   0.884   5.833  12.598  0.3900  0.1923 -1.0117
   55DOPE   O22 6989   0.768   5.810  12.638  0.0785 -0.7248 -0.0269
   55DOPE   C22 6990   1.000   5.867  12.690 -0.2222 -0.2587 -0.4987
   55DOPE   H2R 6991   0.971   5.950  12.757 -1.8781 -0.9195 -0.3386
   55DOPE   H2S 6992   1.083   5.902  12.625 -1.4129  1.6294 -1.1027
   55DOPE    C3 6993   0.845   5.615  12.401 -0.6896 -0.2055 -0.1436
   55DOPE    HX 6994   0.948   5.574  12.410 -0.9620 -0.6741  1.0543
   55DOPE    HY 6995   0.804   5.592  12.300 -0.5208  1.1891 -0.5497
   55DOPE   O31 6996   0.766   5.566  12.506  0.3866 -0.1609  0.2939
   55DOPE   C31 6997   0.815   5.511  12.609 -0.3272 -0.4379  0.0116
   55DOPE   O32 6998   0.934   5.497  12.632 -0.2202 -0.1296 -0.0393
   55DOPE   C32 6999   0.699   5.456  12.691 -0.0203 -0.3590  0.5502
   55DOPE   H2X 7000   0.630   5.542  12.701  0.9542  0.7550 -1.5771
   55DOPE   H2Y 7001   0.636   5.384  12.633  0.2376 -0.2032  0.0719
   55DOPE   C23 7002   1.045   5.745  12.772  0.7956 -0.3601  0.0039
   55DOPE   H3R 7003   1.083   5.668  12.701 -1.4370  0.7217 -2.5518
   55DOPE   H3S 7004   0.952   5.706  12.821  0.3950 -0.6044 -0.9298
   55DOPE   C24 7005   1.129   5.784  12.896 -0.2128 -0.0285 -0.0016
   55DOPE   H4R 7006   1.093   5.871  12.954 -0.9125 -0.4556  0.2131
   55DOPE   H4S 7007   1.230   5.811  12.859 -0.0349  1.5899  1.5421
   55DOPE   C25 7008   1.145   5.663  12.994 -0.1017 -0.0583  0.1764
   55DOPE   H5R 7009   1.173   5.568  12.942  0.8842  1.0680 -1.4416
   55DOPE   H5S 7010   1.044   5.640  13.035  0.4707 -1.7319  0.7637
   55DOPE   C26 7011   1.243   5.691  13.105 -0.3871 -0.5374  0.4979
   55DOPE   H6R 7012   1.217   5.786  13.156  1.0306 -0.0190  0.2861
   55DOPE   H6S 7013   1.345   5.720  13.070  0.1721 -0.9196  1.7506
   55DOPE   C27 7014   1.239   5.581  13.210  0.1768  0.3159  0.1415
   55DOPE   H7R 7015   1.159   5.606  13.282 -0.5072 -2.0338  0.2777
   55DOPE   H7S 7016   1.334   5.591  13.267 -0.4674  0.0116  1.2925
   55DOPE   C28 7017   1.233   5.436  13.161 -0.3876 -0.8446  0.1048
   55DOPE   H8R 7018   1.140   5.420  13.102  0.1421 -0.8046 -0.7588
   55DOPE   H8S 7019   1.233   5.375  13.253  1.4481 -0.8766  0.1111
   55DOPE   C29 7020   1.358   5.401  13.074 -0.6348 -0.1610  0.0097
   55DOPE   H9R 7021   1.345   5.420  12.966 -2.1423  1.5994  0.4492
   55DOPE  C210 7022   1.470   5.346  13.125 -0.5770 -0.3410  0.0456
   55DOPE  H10R 7023   1.552   5.339  13.052 -0.1366  5.2812 -0.4330
   55DOPE  C211 7024   1.501   5.316  13.266  0.0477  0.3062 -0.1364
   55DOPE  H11R 7025   1.541   5.213  13.266  1.3125  0.7492 -2.2620
   55DOPE  H11S 7026   1.409   5.322  13.328  0.5189 -1.0960  0.7253
   55DOPE  C212 7027   1.605   5.411  13.323 -0.2320  0.3025  0.0962
   55DOPE  H12R 7028   1.560   5.513  13.329  0.5133  0.6348  0.1934
   55DOPE  H12S 7029   1.697   5.419  13.262  0.5074 -0.9857  0.9753
   55DOPE  C213 7030   1.652   5.370  13.462 -1.4341 -0.3311  0.2738
   55DOPE  H13R 7031   1.667   5.261  13.481  0.5226 -0.1973 -0.2641
   55DOPE  H13S 7032   1.587   5.408  13.543  0.0114 -1.1165  1.8800
   55DOPE  C214 7033   1.792   5.435  13.486  0.3796 -0.0898 -0.1293
   55DOPE  H14R 7034   1.781   5.544  13.472  0.1458  0.3838  2.9205
   55DOPE  H14S 7035   1.870   5.403  13.415  1.4004  2.6543 -0.3605
   55DOPE  C215 7036   1.847   5.405  13.623  0.4266 -0.2680 -0.5695
   55DOPE  H15R 7037   1.765   5.421  13.697  0.3551 -2.4395 -0.1122
   55DOPE  H15S 7038   1.929   5.476  13.648  0.7447 -1.6880  3.1637
   55DOPE  C216 7039   1.903   5.264  13.623  0.4038 -0.3121  0.3779
   55DOPE  H16R 7040   1.974   5.246  13.540 -1.4260 -1.3001 -1.0517
   55DOPE  H16S 7041   1.823   5.188  13.612 -1.8231  1.6285  2.0066
   55DOPE  C217 7042   1.962   5.219  13.762  0.6974  0.2276 -0.0611
   55DOPE  H17R 7043   1.900   5.259  13.845 -0.5114 -0.9769 -0.3458
   55DOPE  H17S 7044   2.067   5.255  13.763  2.3726 -3.9006 -2.0919
   55DOPE  C218 7045   1.963   5.066  13.773  0.3415  0.6966 -0.0022
   55DOPE  H18R 7046   2.027   5.028  13.690 -1.3333  1.1777 -1.5859
   55DOPE  H18S 7047   1.858   5.030  13.763  1.4787 -3.0048 -0.1319
   55DOPE  H18T 7048   2.011   5.043  13.871 -1.6676  1.2963  1.1829
   55DOPE   C33 7049   0.730   5.376  12.821 -0.5117  0.0684 -0.8338
   55DOPE   H3X 7050   0.797   5.289  12.804 -0.0733  0.7201 -2.7276
   55DOPE   H3Y 7051   0.631   5.338  12.854 -1.8245  2.1551 -2.1692
   55DOPE   C34 7052   0.790   5.461  12.932 -0.2454  0.0641  0.1144
   55DOPE   H4X 7053   0.898   5.483  12.915 -0.4453 -1.1328 -3.3786
   55DOPE   H4Y 7054   0.727   5.550  12.953 -1.0549 -0.0631 -1.5938
   55DOPE   C35 7055   0.790   5.382  13.062  0.2284  0.1876 -0.0366
   55DOPE   H5X 7056   0.852   5.425  13.143  3.3327  1.1827 -2.7330
   55DOPE   H5Y 7057   0.822   5.278  13.036 -1.1715 -0.2036 -0.2870
   55DOPE   C36 7058   0.653   5.374  13.130  0.0419 -0.4397  0.0779
   55DOPE   H6X 7059   0.571   5.366  13.054  1.1531 -0.3299 -1.1679
   55DOPE   H6Y 7060   0.635   5.462  13.194  0.2547  0.0145 -0.4785
   55DOPE   C37 7061   0.645   5.249  13.225  0.4456 -0.4388  0.2622
   55DOPE   H7X 7062   0.626   5.167  13.152  0.0325  2.1921 -2.8322
   55DOPE   H7Y 7063   0.741   5.217  13.270  0.9474 -2.1874 -1.8473
   55DOPE   C38 7064   0.536   5.254  13.335 -0.4044 -0.1833 -0.5645
   55DOPE   H8X 7065   0.445   5.303  13.293 -2.6792 -1.0827  2.9094
   55DOPE   H8Y 7066   0.570   5.328  13.412 -3.2117  1.0334 -0.3456
   55DOPE   C39 7067   0.493   5.122  13.396  0.2105 -0.5907 -0.4797
   55DOPE   H9X 7068   0.430   5.065  13.326 -0.3178 -2.7397  1.6157
   55DOPE  C310 7069   0.546   5.066  13.511 -0.2976 -0.8109 -0.1778
   55DOPE  H10X 7070   0.524   4.959  13.528 -1.9766 -0.9835 -2.8114
   55DOPE  C311 7071   0.642   5.125  13.611 -0.1838 -0.1986  0.0284
   55DOPE  H11X 7072   0.666   5.231  13.588 -1.0034  0.6907  2.8428
   55DOPE  H11Y 7073   0.599   5.131  13.714 -0.3188  2.9442 -0.1072
   55DOPE  C312 7074   0.774   5.055  13.636 -0.0425  0.4095  0.0700
   55DOPE  H12X 7075   0.735   4.951  13.650  0.1078  0.2938 -0.3842
   55DOPE  H12Y 7076   0.826   5.088  13.729  0.9770  0.3672 -0.4826
   55DOPE  C313 7077   0.864   5.046  13.519 -0.2702  0.0995  0.1018
   55DOPE  H13X 7078   0.938   4.962  13.526  3.7047  3.1665 -1.0662
   55DOPE  H13Y 7079   0.800   5.023  13.432  0.6180 -1.3809 -0.1945
   55DOPE  C314 7080   0.941   5.174  13.481  0.2527  0.0106 -0.4675
   55DOPE  H14X 7081   0.871   5.261  13.487  0.3873  0.1046 -0.2586
   55DOPE  H14Y 7082   1.003   5.181  13.389  2.0888  0.3979  0.7485
   55DOPE  C315 7083   1.062   5.213  13.576  0.0953  0.3784 -0.2660
   55DOPE  H15X 7084   1.136   5.130  13.582 -0.1222 -0.0010 -2.1024
   55DOPE  H15Y 7085   1.008   5.212  13.672 -1.0714  1.2855 -0.8889
   55DOPE  C316 7086   1.141   5.349  13.550 -0.3241 -0.9662 -0.2115
   55DOPE  H16X 7087   1.064   5.429  13.550 -0.4825 -1.0291  2.3635
   55DOPE  H16Y 7088   1.180   5.339  13.447 -0.5113 -0.0506 -0.3760
   55DOPE  C317 7089   1.258   5.378  13.652  0.4695  0.1843 -0.8904
   55DOPE  H17X 7090   1.227   5.370  13.759  1.4745 -2.6528 -0.7196
   55DOPE  H17Y 7091   1.329   5.294  13.645  0.1822 -0.2077  0.5151
   55DOPE  C318 7092   1.336   5.500  13.609 -0.1044  0.2433 -0.3192
   55DOPE  H18X 7093   1.270   5.589  13.595 -2.6204 -1.8411 -3.2227
   55DOPE  H18Y 7094   1.412   5.524  13.686  0.4436 -2.7383  0.1599
   55DOPE  H18Z 7095   1.387   5.470  13.515 -1.3442 -1.1882 -0.5724
   56DOPE     N 7096   0.873   6.556  11.935 -0.3028 -0.0012  0.4619
   56DOPE   HN1 7097   0.823   6.646  11.949 -0.4419 -0.2124  1.3964
   56DOPE   HN2 7098   0.931   6.542  12.020  0.8896  1.2532 -0.1016
   56DOPE   HN3 7099   0.942   6.566  11.858 -1.1731 -1.7136 -0.6034
   56DOPE   C12 7100   0.772   6.452  11.904 -0.0386 -0.1456  0.3012
   56DOPE  H12A 7101   0.830   6.358  11.890 -0.0016  0.1174 -1.5405
   56DOPE  H12B 7102   0.722   6.463  11.806 -2.2044  0.9911  1.4665
   56DOPE   C11 7103   0.661   6.443  12.014 -0.7938  0.1898  0.0266
   56DOPE  H11A 7104   0.594   6.357  11.992 -0.2151 -0.1939 -0.2651
   56DOPE  H11B 7105   0.600   6.535  12.005  2.0584  2.2172  0.2019
   56DOPE     P 7106   0.610   6.410  12.256  0.3427 -0.2001  0.1166
   56DOPE   O13 7107   0.642   6.286  12.333  0.2573 -0.9714  0.0364
   56DOPE   O14 7108   0.468   6.412  12.201 -0.0755 -0.6286  0.4981
   56DOPE   O11 7109   0.617   6.537  12.351 -0.9596  0.2864 -0.3234
   56DOPE   O12 7110   0.722   6.437  12.147  0.5988  0.4915  0.5220
   56DOPE    C1 7111   0.733   6.558  12.429  0.4098  0.0274 -0.5197
   56DOPE    HA 7112   0.759   6.666  12.427  0.0891  0.0970 -1.5793
   56DOPE    HB 7113   0.822   6.506  12.388  0.5697  1.3219 -1.8880
   56DOPE    C2 7114   0.705   6.510  12.577  0.1747  0.3278  0.3676
   56DOPE    HS 7115   0.639   6.423  12.558 -1.9197  2.3163 -2.4315
   56DOPE   O21 7116   0.639   6.623  12.643 -0.0579  0.4395  0.1065
   56DOPE   C21 7117   0.557   6.578  12.742 -0.3611  0.8174 -0.0163
   56DOPE   O22 7118   0.530   6.464  12.778 -0.5256 -0.1937  0.0025
   56DOPE   C22 7119   0.503   6.703  12.808 -0.0029  0.1274 -0.0566
   56DOPE   H2R 7120   0.392   6.709  12.818  0.0323  0.7740  0.0425
   56DOPE   H2S 7121   0.527   6.795  12.749 -0.2029 -0.7351 -1.5341
   56DOPE    C3 7122   0.843   6.475  12.644  0.0889 -0.0060 -0.4658
   56DOPE    HX 7123   0.893   6.570  12.671  0.6812 -0.9245  1.8546
   56DOPE    HY 7124   0.908   6.413  12.579 -2.4342 -2.6953 -0.6106
   56DOPE   O31 7125   0.830   6.405  12.769 -0.3536  0.1031  0.1468
   56DOPE   C31 7126   0.820   6.278  12.762 -0.0485  0.3529  0.4594
   56DOPE   O32 7127   0.813   6.214  12.658  0.6071  0.5767  0.1428
   56DOPE   C32 7128   0.789   6.235  12.904 -0.2651  0.1696 -0.1256
   56DOPE   H2X 7129   0.885   6.249  12.958  0.0717 -0.1649 -0.6267
   56DOPE   H2Y 7130   0.717   6.303  12.955 -0.6890 -0.3099 -0.0770
   56DOPE   C23 7131   0.551   6.722  12.955  0.5237 -0.2389  0.2455
   56DOPE   H3R 7132   0.662   6.732  12.952  0.4501  0.9171  0.8529
   56DOPE   H3S 7133   0.539   6.629  13.014  0.9251 -1.1933 -1.1170
   56DOPE   C24 7134   0.480   6.840  13.029  0.8878  0.3775  0.2992
   56DOPE   H4R 7135   0.510   6.843  13.136 -2.0011 -4.2126  1.5059
   56DOPE   H4S 7136   0.372   6.819  13.045  1.4584 -0.6794  3.4554
   56DOPE   C25 7137   0.499   6.974  12.954  0.1917  0.2725 -0.3158
   56DOPE   H5R 7138   0.444   6.964  12.858 -3.3399  1.1956  1.4542
   56DOPE   H5S 7139   0.608   6.981  12.934  0.0411  2.1598 -0.6674
   56DOPE   C26 7140   0.440   7.098  13.009  0.0743 -0.1049 -0.2488
   56DOPE   H6R 7141   0.496   7.127  13.100 -2.9008 -0.5013  1.8564
   56DOPE   H6S 7142   0.340   7.074  13.050  0.2023 -0.0605  0.0911
   56DOPE   C27 7143   0.445   7.219  12.911  0.7885 -0.0021  0.4407
   56DOPE   H7R 7144   0.399   7.191  12.814  1.7858 -1.1153  0.2748
   56DOPE   H7S 7145   0.547   7.247  12.877  0.2432 -0.6205 -1.8658
   56DOPE   C28 7146   0.368   7.340  12.982  0.3918  0.3317 -0.0726
   56DOPE   H8R 7147   0.264   7.309  13.003  0.6577 -0.5080  0.0651
   56DOPE   H8S 7148   0.353   7.413  12.900  0.1769 -0.5995 -0.8887
   56DOPE   C29 7149   0.436   7.397  13.110  0.4683  0.1936  0.0424
   56DOPE   H9R 7150   0.400   7.359  13.207  2.0643 -2.1305 -0.1898
   56DOPE  C210 7151   0.541   7.480  13.119  0.7675  0.3974 -0.1743
   56DOPE  H10R 7152   0.591   7.491  13.216 -0.9868  0.6175  0.7406
   56DOPE  C211 7153   0.609   7.539  13.000  0.0119  0.2748  0.1184
   56DOPE  H11R 7154   0.634   7.645  13.025  1.2789  0.0300 -0.0654
   56DOPE  H11S 7155   0.536   7.539  12.916 -0.8998  0.9967  0.8902
   56DOPE  C212 7156   0.743   7.475  12.966  0.1989  0.2827  0.1162
   56DOPE  H12R 7157   0.775   7.526  12.873  0.0103  1.6200  0.7661
   56DOPE  H12S 7158   0.731   7.368  12.937  0.2413  0.7096 -1.5554
   56DOPE  C213 7159   0.852   7.486  13.070  0.3850  0.0989  0.0435
   56DOPE  H13R 7160   0.938   7.421  13.044  1.5331  0.8902  1.7399
   56DOPE  H13S 7161   0.811   7.439  13.161  0.8953  2.1634  1.4027
   56DOPE  C214 7162   0.895   7.626  13.099 -0.8053  0.0577  0.5133
   56DOPE  H14R 7163   0.812   7.690  13.137 -0.1722  2.9984 -2.6219
   56DOPE  H14S 7164   0.925   7.668  13.001 -0.8648 -2.3685 -0.6387
   56DOPE  C215 7165   1.011   7.642  13.196  0.1963  0.2787 -0.2949
   56DOPE  H15R 7166   1.066   7.736  13.173  0.2829  0.0121 -1.2067
   56DOPE  H15S 7167   1.090   7.566  13.181 -1.3109 -0.6920 -4.6576
   56DOPE  C216 7168   0.964   7.671  13.342  0.1134 -0.3153  0.2624
   56DOPE  H16R 7169   0.900   7.762  13.335  0.4889 -0.1299 -1.2697
   56DOPE  H16S 7170   1.055   7.685  13.404 -0.4110 -0.5508  1.0976
   56DOPE  C217 7171   0.873   7.561  13.397 -0.0686 -0.2482 -0.2124
   56DOPE  H17R 7172   0.928   7.467  13.379  2.3569  0.9853  0.2933
   56DOPE  H17S 7173   0.771   7.564  13.353  0.7888  3.1982 -2.3796
   56DOPE  C218 7174   0.862   7.583  13.546 -0.0715 -0.0125 -0.3452
   56DOPE  H18R 7175   0.802   7.507  13.601 -1.8281  1.6643  0.1486
   56DOPE  H18S 7176   0.822   7.683  13.572 -0.7620 -0.2565 -0.4261
   56DOPE  H18T 7177   0.967   7.578  13.581  0.1962  0.2408 -1.0923
   56DOPE   C33 7178   0.736   6.093  12.928 -0.6759  0.6156  0.2977
   56DOPE   H3X 7179   0.816   6.019  12.904  1.0585  2.2119  0.9060
   56DOPE   H3Y 7180   0.653   6.065  12.859  2.2283 -1.1873 -2.7706
   56DOPE   C34 7181   0.691   6.065  13.067  1.1158  0.2612  0.2876
   56DOPE   H4X 7182   0.773   6.076  13.140 -0.3144  0.7929  1.8714
   56DOPE   H4Y 7183   0.612   6.135  13.102  0.9965  0.2972 -0.0404
   56DOPE   C35 7184   0.637   5.923  13.082 -0.3129 -0.4079  0.4949
   56DOPE   H5X 7185   0.719   5.850  13.065 -0.9819 -1.4979  1.7555
   56DOPE   H5Y 7186   0.562   5.890  13.007  1.4807 -0.5536 -1.3333
   56DOPE   C36 7187   0.551   5.912  13.214  0.3740  0.1304  0.0437
   56DOPE   H6X 7188   0.448   5.939  13.184  0.8272  0.5075 -1.2263
   56DOPE   H6Y 7189   0.593   5.978  13.293  2.9902 -1.1841 -0.1465
   56DOPE   C37 7190   0.551   5.768  13.270  0.3464 -0.6206  0.1353
   56DOPE   H7X 7191   0.527   5.697  13.188 -0.7703 -2.7084  2.1349
   56DOPE   H7Y 7192   0.654   5.748  13.305  0.0866  3.0856  3.7690
   56DOPE   C38 7193   0.455   5.762  13.384 -0.3530  0.3842 -0.2774
   56DOPE   H8X 7194   0.355   5.791  13.345 -0.7780 -0.5470  0.0849
   56DOPE   H8Y 7195   0.491   5.834  13.460 -0.8341  1.5364 -1.1001
   56DOPE   C39 7196   0.445   5.620  13.435 -0.1562  0.1577  0.1309
   56DOPE   H9X 7197   0.391   5.552  13.368  0.3461 -1.7743  1.6044
   56DOPE  C310 7198   0.483   5.575  13.558  0.2408  0.3590 -0.6958
   56DOPE  H10X 7199   0.479   5.466  13.576  1.1707 -0.1044 -2.9533
   56DOPE  C311 7200   0.553   5.654  13.661  0.9309 -0.7313  0.2238
   56DOPE  H11X 7201   0.608   5.742  13.622 -2.7356  2.3934  1.5081
   56DOPE  H11Y 7202   0.468   5.692  13.721  0.9726  0.6168 -0.5361
   56DOPE  C312 7203   0.635   5.570  13.753 -0.2796 -0.2646  0.3977
   56DOPE  H12X 7204   0.584   5.484  13.801  0.5262 -0.3528  1.1099
   56DOPE  H12Y 7205   0.670   5.640  13.831  1.5936  1.4029 -1.7831
   56DOPE  C313 7206   0.759   5.518  13.691  0.1797  0.4577 -0.2734
   56DOPE  H13X 7207   0.727   5.425  13.640 -1.0270  1.2906 -1.0765
   56DOPE  H13Y 7208   0.812   5.590  13.625  1.6871  0.4005  0.8172
   56DOPE  C314 7209   0.877   5.484  13.797  0.9752 -0.2167  1.0275
   56DOPE  H14X 7210   0.912   5.572  13.855 -0.6838  0.2095  1.4482
   56DOPE  H14Y 7211   0.961   5.448  13.735  0.1382 -3.1980  1.4358
   56DOPE  C315 7212   0.842   5.371  13.896  0.0925 -0.6209  0.2887
   56DOPE  H15X 7213   0.811   5.281  13.840  1.0284  0.1738 -1.6058
   56DOPE  H15Y 7214   0.759   5.405  13.961 -0.3568  0.8446 -0.9867
   56DOPE  C316 7215   0.962   5.324  13.969  0.8631 -0.1339  0.2974
   56DOPE  H16X 7216   1.047   5.319  13.899  0.1814  1.0368 -0.6605
   56DOPE  H16Y 7217   0.943   5.221  14.005 -0.6531 -0.4978 -1.3923
   56DOPE  C317 7218   1.002   5.415  14.088 -0.4834 -0.3210 -0.3491
   56DOPE  H17X 7219   1.052   5.498  14.034  0.9552 -0.4184  0.7744
   56DOPE  H17Y 7220   0.917   5.463  14.142  1.4953  2.3368  0.6480
   56DOPE  C318 7221   1.105   5.356  14.188 -0.6461  0.7159 -0.1823
   56DOPE  H18X 7222   1.105   5.407  14.287 -0.0882 -1.6314  1.1332
   56DOPE  H18Y 7223   1.074   5.253  14.217 -4.9070  2.2116  1.4219
   56DOPE  H18Z 7224   1.208   5.360  14.146 -0.7262  0.1543 -0.4378
   57DOPE     N 7225   0.690   2.421  12.560 -0.3372 -0.1373 -0.5058
   57DOPE   HN1 7226   0.696   2.338  12.497  2.7235 -0.6725  0.3535
   57DOPE   HN2 7227   0.627   2.399  12.639  0.4439 -1.5281 -0.2527
   57DOPE   HN3 7228   0.647   2.505  12.515 -1.0039  1.5811  3.0175
   57DOPE   C12 7229   0.812   2.464  12.631  0.0058  0.3907  0.0368
   57DOPE  H12A 7230   0.774   2.535  12.707 -2.7058 -2.4246  1.5468
   57DOPE  H12B 7231   0.889   2.512  12.567  0.6708  1.3438  1.4722
   57DOPE   C11 7232   0.868   2.340  12.708  0.4397 -0.0059 -0.2884
   57DOPE  H11A 7233   0.948   2.369  12.779  1.3295 -0.7674 -0.9624
   57DOPE  H11B 7234   0.899   2.263  12.635  1.2538  0.3303 -0.2999
   57DOPE     P 7235   0.775   2.263  12.944 -0.0328  0.2055  0.5568
   57DOPE   O13 7236   0.655   2.200  12.996 -0.6717  0.5960  0.3877
   57DOPE   O14 7237   0.800   2.402  12.994 -0.0345 -0.0698  0.5091
   57DOPE   O11 7238   0.908   2.178  12.974  0.4482 -0.4623 -0.2343
   57DOPE   O12 7239   0.764   2.276  12.786 -0.0755  0.8313  0.4189
   57DOPE    C1 7240   0.927   2.045  12.929  0.4522  0.2307 -0.5470
   57DOPE    HA 7241   1.033   2.030  12.898  0.8726  0.3380  0.7574
   57DOPE    HB 7242   0.862   2.020  12.843  1.7880 -0.8840 -1.2827
   57DOPE    C2 7243   0.911   1.946  13.048 -0.4438  0.4928  0.1068
   57DOPE    HS 7244   0.985   1.866  13.030 -0.0900  0.9612 -0.5732
   57DOPE   O21 7245   0.781   1.895  13.061 -0.1892  0.3864 -0.1690
   57DOPE   C21 7246   0.753   1.804  12.973  0.4680 -0.2480 -0.3434
   57DOPE   O22 7247   0.820   1.762  12.884  0.1562  0.5339  0.5040
   57DOPE   C22 7248   0.610   1.751  13.011 -0.6743  1.1207 -0.7118
   57DOPE   H2R 7249   0.534   1.833  13.011 -0.8346  0.9762 -1.4458
   57DOPE   H2S 7250   0.622   1.715  13.115  3.6441 -0.5527 -1.5872
   57DOPE    C3 7251   0.940   2.020  13.185  0.1736  0.0603  1.1645
   57DOPE    HX 7252   0.859   2.093  13.205 -0.3374 -0.6173  1.5925
   57DOPE    HY 7253   1.036   2.072  13.166 -1.6995  3.3471 -0.1259
   57DOPE   O31 7254   0.965   1.929  13.292 -0.0837 -0.5562 -0.2487
   57DOPE   C31 7255   0.872   1.935  13.391 -0.8756  0.1166  0.3458
   57DOPE   O32 7256   0.790   2.025  13.403 -0.5706 -0.0707  0.0654
   57DOPE   C32 7257   0.876   1.812  13.468 -0.5359  0.0022 -0.0862
   57DOPE   H2X 7258   0.809   1.742  13.414  0.1807  0.4955 -1.6571
   57DOPE   H2Y 7259   0.977   1.766  13.460 -0.5877 -0.1295  0.0207
   57DOPE   C23 7260   0.559   1.634  12.914 -0.0359 -0.5884 -0.5143
   57DOPE   H3R 7261   0.620   1.541  12.917 -0.8128 -1.0736  0.8836
   57DOPE   H3S 7262   0.557   1.664  12.807  0.6465 -0.2746 -0.4442
   57DOPE   C24 7263   0.421   1.579  12.957  0.1042  0.1231 -0.2671
   57DOPE   H4R 7264   0.388   1.499  12.888  0.4273 -0.8086  0.6371
   57DOPE   H4S 7265   0.342   1.658  12.955  0.4237  0.5029  0.9650
   57DOPE   C25 7266   0.419   1.524  13.093 -0.6064 -0.0978  0.0748
   57DOPE   H5R 7267   0.380   1.598  13.167 -1.4381 -0.6563  0.2086
   57DOPE   H5S 7268   0.520   1.501  13.131 -0.7825 -0.7817  0.1332
   57DOPE   C26 7269   0.316   1.406  13.101  0.5992  0.3338 -0.0506
   57DOPE   H6R 7270   0.328   1.325  13.027  2.5654 -0.3096  0.9127
   57DOPE   H6S 7271   0.212   1.443  13.086  0.9913  1.1544 -0.8019
   57DOPE   C27 7272   0.333   1.338  13.238  0.8282 -0.8565  0.3561
   57DOPE   H7R 7273   0.291   1.401  13.318  0.3881  0.8371 -1.1474
   57DOPE   H7S 7274   0.441   1.327  13.260  1.6872  2.3057 -1.5779
   57DOPE   C28 7275   0.278   1.193  13.236  0.1335 -0.1464 -0.1671
   57DOPE   H8R 7276   0.320   1.143  13.325  1.0917  1.5787  0.3811
   57DOPE   H8S 7277   0.315   1.144  13.143 -0.1376  2.9048 -2.0022
   57DOPE   C29 7278   0.128   1.199  13.237  0.2067  0.3747  0.5073
   57DOPE   H9R 7279   0.084   1.267  13.163 -1.4707 -0.2635  0.8558
   57DOPE  C210 7280   0.035   1.137  13.314  0.1435  0.3817 -0.1373
   57DOPE  H10R 7281  -0.071   1.160  13.295  0.4085  0.4795 -1.6084
   57DOPE  C211 7282   0.064   1.035  13.420  0.0696 -0.1643 -0.3478
   57DOPE  H11R 7283   0.173   1.014  13.417  0.0369 -0.2037 -3.1674
   57DOPE  H11S 7284   0.012   0.938  13.407 -1.5195  0.6980 -0.6594
   57DOPE  C212 7285   0.021   1.100  13.554 -0.9773  0.2108  0.0867
   57DOPE  H12R 7286  -0.085   1.133  13.551 -1.0704  0.1531  1.9230
   57DOPE  H12S 7287   0.087   1.189  13.550 -1.0195  0.2063 -1.2670
   57DOPE  C213 7288   0.034   0.996  13.672 -0.2180  0.1810  0.0790
   57DOPE  H13R 7289   0.026   0.893  13.630 -0.0671 -1.0671  2.9157
   57DOPE  H13S 7290  -0.053   1.008  13.740 -0.4154 -0.6784 -0.0118
   57DOPE  C214 7291   0.168   1.020  13.741  0.8652  0.1235  0.0888
   57DOPE  H14R 7292   0.174   1.130  13.757  0.7755  0.0775  0.4507
   57DOPE  H14S 7293   0.243   0.998  13.661 -0.1177  0.5993 -0.9872
   57DOPE  C215 7294   0.176   0.940  13.866 -0.2804  0.3183 -0.1286
   57DOPE  H15R 7295   0.178   0.839  13.820  0.7052  0.7084 -0.9662
   57DOPE  H15S 7296   0.084   0.950  13.928 -0.7178 -0.9320 -0.5328
   57DOPE  C216 7297   0.296   0.986  13.958  0.8473  0.8041  0.5804
   57DOPE  H16R 7298   0.271   1.093  13.979 -0.1775  0.1113  3.2067
   57DOPE  H16S 7299   0.385   0.982  13.891 -1.2053 -4.4691 -2.3936
   57DOPE  C217 7300   0.319   0.906  14.084  0.1736  0.9596  0.1345
   57DOPE  H17R 7301   0.405   0.937  14.146 -0.2675 -0.0429  1.3091
   57DOPE  H17S 7302   0.352   0.807  14.047 -0.5620  0.0802  1.7391
   57DOPE  C218 7303   0.194   0.892  14.175  0.2167  0.0872 -0.0582
   57DOPE  H18R 7304   0.225   0.853  14.275  4.0386 -0.7112 -1.3719
   57DOPE  H18S 7305   0.112   0.829  14.135  0.0961  0.5884 -0.5960
   57DOPE  H18T 7306   0.157   0.996  14.187 -0.7063 -0.2423 -0.0225
   57DOPE   C33 7307   0.846   1.844  13.613 -0.3285 -0.6706 -0.4997
   57DOPE   H3X 7308   0.743   1.885  13.624  0.0247  0.5064 -1.3909
   57DOPE   H3Y 7309   0.916   1.924  13.644 -1.0310 -0.4903  0.6867
   57DOPE   C34 7310   0.865   1.725  13.701  0.8272  0.0357 -0.6578
   57DOPE   H4X 7311   0.798   1.642  13.673 -1.7485  1.1928  1.5798
   57DOPE   H4Y 7312   0.969   1.685  13.706 -0.3753 -3.2364  0.4732
   57DOPE   C35 7313   0.830   1.769  13.845  0.1197 -0.5497 -0.2197
   57DOPE   H5X 7314   0.740   1.835  13.844 -0.6779 -1.5952  0.3364
   57DOPE   H5Y 7315   0.919   1.824  13.883  1.1083 -1.9085 -0.4750
   57DOPE   C36 7316   0.813   1.651  13.939  0.2772 -0.0557 -0.1272
   57DOPE   H6X 7317   0.707   1.622  13.928  0.5361 -0.6492 -1.2873
   57DOPE   H6Y 7318   0.810   1.680  14.046 -1.9603  0.2249 -0.2205
   57DOPE   C37 7319   0.895   1.528  13.906  0.0619 -0.0522  0.3092
   57DOPE   H7X 7320   0.854   1.493  13.809 -0.6556 -0.4851  0.7595
   57DOPE   H7Y 7321   1.001   1.560  13.890  0.0151  0.2990  0.6755
   57DOPE   C38 7322   0.885   1.417  14.014 -0.4397 -0.4510  0.2274
   57DOPE   H8X 7323   0.781   1.386  14.035  0.2651 -2.2404  1.3014
   57DOPE   H8Y 7324   0.924   1.450  14.113  1.0673  1.4615 -0.9282
   57DOPE   C39 7325   0.951   1.288  13.965  0.0428  0.6979 -0.1883
   57DOPE   H9X 7326   0.879   1.213  13.929 -0.9662  1.4747  0.1491
   57DOPE  C310 7327   1.079   1.259  13.954 -0.1874  0.5921 -0.1678
   57DOPE  H10X 7328   1.109   1.161  13.913  0.5735  0.2904  1.0542
   57DOPE  C311 7329   1.201   1.345  13.983 -0.0176 -0.2738  1.0129
   57DOPE  H11X 7330   1.274   1.338  13.898 -0.8968 -3.7913  0.3677
   57DOPE  H11Y 7331   1.182   1.454  13.986 -0.9137 -0.4212  0.8579
   57DOPE  C312 7332   1.279   1.310  14.113 -0.7852 -0.0202  0.0484
   57DOPE  H12X 7333   1.306   1.203  14.121  0.0715  0.2135  0.3907
   57DOPE  H12Y 7334   1.202   1.322  14.192 -1.0311 -2.1549  0.1790
   57DOPE  C313 7335   1.400   1.406  14.132 -0.4864 -0.0882  0.9976
   57DOPE  H13X 7336   1.462   1.411  14.040 -1.2368 -1.7180  0.3611
   57DOPE  H13Y 7337   1.371   1.510  14.155  4.9297  1.6316  1.5492
   57DOPE  C314 7338   1.508   1.351  14.234  0.1534 -0.6146  0.3926
   57DOPE  H14X 7339   1.598   1.415  14.221 -0.6324  0.9447  2.1899
   57DOPE  H14Y 7340   1.535   1.247  14.205 -0.1055 -0.3672 -0.7869
   57DOPE  C315 7341   1.449   1.337  14.374 -0.6699 -0.2376 -0.5119
   57DOPE  H15X 7342   1.526   1.278  14.428  0.4229  3.0334  1.8505
   57DOPE  H15Y 7343   1.356   1.278  14.365 -1.9770  1.7098 -0.3326
   57DOPE  C316 7344   1.425   1.471  14.441  0.5475  0.4463 -0.0869
   57DOPE  H16X 7345   1.393   1.551  14.372 -1.9897  0.7582  1.3047
   57DOPE  H16Y 7346   1.509   1.523  14.492  0.3850  1.2889 -0.6598
   57DOPE  C317 7347   1.305   1.452  14.540 -0.0774  0.1052  0.6682
   57DOPE  H17X 7348   1.216   1.423  14.479  1.5175  0.1763 -1.8369
   57DOPE  H17Y 7349   1.343   1.372  14.607 -2.1183 -3.6740 -2.2724
   57DOPE  C318 7350   1.266   1.584  14.605 -0.2103 -0.0218 -0.0757
   57DOPE  H18X 7351   1.184   1.558  14.675  1.7897  0.1701  2.4963
   57DOPE  H18Y 7352   1.350   1.625  14.665  0.3960 -0.9841 -0.2334
   57DOPE  H18Z 7353   1.229   1.651  14.525 -0.6369  0.8409  0.8302
   58DOPE     N 7354   7.944   4.390  12.395 -0.6841  0.3759  0.4720
   58DOPE   HN1 7355   7.870   4.462  12.397  1.5620  2.9120 -0.7841
   58DOPE   HN2 7356   7.973   4.391  12.295  0.9745 -0.4788  0.8973
   58DOPE   HN3 7357   7.903   4.295  12.406 -0.3065 -0.0269 -1.2072
   58DOPE   C12 7358   8.068   4.421  12.468 -0.1854 -0.0380 -0.5960
   58DOPE  H12A 7359   8.152   4.353  12.441 -1.3483 -1.6113 -0.4009
   58DOPE  H12B 7360   8.047   4.400  12.575 -0.0351  0.1536 -0.5293
   58DOPE   C11 7361   8.111   4.573  12.444 -0.2221  0.1166 -0.4110
   58DOPE  H11A 7362   8.211   4.587  12.491 -0.9397  1.1483  0.8626
   58DOPE  H11B 7363   8.044   4.644  12.496 -1.3380 -1.6359  0.6710
   58DOPE     P 7364   8.222   4.563  12.204 -0.0346  0.2112  0.0955
   58DOPE   O13 7365   8.185   4.603  12.066 -0.5116 -0.1857 -0.2224
   58DOPE   O14 7366   8.240   4.418  12.228  0.3611  0.0127  0.0445
   58DOPE   O11 7367   8.346   4.644  12.253  0.3158 -0.3770 -0.2742
   58DOPE   O12 7368   8.102   4.599  12.302 -0.4830  0.5704 -0.2358
   58DOPE    C1 7369   8.348   4.788  12.253 -0.2176  0.5334  0.7581
   58DOPE    HA 7370   8.246   4.829  12.269 -0.4815  0.8370 -1.4376
   58DOPE    HB 7371   8.375   4.824  12.151 -0.8687  1.1669  0.7953
   58DOPE    C2 7372   8.437   4.833  12.365  0.7201 -0.2381  0.3664
   58DOPE    HS 7373   8.533   4.777  12.364  0.6115 -0.4203  0.1373
   58DOPE   O21 7374   8.374   4.799  12.495 -0.1838 -0.2749 -0.0870
   58DOPE   C21 7375   8.456   4.759  12.593 -0.4642 -0.7021 -0.5109
   58DOPE   O22 7376   8.579   4.768  12.597  0.1901 -0.1739  0.0649
   58DOPE   C22 7377   8.380   4.722  12.718  0.8909  0.2559  0.5545
   58DOPE   H2R 7378   8.361   4.613  12.712  1.6956  0.1973 -2.5364
   58DOPE   H2S 7379   8.282   4.776  12.719  1.2259  0.9055  2.6789
   58DOPE    C3 7380   8.466   4.991  12.357 -0.1778  0.3347  0.5862
   58DOPE    HX 7381   8.368   5.041  12.372  0.2908  1.7452 -0.8927
   58DOPE    HY 7382   8.499   5.023  12.256  1.8414 -0.7489  0.8410
   58DOPE   O31 7383   8.560   5.038  12.459  0.0271  0.2267 -0.4570
   58DOPE   C31 7384   8.693   5.022  12.445  0.3676 -0.3846 -0.1032
   58DOPE   O32 7385   8.744   4.969  12.354 -0.0427 -0.0826  0.1117
   58DOPE   C32 7386   8.764   5.076  12.565  0.1261  0.1854 -0.2593
   58DOPE   H2X 7387   8.758   5.186  12.548 -1.2838 -0.2614 -3.4212
   58DOPE   H2Y 7388   8.706   5.044  12.655  0.9001  0.1408  0.2397
   58DOPE   C23 7389   8.462   4.749  12.849  0.2174  0.5187 -0.1021
   58DOPE   H3R 7390   8.568   4.721  12.832 -0.4718 -2.4558  0.0568
   58DOPE   H3S 7391   8.422   4.680  12.926  0.1682  0.9371  0.2557
   58DOPE   C24 7392   8.437   4.882  12.924  0.3069  0.1020 -0.2261
   58DOPE   H4R 7393   8.490   4.870  13.021 -1.8093 -0.4708  0.9110
   58DOPE   H4S 7394   8.327   4.886  12.939  0.5190 -0.3369  1.5966
   58DOPE   C25 7395   8.490   5.006  12.844  0.6572 -0.1890 -0.6714
   58DOPE   H5R 7396   8.469   4.992  12.736 -2.2173 -0.6535 -0.1265
   58DOPE   H5S 7397   8.601   5.019  12.847  0.6159  0.1692 -0.6235
   58DOPE   C26 7398   8.418   5.130  12.890  0.6526 -0.3680  0.1499
   58DOPE   H6R 7399   8.307   5.123  12.886  0.6824 -1.2320  0.6816
   58DOPE   H6S 7400   8.449   5.210  12.819 -3.0896 -0.9871 -2.4802
   58DOPE   C27 7401   8.455   5.173  13.033  0.0967  0.4373 -0.2869
   58DOPE   H7R 7402   8.452   5.085  13.101 -0.4605  0.2531 -0.5470
   58DOPE   H7S 7403   8.376   5.246  13.062 -1.6776 -1.0267 -1.2479
   58DOPE   C28 7404   8.595   5.218  13.037  0.2599  0.1929  0.6125
   58DOPE   H8R 7405   8.608   5.272  12.941 -1.5951 -0.9636 -0.3437
   58DOPE   H8S 7406   8.669   5.136  13.027 -0.5047 -0.3061 -1.8381
   58DOPE   C29 7407   8.625   5.294  13.161 -0.2499 -0.9025 -0.7528
   58DOPE   H9R 7408   8.635   5.228  13.249  0.4427 -0.3436 -0.3994
   58DOPE  C210 7409   8.640   5.428  13.173 -0.6958 -0.2982 -0.6330
   58DOPE  H10R 7410   8.649   5.468  13.275 -0.4748  0.7106 -1.0368
   58DOPE  C211 7411   8.631   5.542  13.069  0.6078  0.4858 -0.1339
   58DOPE  H11R 7412   8.595   5.501  12.972 -0.7874  1.1471  0.0788
   58DOPE  H11S 7413   8.726   5.593  13.044  0.2568  0.4382 -1.7044
   58DOPE  C212 7414   8.527   5.643  13.118 -0.3489 -0.1163  0.2656
   58DOPE  H12R 7415   8.573   5.681  13.212 -0.7891 -1.9871  1.2972
   58DOPE  H12S 7416   8.431   5.591  13.139 -1.3963  0.8280 -1.9304
   58DOPE  C213 7417   8.503   5.760  13.024  0.2867 -0.4509 -0.0901
   58DOPE  H13R 7418   8.456   5.714  12.934 -1.0156  0.1815  0.2525
   58DOPE  H13S 7419   8.601   5.794  12.984  0.0956 -0.4036 -0.5253
   58DOPE  C214 7420   8.431   5.881  13.070 -0.0192 -0.9316 -0.2000
   58DOPE  H14R 7421   8.320   5.871  13.063  0.0091 -0.9786 -0.5992
   58DOPE  H14S 7422   8.454   5.963  12.998 -1.3347  1.9365  2.3967
   58DOPE  C215 7423   8.478   5.936  13.202  0.2584  0.8509  0.8214
   58DOPE  H15R 7424   8.589   5.942  13.206  0.4539 -1.1892 -0.0758
   58DOPE  H15S 7425   8.446   5.865  13.282 -0.9007  0.7328  0.2740
   58DOPE  C216 7426   8.430   6.077  13.233 -0.9271 -0.0952 -0.7149
   58DOPE  H16R 7427   8.320   6.064  13.243 -0.9731  1.8246  2.8644
   58DOPE  H16S 7428   8.460   6.155  13.159  2.4266  1.8895  2.4538
   58DOPE  C217 7429   8.481   6.119  13.372 -0.6031 -1.0012 -1.2184
   58DOPE  H17R 7430   8.592   6.133  13.368 -0.4909  1.2638  3.3411
   58DOPE  H17S 7431   8.458   6.033  13.438 -2.3499  0.4638  0.1709
   58DOPE  C218 7432   8.426   6.248  13.434 -0.4184  0.3006 -0.3453
   58DOPE  H18R 7433   8.464   6.269  13.536  2.3983  0.2431 -1.2830
   58DOPE  H18S 7434   8.315   6.246  13.425 -0.4736  0.8981  0.0672
   58DOPE  H18T 7435   8.468   6.329  13.370  0.8818  0.3686  0.5573
   58DOPE   C33 7436   8.909   5.023  12.592 -0.6008  0.4408  0.8595
   58DOPE   H3X 7437   8.971   5.061  12.509  1.1871  1.4066  2.5513
   58DOPE   H3Y 7438   8.931   4.914  12.602  0.0612  0.2231 -2.1402
   58DOPE   C34 7439   8.977   5.086  12.713 -0.7781 -0.2342  0.2688
   58DOPE   H4X 7440   9.080   5.046  12.722 -1.4883 -2.1200  0.5230
   58DOPE   H4Y 7441   8.964   5.193  12.686 -1.3673 -0.4398 -0.3083
   58DOPE   C35 7442   8.906   5.062  12.844  0.5775  0.2741  0.2477
   58DOPE   H5X 7443   8.808   5.114  12.850 -0.0719 -0.8298 -0.3541
   58DOPE   H5Y 7444   8.973   5.102  12.923  1.7529  1.1334 -1.1471
   58DOPE   C36 7445   8.868   4.920  12.882 -1.0626 -0.3542 -0.3491
   58DOPE   H6X 7446   8.951   4.853  12.850 -1.1664 -0.1886 -0.9692
   58DOPE   H6Y 7447   8.780   4.886  12.824 -1.8374  0.4594  0.3264
   58DOPE   C37 7448   8.847   4.903  13.038 -0.4980  0.0396  0.3646
   58DOPE   H7X 7449   8.941   4.946  13.079  1.0211 -0.7354 -2.1083
   58DOPE   H7Y 7450   8.775   4.980  13.075  0.7194  1.7132 -0.6475
   58DOPE   C38 7451   8.833   4.759  13.082  0.0679 -0.9366 -0.7445
   58DOPE   H8X 7452   8.741   4.704  13.052 -0.2430 -0.9595  0.2017
   58DOPE   H8Y 7453   8.823   4.759  13.193 -0.3789  0.9099 -0.7450
   58DOPE   C39 7454   8.944   4.666  13.033  0.0019  0.9100 -0.4638
   58DOPE   H9X 7455   8.912   4.607  12.946  0.4034  0.7812 -0.5256
   58DOPE  C310 7456   9.063   4.650  13.091  0.4836 -0.2838 -0.5268
   58DOPE  H10X 7457   9.139   4.588  13.041 -1.4591 -2.2905 -1.1498
   58DOPE  C311 7458   9.114   4.736  13.212 -0.4063  0.7478 -0.6993
   58DOPE  H11X 7459   9.214   4.780  13.191  0.5252 -0.2581  1.3587
   58DOPE  H11Y 7460   9.052   4.823  13.241  1.0437  0.7666  2.8525
   58DOPE  C312 7461   9.124   4.631  13.334 -0.1144 -0.0287  0.7143
   58DOPE  H12X 7462   9.022   4.620  13.377 -0.0599 -2.6069  0.3009
   58DOPE  H12Y 7463   9.189   4.676  13.412  3.1290  0.7206 -2.1614
   58DOPE  C313 7464   9.188   4.491  13.307 -0.1436 -0.0927  0.7925
   58DOPE  H13X 7465   9.136   4.433  13.228  0.5798 -0.0449  0.2744
   58DOPE  H13Y 7466   9.293   4.517  13.282 -0.9339  2.5914 -0.0011
   58DOPE  C314 7467   9.198   4.411  13.437  0.7379  0.6099  0.3898
   58DOPE  H14X 7468   9.263   4.465  13.509  2.5022  1.8395 -1.9969
   58DOPE  H14Y 7469   9.249   4.315  13.416  0.6297  0.4162  0.9849
   58DOPE  C315 7470   9.060   4.390  13.512 -0.2481 -0.6974 -0.1490
   58DOPE  H15X 7471   9.025   4.493  13.536  0.3978 -0.1801 -1.3334
   58DOPE  H15Y 7472   9.084   4.342  13.609 -3.2366 -1.3394  0.3490
   58DOPE  C316 7473   8.965   4.301  13.437 -0.8598 -0.5031 -0.1562
   58DOPE  H16X 7474   9.028   4.213  13.416  1.1975  1.2232 -1.5690
   58DOPE  H16Y 7475   8.949   4.347  13.337  1.6828 -0.2480 -0.5221
   58DOPE  C317 7476   8.835   4.270  13.522 -0.0424  0.1986  0.1358
   58DOPE  H17X 7477   8.780   4.364  13.544  0.7000  0.9572 -1.1773
   58DOPE  H17Y 7478   8.765   4.215  13.456  0.8033 -0.3016 -0.3553
   58DOPE  C318 7479   8.847   4.191  13.654 -0.1025  0.0426 -0.7234
   58DOPE  H18X 7480   8.745   4.164  13.688  0.4606 -0.8745  0.2845
   58DOPE  H18Y 7481   8.900   4.095  13.634 -0.9181 -0.7988  0.9728
   58DOPE  H18Z 7482   8.907   4.247  13.729 -0.1102  0.8998 -1.3381
   59DOPE     N 7483   0.182   0.976  12.449  0.1185 -0.5617 -0.1566
   59DOPE   HN1 7484   0.120   1.060  12.456 -1.4952 -1.6947 -0.3577
   59DOPE   HN2 7485   0.136   0.896  12.497 -0.5587 -0.3850 -0.4974
   59DOPE   HN3 7486   0.277   0.996  12.488  0.1672 -3.1404  1.2409
   59DOPE   C12 7487   0.205   0.941  12.308 -0.7051  0.2487  0.1193
   59DOPE  H12A 7488   0.280   0.859  12.303 -0.6426  0.0330  2.9692
   59DOPE  H12B 7489   0.244   1.033  12.259 -1.3096 -1.7375 -4.6744
   59DOPE   C11 7490   0.077   0.898  12.232  0.0197  0.3691  0.7332
   59DOPE  H11A 7491   0.100   0.867  12.127 -1.5080 -0.9236  0.7370
   59DOPE  H11B 7492   0.013   0.988  12.226  2.2242  2.1786  2.6309
   59DOPE     P 7493  -0.012   0.653  12.271 -0.1336  0.3873  0.1975
   59DOPE   O13 7494   0.117   0.589  12.300  0.1104 -0.4320  0.2288
   59DOPE   O14 7495  -0.053   0.637  12.131 -0.3702  0.5047 -0.6365
   59DOPE   O11 7496  -0.119   0.568  12.357  0.2038 -0.4208  0.3097
   59DOPE   O12 7497  -0.009   0.805  12.304 -0.3757  0.0462  0.0104
   59DOPE    C1 7498  -0.229   0.628  12.423 -0.5461  0.1957 -0.1229
   59DOPE    HA 7499  -0.291   0.544  12.459  0.0335 -0.2906 -0.2360
   59DOPE    HB 7500  -0.282   0.697  12.353  0.6452  0.8460 -0.4250
   59DOPE    C2 7501  -0.187   0.703  12.556  0.0834  0.4624  0.0503
   59DOPE    HS 7502  -0.148   0.805  12.535  1.4998  0.5617  2.6785
   59DOPE   O21 7503  -0.098   0.623  12.637  0.2326 -0.1732 -0.0818
   59DOPE   C21 7504   0.026   0.665  12.617 -0.1877 -0.4432 -0.0392
   59DOPE   O22 7505   0.063   0.781  12.598  0.2505  0.4191  0.2364
   59DOPE   C22 7506   0.116   0.534  12.627  0.4738 -0.4644  0.4185
   59DOPE   H2R 7507   0.201   0.561  12.561 -0.1020 -0.9879 -0.5562
   59DOPE   H2S 7508   0.057   0.456  12.575  0.1016  0.6772 -0.9228
   59DOPE    C3 7509  -0.313   0.720  12.644 -0.5371  0.6493  0.3458
   59DOPE    HX 7510  -0.355   0.621  12.670  0.8689 -0.4008 -1.1575
   59DOPE    HY 7511  -0.384   0.772  12.575 -0.4154  0.4140  0.0385
   59DOPE   O31 7512  -0.287   0.785  12.769  0.1037 -0.4137  0.2094
   59DOPE   C31 7513  -0.390   0.808  12.851 -0.1761 -0.5416 -0.4537
   59DOPE   O32 7514  -0.506   0.796  12.821 -0.2325 -0.3964 -0.5145
   59DOPE   C32 7515  -0.336   0.861  12.978  0.2248 -0.0088  0.1035
   59DOPE   H2X 7516  -0.265   0.782  13.010  0.4245 -0.4676 -1.4095
   59DOPE   H2Y 7517  -0.288   0.959  12.955  1.0661  0.6754  3.9438
   59DOPE   C23 7518   0.158   0.493  12.771 -0.5017  0.5187 -0.2731
   59DOPE   H3R 7519   0.068   0.499  12.836  0.1716  0.9591  0.6429
   59DOPE   H3S 7520   0.231   0.566  12.812  0.7843 -0.4391 -0.7844
   59DOPE   C24 7521   0.222   0.354  12.772  0.2371 -0.0870 -0.2046
   59DOPE   H4R 7522   0.325   0.357  12.730  1.2935 -0.9274  2.1684
   59DOPE   H4S 7523   0.162   0.283  12.711 -0.7470 -0.6269  1.3331
   59DOPE   C25 7524   0.237   0.299  12.913  0.8887 -0.2837 -0.5082
   59DOPE   H5R 7525   0.231   0.189  12.905 -0.4935 -0.2583 -0.1805
   59DOPE   H5S 7526   0.146   0.329  12.969  0.9706  0.3025 -0.6776
   59DOPE   C26 7527   0.357   0.356  12.990  0.6001 -0.8313  0.7887
   59DOPE   H6R 7528   0.349   0.467  12.998 -0.8075 -0.9481  1.2652
   59DOPE   H6S 7529   0.444   0.329  12.926  1.0108 -2.0693  1.8533
   59DOPE   C27 7530   0.382   0.297  13.130  0.1177  0.0365 -0.4266
   59DOPE   H7R 7531   0.390   0.187  13.112  0.8735  0.1865 -1.0574
   59DOPE   H7S 7532   0.298   0.298  13.202  2.1693 -0.5357  2.1317
   59DOPE   C28 7533   0.492   0.369  13.210 -0.5179  0.2181  1.0652
   59DOPE   H8R 7534   0.492   0.321  13.310 -3.8303 -0.9546  0.6142
   59DOPE   H8S 7535   0.471   0.478  13.212 -2.9071 -0.1793  0.4539
   59DOPE   C29 7536   0.630   0.365  13.141 -0.2042 -0.4896 -0.0126
   59DOPE   H9R 7537   0.643   0.441  13.064 -0.9626 -0.7859 -0.4507
   59DOPE  C210 7538   0.735   0.285  13.174  0.8752 -0.0337 -0.7214
   59DOPE  H10R 7539   0.832   0.300  13.126  1.6951 -1.6925  0.3154
   59DOPE  C211 7540   0.742   0.182  13.283  0.6188 -0.3966 -0.1298
   59DOPE  H11R 7541   0.784   0.093  13.232 -1.3271 -1.0135 -0.7411
   59DOPE  H11S 7542   0.642   0.164  13.328  1.6559 -0.5144  2.2823
   59DOPE  C212 7543   0.825   0.225  13.401  0.3896  0.4241 -0.2103
   59DOPE  H12R 7544   0.930   0.241  13.367  0.7323 -1.4744 -0.1648
   59DOPE  H12S 7545   0.843   0.139  13.468  2.3290  1.5692  0.8424
   59DOPE  C213 7546   0.770   0.346  13.470 -0.2613 -0.1916 -0.2326
   59DOPE  H13R 7547   0.659   0.360  13.474 -0.5142 -1.8782 -0.5860
   59DOPE  H13S 7548   0.789   0.433  13.404  2.0643 -1.3856 -1.2402
   59DOPE  C214 7549   0.838   0.389  13.605 -0.2608 -0.1178 -0.0652
   59DOPE  H14R 7550   0.945   0.367  13.586  0.6139  3.0213  0.7223
   59DOPE  H14S 7551   0.791   0.331  13.688  0.1905  0.2167  0.4342
   59DOPE  C215 7552   0.822   0.539  13.640 -0.3752 -0.4421  0.7924
   59DOPE  H15R 7553   0.715   0.568  13.646 -0.8966 -2.3745  1.5769
   59DOPE  H15S 7554   0.851   0.595  13.548 -1.9580 -0.8937 -0.0146
   59DOPE  C216 7555   0.902   0.592  13.760  0.2159 -0.0912 -0.3707
   59DOPE  H16R 7556   1.006   0.560  13.740  0.2466 -0.5560  0.4721
   59DOPE  H16S 7557   0.875   0.548  13.859  1.4091  3.0796  1.4986
   59DOPE  C217 7558   0.906   0.745  13.784  0.5032  0.5224  0.1100
   59DOPE  H17R 7559   0.945   0.753  13.888 -0.6749 -0.1613  0.6220
   59DOPE  H17S 7560   0.803   0.785  13.796  0.3898 -0.1138  1.5323
   59DOPE  C218 7561   0.988   0.821  13.683 -1.1358 -0.3208 -0.1648
   59DOPE  H18R 7562   1.094   0.791  13.698 -1.3876 -0.9925  0.3621
   59DOPE  H18S 7563   0.986   0.929  13.705 -0.3977 -0.2017 -0.6301
   59DOPE  H18T 7564   0.955   0.806  13.578 -0.7999  1.3135 -0.5226
   59DOPE   C33 7565  -0.439   0.892  13.097  0.3759  0.8758  0.3685
   59DOPE   H3X 7566  -0.470   0.794  13.141  0.5364  1.3061  1.4839
   59DOPE   H3Y 7567  -0.531   0.926  13.045  0.9259 -0.0321 -1.2712
   59DOPE   C34 7568  -0.400   0.995  13.202 -0.2603 -0.4592  0.5786
   59DOPE   H4X 7569  -0.352   1.080  13.149 -1.7527 -0.2288 -0.4570
   59DOPE   H4Y 7570  -0.496   1.037  13.238 -0.7259 -2.4307  1.8506
   59DOPE   C35 7571  -0.306   0.948  13.308 -0.8232 -0.0237  0.3984
   59DOPE   H5X 7572  -0.268   1.037  13.363 -2.9808  0.4708  1.1884
   59DOPE   H5Y 7573  -0.218   0.907  13.254 -0.3350  1.4501  0.0150
   59DOPE   C36 7574  -0.372   0.845  13.395 -0.1648  0.7085 -0.6144
   59DOPE   H6X 7575  -0.410   0.754  13.342 -1.6295  0.3970  0.8838
   59DOPE   H6Y 7576  -0.460   0.889  13.447  1.0041  0.3726  1.7465
   59DOPE   C37 7577  -0.279   0.794  13.503 -0.0699 -0.0656  0.2118
   59DOPE   H7X 7578  -0.216   0.720  13.450 -0.7557 -0.3020 -0.2837
   59DOPE   H7Y 7579  -0.211   0.878  13.526 -0.9803  1.1892 -1.4612
   59DOPE   C38 7580  -0.349   0.735  13.630 -0.2769 -0.6315  0.2691
   59DOPE   H8X 7581  -0.413   0.650  13.598  1.1173 -1.7033  0.2245
   59DOPE   H8Y 7582  -0.415   0.811  13.677 -1.1588 -1.0655 -0.2367
   59DOPE   C39 7583  -0.258   0.675  13.735 -0.0019 -0.7135 -0.0069
   59DOPE   H9X 7584  -0.238   0.741  13.821 -0.5004  0.4236 -0.7364
   59DOPE  C310 7585  -0.182   0.570  13.720 -0.2115  0.2901 -0.3103
   59DOPE  H10X 7586  -0.127   0.547  13.813  0.2221  1.1427 -0.3440
   59DOPE  C311 7587  -0.180   0.461  13.612 -0.4362  0.3366  0.0252
   59DOPE  H11X 7588  -0.256   0.496  13.539  1.3275  0.5437 -1.7613
   59DOPE  H11Y 7589  -0.082   0.464  13.561 -0.9513  4.8625 -1.1070
   59DOPE  C312 7590  -0.220   0.325  13.681  0.4352  0.4061  0.3550
   59DOPE  H12X 7591  -0.237   0.239  13.613  1.5945 -1.1097  1.8839
   59DOPE  H12Y 7592  -0.307   0.346  13.748 -1.1039 -1.2279 -1.0361
   59DOPE  C313 7593  -0.111   0.285  13.787  0.9390  0.2398  0.6353
   59DOPE  H13X 7594  -0.014   0.295  13.735 -0.7018  3.0023 -2.2442
   59DOPE  H13Y 7595  -0.108   0.358  13.871 -2.0419  0.8031  0.3828
   59DOPE  C314 7596  -0.124   0.143  13.848 -0.2047  0.0566 -0.3194
   59DOPE  H14X 7597  -0.138   0.061  13.774  0.2994  0.1320 -0.5029
   59DOPE  H14Y 7598  -0.211   0.151  13.916 -0.0931  1.9098 -0.3583
   59DOPE  C315 7599  -0.005   0.104  13.927  0.3161 -0.0581 -0.0747
   59DOPE  H15X 7600   0.018   0.194  13.989 -0.3545  0.0168  0.0760
   59DOPE  H15Y 7601   0.084   0.084  13.863  2.0778  0.4269  2.0572
   59DOPE  C316 7602  -0.032  -0.021  14.010  0.3406 -0.3733 -0.1599
   59DOPE  H16X 7603  -0.051  -0.100  13.935 -0.9832  0.1480 -0.4026
   59DOPE  H16Y 7604  -0.115  -0.002  14.082  0.2538  0.1691 -0.4002
   59DOPE  C317 7605   0.091  -0.061  14.093  0.2686  0.0912  0.1787
   59DOPE  H17X 7606   0.176  -0.099  14.033 -0.9734 -0.4506 -1.3094
   59DOPE  H17Y 7607   0.133   0.019  14.158 -0.1826 -0.2503  0.9093
   59DOPE  C318 7608   0.054  -0.183  14.181  0.1502  0.1269 -0.1214
   59DOPE  H18X 7609  -0.035  -0.168  14.246 -0.4237  3.4929 -1.4919
   59DOPE  H18Y 7610   0.044  -0.275  14.118  0.6657 -0.0476  0.0460
   59DOPE  H18Z 7611   0.139  -0.214  14.245 -0.7499 -2.7395 -0.1385
   60DOPE     N 7612   7.639   6.857  12.619 -0.3792 -0.2745  0.1991
   60DOPE   HN1 7613   7.712   6.856  12.545  0.0591  2.5488  0.4907
   60DOPE   HN2 7614   7.566   6.787  12.593 -0.6220  0.8034 -2.2992
   60DOPE   HN3 7615   7.608   6.955  12.610  3.0123  0.8394 -0.8973
   60DOPE   C12 7616   7.689   6.823  12.757  0.1699  0.2256  0.7321
   60DOPE  H12A 7617   7.734   6.721  12.757  1.4722  0.7639  1.7637
   60DOPE  H12B 7618   7.613   6.846  12.834 -0.7569  0.8927 -0.3605
   60DOPE   C11 7619   7.795   6.931  12.799 -0.4213  0.0113 -0.2017
   60DOPE  H11A 7620   7.824   6.904  12.903 -0.3041 -0.4481 -0.3541
   60DOPE  H11B 7621   7.747   7.030  12.818 -1.6574 -0.6609  0.3190
   60DOPE     P 7622   7.962   7.056  12.634 -0.1122 -0.3646 -0.1705
   60DOPE   O13 7623   7.871   7.093  12.528  0.5137  0.3370  0.1729
   60DOPE   O14 7624   8.104   7.031  12.594  0.0769 -0.3065 -0.1874
   60DOPE   O11 7625   7.947   7.165  12.758 -0.3641 -0.1699  0.3706
   60DOPE   O12 7626   7.907   6.924  12.706  0.5084 -0.5444 -0.0970
   60DOPE    C1 7627   8.049   7.149  12.865  0.4885  0.3981  0.2035
   60DOPE    HA 7628   8.112   7.241  12.857  2.6624 -1.0327  0.1140
   60DOPE    HB 7629   8.114   7.060  12.853  0.2942  0.4175 -1.2959
   60DOPE    C2 7630   7.985   7.146  13.010 -0.2553 -0.2303  0.0803
   60DOPE    HS 7631   7.915   7.060  13.015  2.1056 -2.2102  1.2252
   60DOPE   O21 7632   7.917   7.269  13.042 -0.0707 -0.3476 -0.3018
   60DOPE   C21 7633   7.781   7.268  13.027 -0.7933 -0.1270 -0.5075
   60DOPE   O22 7634   7.713   7.169  13.008 -0.6172  0.2377  0.1702
   60DOPE   C22 7635   7.733   7.412  13.030 -0.8519 -0.1228  0.2057
   60DOPE   H2R 7636   7.782   7.456  12.940  0.6763 -1.7965  0.1459
   60DOPE   H2S 7637   7.774   7.457  13.123 -2.8396 -0.5499  1.3405
   60DOPE    C3 7638   8.097   7.125  13.112  0.1606  0.0665 -0.9427
   60DOPE    HX 7639   8.144   7.224  13.132  1.4818 -0.6963 -0.1119
   60DOPE    HY 7640   8.176   7.057  13.075 -0.3833 -1.6824  0.8984
   60DOPE   O31 7641   8.050   7.075  13.239 -0.2064 -0.9036  0.0973
   60DOPE   C31 7642   8.016   6.951  13.241 -0.3628  0.5949 -0.4289
   60DOPE   O32 7643   8.036   6.872  13.144  0.4667 -0.1109  0.0426
   60DOPE   C32 7644   7.953   6.912  13.376  0.7317  0.4108  0.2082
   60DOPE   H2X 7645   7.868   6.983  13.386 -0.7856 -1.2229 -0.5409
   60DOPE   H2Y 7646   7.905   6.813  13.362  0.5638  0.2249  1.8650
   60DOPE   C23 7647   7.577   7.427  13.018 -0.4809 -0.1019 -0.3446
   60DOPE   H3R 7648   7.539   7.373  12.928 -0.8312 -0.3569 -0.0522
   60DOPE   H3S 7649   7.541   7.531  13.004 -0.7606 -0.0744  0.4741
   60DOPE   C24 7650   7.494   7.365  13.137 -0.1277  0.5198 -0.7452
   60DOPE   H4R 7651   7.537   7.265  13.159  1.2740  0.8293 -1.9501
   60DOPE   H4S 7652   7.389   7.348  13.105  0.6044 -1.3488 -2.3466
   60DOPE   C25 7653   7.511   7.451  13.264 -0.1046 -0.1776  0.8018
   60DOPE   H5R 7654   7.475   7.553  13.239  1.5864 -0.0786 -1.5696
   60DOPE   H5S 7655   7.621   7.457  13.277  0.1613 -3.3484  0.8743
   60DOPE   C26 7656   7.446   7.387  13.391 -0.6420 -0.0845  0.2303
   60DOPE   H6R 7657   7.494   7.287  13.398  0.6307  0.5243  0.5169
   60DOPE   H6S 7658   7.339   7.368  13.368 -0.2210 -1.2365 -0.9141
   60DOPE   C27 7659   7.472   7.472  13.514  0.7127 -0.1121 -0.3713
   60DOPE   H7R 7660   7.447   7.579  13.497  0.3200 -0.1783 -0.2292
   60DOPE   H7S 7661   7.582   7.480  13.528  0.5977 -0.3152  0.6958
   60DOPE   C28 7662   7.409   7.424  13.649 -0.1194 -0.0922  0.0200
   60DOPE   H8R 7663   7.305   7.400  13.617 -0.2586  2.9571 -2.2819
   60DOPE   H8S 7664   7.390   7.500  13.728  2.4850 -0.2186  0.8421
   60DOPE   C29 7665   7.495   7.312  13.706 -0.3027 -0.0120 -0.3331
   60DOPE   H9R 7666   7.580   7.351  13.765 -1.1611 -1.5772  2.0911
   60DOPE  C210 7667   7.480   7.183  13.696 -0.0976  0.1583  0.2371
   60DOPE  H10R 7668   7.557   7.125  13.749  0.1806  1.3062  1.1369
   60DOPE  C211 7669   7.371   7.113  13.625  0.1077 -0.5937  0.2316
   60DOPE  H11R 7670   7.406   7.014  13.587 -1.2536 -1.4743  1.1698
   60DOPE  H11S 7671   7.338   7.173  13.538  1.0331  2.3924  1.8016
   60DOPE  C212 7672   7.244   7.093  13.702 -0.6601  0.1507  0.3818
   60DOPE  H12R 7673   7.193   7.192  13.693 -0.0925  0.4885  0.8229
   60DOPE  H12S 7674   7.257   7.069  13.809 -0.3221  1.0077  0.5396
   60DOPE  C213 7675   7.158   6.989  13.632 -0.6588 -0.5831  0.2774
   60DOPE  H13R 7676   7.223   6.910  13.588 -1.1700 -1.8770  1.7619
   60DOPE  H13S 7677   7.113   7.036  13.542  0.8400 -1.3749 -0.9334
   60DOPE  C214 7678   7.058   6.920  13.725 -1.1168 -0.2542 -0.3932
   60DOPE  H14R 7679   6.971   6.874  13.674 -2.3261  0.6690  0.7914
   60DOPE  H14S 7680   7.024   6.999  13.795 -1.7429 -1.7924  1.0847
   60DOPE  C215 7681   7.125   6.805  13.808  0.0457 -0.4837  0.7555
   60DOPE  H15R 7682   7.230   6.834  13.829  0.1819 -0.5082  0.1248
   60DOPE  H15S 7683   7.118   6.712  13.748  0.9784  0.3113 -0.6354
   60DOPE  C216 7684   7.054   6.781  13.942 -0.0464  0.0035  0.2859
   60DOPE  H16R 7685   6.951   6.747  13.916  1.2491 -2.8814 -1.6821
   60DOPE  H16S 7686   7.050   6.871  14.006 -0.0261 -0.0150  0.3137
   60DOPE  C217 7687   7.117   6.666  14.016 -0.2952 -0.1197  0.6266
   60DOPE  H17R 7688   7.227   6.680  14.021 -0.6181  2.9733  0.8896
   60DOPE  H17S 7689   7.096   6.568  13.968  1.4582  0.2363 -0.9711
   60DOPE  C218 7690   7.064   6.660  14.160 -0.2930  0.2087  0.0153
   60DOPE  H18R 7691   7.088   6.759  14.204  0.7765  0.9329 -2.0883
   60DOPE  H18S 7692   7.103   6.584  14.232 -2.8135  1.0434  2.4458
   60DOPE  H18T 7693   6.953   6.661  14.151 -0.5159 -4.6434 -0.3906
   60DOPE   C33 7694   8.056   6.908  13.492  0.3177 -0.0585 -0.7295
   60DOPE   H3X 7695   8.102   7.006  13.518  0.4875 -0.1997 -0.4889
   60DOPE   H3Y 7696   8.141   6.840  13.465 -0.0838 -0.5071 -0.8782
   60DOPE   C34 7697   7.994   6.852  13.619  0.2116  0.2232 -0.4533
   60DOPE   H4X 7698   7.899   6.908  13.633  0.5962  1.0207 -0.9408
   60DOPE   H4Y 7699   7.977   6.743  13.611  1.0515  0.0307  0.2951
   60DOPE   C35 7700   8.057   6.885  13.752  0.0656 -0.1951 -0.3912
   60DOPE   H5X 7701   8.100   6.986  13.761 -0.6634  0.1158 -0.3362
   60DOPE   H5Y 7702   8.138   6.810  13.765 -0.7412 -0.6022  3.7292
   60DOPE   C36 7703   7.957   6.871  13.869  0.0655  0.4431 -0.0554
   60DOPE   H6X 7704   7.909   6.772  13.854  2.0767 -0.3230 -1.9079
   60DOPE   H6Y 7705   7.882   6.954  13.871 -0.7056 -0.2597  0.9049
   60DOPE   C37 7706   8.031   6.872  14.004 -0.0938  0.0086 -0.2750
   60DOPE   H7X 7707   8.126   6.814  14.007  0.2931  0.6149  2.4018
   60DOPE   H7Y 7708   8.065   6.975  14.028 -2.7197  0.8786 -0.0217
   60DOPE   C38 7709   7.946   6.809  14.112 -0.2395 -0.6935 -0.6175
   60DOPE   H8X 7710   7.995   6.763  14.201 -2.6095 -0.4076  0.9297
   60DOPE   H8Y 7711   7.889   6.725  14.066 -1.4362 -0.4642  0.3847
   60DOPE   C39 7712   7.839   6.912  14.146  0.0076 -0.4079  0.5761
   60DOPE   H9X 7713   7.736   6.880  14.129 -0.5532  1.1433  0.8764
   60DOPE  C310 7714   7.853   7.035  14.204  0.3816 -0.0567  0.6041
   60DOPE  H10X 7715   7.765   7.101  14.202 -0.8506 -1.6122 -2.2427
   60DOPE  C311 7716   7.972   7.105  14.254 -0.4741 -0.1260  0.6146
   60DOPE  H11X 7717   8.060   7.036  14.254 -0.1366  0.2831  1.5262
   60DOPE  H11Y 7718   8.004   7.191  14.192  1.9792  0.9899  3.2128
   60DOPE  C312 7719   7.943   7.158  14.394 -0.3819 -0.2520 -0.1907
   60DOPE  H12X 7720   7.840   7.199  14.396 -0.4957 -0.5437 -0.0179
   60DOPE  H12Y 7721   8.008   7.242  14.427 -0.1559 -0.1316 -0.9241
   60DOPE  C313 7722   7.943   7.052  14.503  0.1472  0.0630 -0.1622
   60DOPE  H13X 7723   7.853   6.988  14.486 -1.6915  2.6415 -0.8466
   60DOPE  H13Y 7724   8.045   7.008  14.501  1.1007  2.1750 -1.1535
   60DOPE  C314 7725   7.925   7.128  14.642  0.0096  0.2268  0.4890
   60DOPE  H14X 7726   7.820   7.161  14.655 -0.5943 -0.4554 -2.0910
   60DOPE  H14Y 7727   7.999   7.211  14.633 -0.8969  0.9040 -1.1226
   60DOPE  C315 7728   7.969   7.047  14.760 -0.3179  0.4762 -0.5205
   60DOPE  H15X 7729   8.071   7.014  14.731 -0.4840 -0.1443 -0.4019
   60DOPE  H15Y 7730   7.893   6.967  14.771  0.1676 -0.3328 -2.6117
   60DOPE  C316 7731   7.991   7.122  14.894 -0.5715  0.1317 -0.1076
   60DOPE  H16X 7732   7.905   7.190  14.906 -0.9708 -0.4168  0.1704
   60DOPE  H16Y 7733   8.080   7.188  14.883  0.9904 -1.9256 -0.6480
   60DOPE  C317 7734   8.000   7.050  15.024  0.5541  0.3954 -0.1102
   60DOPE  H17X 7735   7.896   7.014  15.039  0.8089 -0.6362 -0.7486
   60DOPE  H17Y 7736   8.055   6.954  15.019  0.3728  0.1928  1.2382
   60DOPE  C318 7737   8.031   7.128  15.148  0.2377  0.3751  0.2955
   60DOPE  H18X 7738   8.039   7.070  15.242  0.0132 -0.9104 -0.4499
   60DOPE  H18Y 7739   8.134   7.164  15.128  0.1710 -0.9228 -3.2545
   60DOPE  H18Z 7740   7.959   7.211  15.163  0.3997  0.4788  0.4856
   6123SM     N 7741   3.524   4.548  16.231  0.7650 -0.2818 -0.1396
   6123SM   C15 7742   3.579   4.553  16.374  0.1914  0.1474 -0.1010
   6123SM  H15A 7743   3.513   4.505  16.444  0.6776 -1.4183 -0.6837
   6123SM  H15B 7744   3.587   4.657  16.404 -1.2342 -0.0552  1.0571
   6123SM  H15C 7745   3.673   4.499  16.374  0.5802  0.7923  0.9526
   6123SM   C14 7746   3.627   4.577  16.135  0.3839 -0.5241  0.0500
   6123SM  H14A 7747   3.597   4.526  16.045 -2.7024  0.0545  0.6360
   6123SM  H14B 7748   3.724   4.537  16.161  0.1913  0.0638  1.8427
   6123SM  H14C 7749   3.639   4.682  16.116  0.0687 -0.4136  0.4316
   6123SM   C13 7750   3.483   4.408  16.205 -0.2898 -0.5813  0.1728
   6123SM  H13A 7751   3.447   4.374  16.301 -1.0092  1.1727  0.5649
   6123SM  H13B 7752   3.566   4.347  16.172  0.3711 -0.2277  1.1291
   6123SM  H13C 7753   3.403   4.399  16.133  0.8725  2.2491 -1.6007
   6123SM   C12 7754   3.400   4.629  16.226 -0.1105 -0.3547 -0.0446
   6123SM  H12A 7755   3.325   4.598  16.297 -1.7615 -2.2514 -2.4781
   6123SM  H12B 7756   3.345   4.614  16.135 -3.9388 -0.8142  2.1077
   6123SM   C11 7757   3.428   4.783  16.259 -1.1355  0.5084 -0.0105
   6123SM  H11A 7758   3.486   4.790  16.354 -2.7204 -2.0202  1.2411
   6123SM  H11B 7759   3.330   4.828  16.282 -2.1071 -2.1368  1.5008
   6123SM     P 7760   3.410   4.900  16.026 -0.0523 -0.0249  0.1135
   6123SM   O13 7761   3.333   5.008  16.089 -0.6201  0.5827 -0.4766
   6123SM   O14 7762   3.493   4.925  15.909 -0.1980 -0.1215 -0.2047
   6123SM   O11 7763   3.312   4.780  16.010  0.0541 -0.5161 -0.8066
   6123SM   O12 7764   3.499   4.836  16.143  0.3371 -0.3577  0.0692
   6123SM   C1S 7765   3.206   4.803  15.911 -0.7040 -0.3356 -0.3172
   6123SM   H1S 7766   3.187   4.909  15.887  0.1923 -0.0099  0.3348
   6123SM   H1T 7767   3.110   4.760  15.946 -0.0385 -1.0245  0.6962
   6123SM    NF 7768   3.130   4.791  15.677  0.3752 -0.5155 -0.2628
   6123SM   HNF 7769   3.061   4.728  15.644 -0.2957 -0.4095  0.8869
   6123SM   C2S 7770   3.234   4.746  15.766 -0.0270  0.2149  0.2684
   6123SM   H2S 7771   3.333   4.780  15.728 -0.0011 -0.8585 -0.7154
   6123SM   C3S 7772   3.242   4.588  15.777 -0.0684  0.2122 -0.2825
   6123SM   H3S 7773   3.138   4.558  15.800 -0.5146  1.0006 -1.1812
   6123SM    O3 7774   3.319   4.539  15.887 -0.6632 -0.5589 -0.2311
   6123SM   HO3 7775   3.318   4.617  15.943  0.1365 -0.0228 -0.9434
   6123SM   C4S 7776   3.272   4.528  15.647  0.5014 -0.3205  0.1360
   6123SM   H4S 7777   3.184   4.476  15.606  0.4773 -2.8620  3.0090
   6123SM   C5S 7778   3.390   4.506  15.595  0.0025 -0.3837  0.0216
   6123SM   H5S 7779   3.485   4.535  15.642  1.2738 -1.3997 -1.7739
   6123SM   C6S 7780   3.423   4.423  15.468  0.0279  0.0916 -0.1625
   6123SM   H6S 7781   3.495   4.343  15.494 -0.5066 -0.7491 -1.1849
   6123SM   H6T 7782   3.489   4.484  15.402  2.1895  2.9502  4.1614
   6123SM   C7S 7783   3.311   4.363  15.381  0.1818  0.3699 -0.4334
   6123SM   H7S 7784   3.234   4.435  15.346  0.9808  0.3052 -2.4690
   6123SM   H7T 7785   3.248   4.296  15.444 -0.0096 -1.3621 -2.3590
   6123SM   C8S 7786   3.372   4.295  15.258  0.4928 -0.1695  0.6658
   6123SM   H8S 7787   3.442   4.218  15.296  0.5407  0.4821  1.9948
   6123SM   H8T 7788   3.425   4.372  15.197  1.6966 -1.2490  0.3027
   6123SM   C9S 7789   3.263   4.221  15.168 -0.0374  0.4066 -0.2706
   6123SM   H9S 7790   3.195   4.303  15.135  0.9805  1.0539 -0.7942
   6123SM   H9T 7791   3.201   4.152  15.229 -0.7722  0.0074 -1.4330
   6123SM  C10S 7792   3.334   4.158  15.044  0.7452 -0.5275 -0.4006
   6123SM  H10S 7793   3.391   4.072  15.085  0.3366 -0.0639  1.2220
   6123SM  H10T 7794   3.401   4.240  15.010  0.8603 -0.7618 -0.7438
   6123SM  C11S 7795   3.244   4.106  14.935 -0.0711  0.4290 -0.2596
   6123SM  H11S 7796   3.165   4.178  14.903 -0.2951 -0.4028 -1.6546
   6123SM  H11T 7797   3.181   4.028  14.981  0.1735 -0.9880 -2.1888
   6123SM  C12S 7798   3.316   4.061  14.815 -0.1424  0.1027 -0.0148
   6123SM  H12S 7799   3.403   3.999  14.845 -1.0582 -1.2704 -0.1090
   6123SM  H12T 7800   3.364   4.148  14.765 -2.3657  1.9051  0.8499
   6123SM  C13S 7801   3.232   3.970  14.719  0.4159  0.0864  0.0451
   6123SM  H13S 7802   3.133   4.016  14.700 -1.5405 -3.4037  0.9599
   6123SM  H13T 7803   3.213   3.875  14.773  0.3668  0.7266  1.1813
   6123SM  C14S 7804   3.307   3.947  14.581 -0.0857  0.6747 -0.2118
   6123SM  H14S 7805   3.333   4.040  14.526 -2.0758  0.9984 -0.6679
   6123SM  H14T 7806   3.243   3.884  14.516  1.2039 -0.8372 -0.0773
   6123SM  C15S 7807   3.444   3.872  14.603 -0.1478 -0.1642  0.1194
   6123SM  H15S 7808   3.421   3.776  14.654 -0.8118  0.7659  1.6492
   6123SM  H15T 7809   3.506   3.927  14.677 -1.2729 -0.5856  1.4170
   6123SM  C16S 7810   3.519   3.859  14.470 -0.1742  0.6211 -1.2575
   6123SM  H16S 7811   3.533   3.956  14.417 -0.9447  0.5421 -1.6156
   6123SM  H16T 7812   3.469   3.789  14.401  0.4057 -0.2320 -0.8259
   6123SM  C17S 7813   3.661   3.805  14.492  0.0323 -0.1502 -0.1649
   6123SM  H17S 7814   3.667   3.748  14.588 -2.0731  1.4255  0.9903
   6123SM  H17T 7815   3.733   3.888  14.506 -0.2391 -0.1024  1.1317
   6123SM  C18S 7816   3.704   3.715  14.375  0.2187 -0.3998 -0.5628
   6123SM  H18S 7817   3.671   3.762  14.280  2.9792  0.8873 -0.9957
   6123SM  H18T 7818   3.658   3.615  14.386  1.0198 -0.7522 -0.4099
   6123SM  H18U 7819   3.814   3.702  14.380  0.1610 -0.8815 -0.5572
   6123SM   C1F 7820   3.117   4.918  15.638 -0.0875  1.1307  0.1057
   6123SM    OF 7821   3.205   5.000  15.669  0.2160  0.4477  0.3238
   6123SM   C2F 7822   3.010   4.948  15.546 -0.0753 -0.5953 -0.4871
   6123SM   H2F 7823   2.955   5.039  15.580  0.7547  0.6597 -2.3561
   6123SM   H2G 7824   2.928   4.874  15.555 -1.4647  1.0710  1.3469
   6123SM   C3F 7825   3.048   4.964  15.394 -0.4514  0.4806 -0.4045
   6123SM   H3F 7826   3.134   5.035  15.386 -0.1133 -0.0691 -1.9714
   6123SM   H3G 7827   2.965   4.993  15.327  1.3784  1.7564 -2.2698
   6123SM   C4F 7828   3.103   4.831  15.337  0.2731  0.2323 -0.3395
   6123SM   H4F 7829   3.010   4.769  15.342 -0.6978  1.6399 -0.1778
   6123SM   H4G 7830   3.179   4.791  15.407 -1.3214 -1.2710  0.6036
   6123SM   C5F 7831   3.154   4.837  15.194 -0.6950 -0.0588  0.0910
   6123SM   H5F 7832   3.164   4.728  15.176 -1.4054 -0.3689  1.4186
   6123SM   H5G 7833   3.253   4.887  15.189 -0.1691 -1.1868 -1.4750
   6123SM   C6F 7834   3.067   4.908  15.089 -0.0972 -0.1566  0.0171
   6123SM   H6F 7835   3.061   5.017  15.113 -2.1612 -0.3496  0.5948
   6123SM   H6G 7836   2.962   4.871  15.097  0.6453 -2.2717  0.5992
   6123SM   C7F 7837   3.111   4.879  14.947  0.4709 -0.0765  0.1428
   6123SM   H7F 7838   3.091   4.772  14.928  1.3680 -0.5025  1.4748
   6123SM   H7G 7839   3.219   4.905  14.941 -0.0700  2.9112  1.3007
   6123SM   C8F 7840   3.032   4.962  14.838  0.6843 -0.2468 -1.1680
   6123SM   H8F 7841   3.057   5.070  14.836 -0.7586  0.3243  2.6219
   6123SM   H8G 7842   2.924   4.948  14.860  0.8954 -0.8848 -0.4685
   6123SM   C9F 7843   3.061   4.899  14.693 -0.0842 -0.2076 -0.3062
   6123SM   H9F 7844   3.001   4.960  14.622 -0.0109  0.0021 -0.1908
   6123SM   H9G 7845   3.030   4.793  14.686  0.4509 -0.4595  0.9169
   6123SM  C10F 7846   3.197   4.917  14.627  0.2560 -0.2155  0.2218
   6123SM  H10F 7847   3.213   4.843  14.546  1.3727  0.3221 -0.0697
   6123SM  H10G 7848   3.282   4.902  14.697  2.1768  2.5257 -1.3331
   6123SM  C11F 7849   3.229   5.062  14.581  0.0273 -0.1302 -0.5230
   6123SM  H11F 7850   3.219   5.127  14.670  0.3445 -1.6900  0.7115
   6123SM  H11G 7851   3.161   5.091  14.498  1.1047  2.5034 -0.5583
   6123SM  C12F 7852   3.375   5.086  14.535 -0.2215 -0.5976  0.7257
   6123SM  H12F 7853   3.392   5.016  14.450 -2.5985 -0.4800  0.0761
   6123SM  H12G 7854   3.452   5.066  14.613 -0.2245 -1.5271  0.5043
   6123SM  C13F 7855   3.384   5.224  14.466  0.1882  0.6827 -0.1340
   6123SM  H13F 7856   3.345   5.309  14.526 -0.9436  0.7202 -0.8838
   6123SM  H13G 7857   3.313   5.219  14.381 -0.6269  0.0646  0.5632
   6123SM  C14F 7858   3.519   5.243  14.399  0.3139 -0.7635  0.3706
   6123SM  H14F 7859   3.606   5.258  14.466  0.3481  0.5394  0.0666
   6123SM  H14G 7860   3.505   5.342  14.350  2.2218  0.7107  2.5977
   6123SM  C15F 7861   3.554   5.152  14.283 -0.0255  0.7803  0.0449
   6123SM  H15F 7862   3.472   5.142  14.208 -1.4595  2.1092  1.3695
   6123SM  H15G 7863   3.578   5.049  14.316  1.3317  1.0000 -0.2252
   6123SM  C16F 7864   3.693   5.182  14.219  0.1154  0.4818  0.2702
   6123SM  H16F 7865   3.733   5.081  14.199 -0.3347 -0.1304  2.2321
   6123SM  H16G 7866   3.762   5.233  14.289 -0.0953 -1.0862  1.6977
   6123SM  C17F 7867   3.680   5.254  14.083 -0.3497  0.5062  0.1760
   6123SM  H17F 7868   3.661   5.363  14.092  1.1739  0.7294  1.0826
   6123SM  H17G 7869   3.597   5.209  14.024 -1.5323  2.6847  0.0650
   6123SM  C18F 7870   3.807   5.225  13.998  0.5877  0.0678  0.6251
   6123SM  H18F 7871   3.840   5.120  13.978  2.5389  0.6680  0.4595
   6123SM  H18G 7872   3.888   5.272  14.058  1.2443  2.2155 -1.7450
   6123SM  C19F 7873   3.799   5.290  13.857 -0.0780 -0.2712 -0.2324
   6123SM  H19F 7874   3.901   5.281  13.812 -0.4237 -2.6444 -0.6526
   6123SM  H19G 7875   3.778   5.399  13.868 -1.6684 -0.4693 -1.1108
   6123SM  C20F 7876   3.693   5.240  13.760 -0.1008  0.5767 -0.4913
   6123SM  H20F 7877   3.686   5.301  13.667  2.1059  2.4451  0.4612
   6123SM  H20G 7878   3.592   5.237  13.804 -0.1715  0.0963 -0.6822
   6123SM  C21F 7879   3.716   5.093  13.721  0.1560  0.6923  0.1319
   6123SM  H21F 7880   3.700   5.028  13.809  2.3493  0.6324  0.5401
   6123SM  H21G 7881   3.817   5.073  13.681 -0.4484 -1.3937 -0.4853
   6123SM  C22F 7882   3.623   5.033  13.611 -0.1203  0.1784  0.5900
   6123SM  H22F 7883   3.518   5.069  13.625 -0.2678 -0.1598  0.3686
   6123SM  H22G 7884   3.630   4.922  13.621  0.1827  0.1113 -0.2960
   6123SM  C23F 7885   3.668   5.067  13.470 -0.1732 -0.5515  1.1917
   6123SM  H23F 7886   3.662   5.176  13.450 -0.2481 -0.7850 -0.1428
   6123SM  H23G 7887   3.601   5.010  13.401 -0.9749  0.6574  0.9398
   6123SM  H23H 7888   3.771   5.029  13.455  0.3829  1.6125 -1.1530
   6223SM     N 7889   2.972   3.822  16.470 -0.2944  0.4352 -0.4577
   6223SM   C15 7890   2.962   3.965  16.509 -0.7957  0.0046  0.0375
   6223SM  H15A 7891   2.862   4.004  16.522 -0.7877 -0.5973  2.4945
   6223SM  H15B 7892   3.005   4.024  16.430 -3.9887  1.5956 -0.6946
   6223SM  H15C 7893   3.009   3.971  16.606  0.2177 -2.8770 -0.1816
   6223SM   C14 7894   3.118   3.776  16.470 -0.3510  0.0171  0.1046
   6223SM  H14A 7895   3.172   3.829  16.393 -2.0811  0.3135 -0.9537
   6223SM  H14B 7896   3.135   3.673  16.443  0.2036  0.3183 -0.7611
   6223SM  H14C 7897   3.160   3.795  16.568 -2.1379  0.3990  0.8291
   6223SM   C13 7898   2.906   3.736  16.573  0.2732  0.2413  0.2699
   6223SM  H13A 7899   2.961   3.734  16.666 -0.7730 -0.0647  0.9012
   6223SM  H13B 7900   2.872   3.640  16.536  2.9354 -0.6243 -0.1586
   6223SM  H13C 7901   2.816   3.792  16.592  0.2995  0.5712 -0.5232
   6223SM   C12 7902   2.898   3.789  16.343  0.8031 -0.5284  0.0386
   6223SM  H12A 7903   2.793   3.799  16.366  0.8759  0.6371 -0.1053
   6223SM  H12B 7904   2.915   3.686  16.315  4.0225  0.2202 -1.1665
   6223SM   C11 7905   2.917   3.889  16.221  0.0213 -0.5603  0.1819
   6223SM  H11A 7906   2.877   3.991  16.238 -0.4689 -0.4300 -1.5443
   6223SM  H11B 7907   2.855   3.848  16.139  1.4694 -0.0777 -1.2165
   6223SM     P 7908   3.135   3.789  16.116 -0.2246 -0.0034  0.1979
   6223SM   O13 7909   3.250   3.753  16.205  0.3075 -0.1758  0.2307
   6223SM   O14 7910   3.045   3.681  16.065  0.1254 -0.7436  0.3046
   6223SM   O11 7911   3.191   3.869  15.986  0.6418 -0.0194 -0.2996
   6223SM   O12 7912   3.053   3.902  16.180  0.1638 -0.8552 -0.9973
   6223SM   C1S 7913   3.100   3.943  15.906 -0.0285 -0.2857  0.0837
   6223SM   H1S 7914   3.099   4.048  15.944  0.9841  0.3499 -1.5195
   6223SM   H1T 7915   2.999   3.899  15.916 -0.4521  0.5919 -0.1695
   6223SM    NF 7916   3.018   4.014  15.695  0.2438  0.2104  0.9817
   6223SM   HNF 7917   2.948   3.949  15.668  0.8906 -0.7519  1.5424
   6223SM   C2S 7918   3.131   3.952  15.755 -0.9895  0.3495  0.8402
   6223SM   H2S 7919   3.215   4.023  15.740 -2.2940  1.9061  0.6949
   6223SM   C3S 7920   3.170   3.816  15.701  0.4326  0.3203 -0.0262
   6223SM   H3S 7921   3.091   3.741  15.723 -2.1076  2.5015 -1.1321
   6223SM    O3 7922   3.286   3.755  15.757 -0.0364 -0.7894 -0.2439
   6223SM   HO3 7923   3.291   3.787  15.847  2.4508 -2.1669  0.2177
   6223SM   C4S 7924   3.183   3.822  15.548  0.1780 -0.0297  0.8154
   6223SM   H4S 7925   3.097   3.785  15.490 -0.3074  0.9551  0.8989
   6223SM   C5S 7926   3.295   3.862  15.484 -0.5303  0.1172 -0.3934
   6223SM   H5S 7927   3.380   3.898  15.543 -1.9713  2.1050  0.5871
   6223SM   C6S 7928   3.310   3.866  15.334  0.2103 -0.0218  0.1404
   6223SM   H6S 7929   3.416   3.889  15.308  0.4929 -0.7378  0.6236
   6223SM   H6T 7930   3.243   3.947  15.297  1.5069 -0.5702 -4.0054
   6223SM   C7S 7931   3.269   3.739  15.257  0.0343  0.1083  0.8136
   6223SM   H7S 7932   3.161   3.716  15.265 -0.1586 -1.4685 -3.7360
   6223SM   H7T 7933   3.312   3.645  15.298 -0.2165 -0.0751  0.6599
   6223SM   C8S 7934   3.303   3.745  15.108  0.0923 -0.1098 -0.5363
   6223SM   H8S 7935   3.391   3.811  15.095 -0.3110  0.2036 -1.7759
   6223SM   H8T 7936   3.219   3.802  15.062  0.3513  0.5608 -0.1860
   6223SM   C9S 7937   3.336   3.610  15.036 -0.4740 -0.8643 -0.1597
   6223SM   H9S 7938   3.244   3.550  15.027 -1.1674  0.3855 -2.1022
   6223SM   H9T 7939   3.411   3.558  15.100 -0.4192  0.9407  1.3461
   6223SM  C10S 7940   3.402   3.626  14.902  0.0368  0.0284 -0.2500
   6223SM  H10S 7941   3.506   3.664  14.914  0.0826  0.7089 -2.3784
   6223SM  H10T 7942   3.336   3.695  14.845 -0.8573  0.6499  1.4363
   6223SM  C11S 7943   3.407   3.493  14.819 -0.3902 -0.1965 -0.3777
   6223SM  H11S 7944   3.304   3.467  14.787 -0.7697  1.3866 -0.5636
   6223SM  H11T 7945   3.447   3.437  14.906  2.6117  1.7984 -0.3089
   6223SM  C12S 7946   3.500   3.491  14.690  0.2848 -0.0274  0.3961
   6223SM  H12S 7947   3.596   3.541  14.716  2.0189 -2.0701 -1.6761
   6223SM  H12T 7948   3.448   3.549  14.610  2.5012  0.2675 -0.9008
   6223SM  C13S 7949   3.530   3.346  14.646 -0.2426  0.1617 -0.6472
   6223SM  H13S 7950   3.440   3.283  14.633  1.2965 -2.3885  0.2707
   6223SM  H13T 7951   3.584   3.301  14.732 -1.7601 -1.4449 -0.4686
   6223SM  C14S 7952   3.608   3.357  14.512  0.9401 -0.4096  0.0620
   6223SM  H14S 7953   3.695   3.422  14.534 -0.4894  1.7425 -0.2502
   6223SM  H14T 7954   3.554   3.410  14.430 -0.6454  0.3344  1.5025
   6223SM  C15S 7955   3.653   3.223  14.454  0.2170  0.1468 -1.2749
   6223SM  H15S 7956   3.706   3.249  14.360 -0.2450 -0.1829 -1.6312
   6223SM  H15T 7957   3.566   3.159  14.429  0.8802 -0.7837 -1.2427
   6223SM  C16S 7958   3.755   3.152  14.545  0.5022  0.2777  0.0294
   6223SM  H16S 7959   3.706   3.111  14.636 -0.1376 -2.5452 -1.4745
   6223SM  H16T 7960   3.824   3.231  14.584 -0.9801  0.8221  1.6871
   6223SM  C17S 7961   3.834   3.035  14.483 -0.6352 -0.6114 -0.5324
   6223SM  H17S 7962   3.884   3.055  14.385  0.3069 -0.4672 -0.0329
   6223SM  H17T 7963   3.762   2.955  14.456  0.3771 -2.2281  1.3326
   6223SM  C18S 7964   3.942   2.967  14.568  0.1388  0.0548 -0.3267
   6223SM  H18S 7965   3.967   2.873  14.516  1.8104 -0.8282  1.9187
   6223SM  H18T 7966   3.912   2.945  14.673  1.8362 -2.4657 -0.2997
   6223SM  H18U 7967   4.034   3.029  14.568  0.5931 -0.6229 -0.4840
   6223SM   C1F 7968   2.987   4.144  15.702 -0.3304 -0.0120 -0.0762
   6223SM    OF 7969   3.059   4.222  15.763 -0.3631  0.0244  0.3519
   6223SM   C2F 7970   2.866   4.200  15.641 -0.6104 -1.1188 -0.6465
   6223SM   H2F 7971   2.824   4.275  15.711  0.7221 -1.3115  0.3905
   6223SM   H2G 7972   2.795   4.116  15.621 -2.8445  0.9527 -2.0127
   6223SM   C3F 7973   2.897   4.277  15.514  0.8110 -0.6430 -0.4196
   6223SM   H3F 7974   2.954   4.211  15.445  0.8999  0.1311 -1.1159
   6223SM   H3G 7975   2.969   4.354  15.550  1.4408 -1.0839 -0.7162
   6223SM   C4F 7976   2.773   4.335  15.452 -0.0858 -0.3466  0.0320
   6223SM   H4F 7977   2.725   4.383  15.540  0.1428 -2.9118  1.6816
   6223SM   H4G 7978   2.703   4.252  15.425 -0.8672  0.2186  0.2900
   6223SM   C5F 7979   2.787   4.431  15.332  0.1330  0.7868  0.3595
   6223SM   H5F 7980   2.878   4.494  15.343  0.1771  0.3987  2.6947
   6223SM   H5G 7981   2.696   4.495  15.323  1.6536  3.0969  0.4006
   6223SM   C6F 7982   2.804   4.351  15.195 -0.1599  0.3842 -0.3707
   6223SM   H6F 7983   2.706   4.307  15.168 -1.4366  2.7652  0.1147
   6223SM   H6G 7984   2.885   4.275  15.192 -0.9666 -0.5295  0.4423
   6223SM   C7F 7985   2.830   4.456  15.082 -0.2545  0.5106  0.7544
   6223SM   H7F 7986   2.921   4.510  15.115  1.4859 -1.4741 -0.5489
   6223SM   H7G 7987   2.758   4.541  15.073 -2.1884 -0.9839  1.4953
   6223SM   C8F 7988   2.854   4.378  14.949  0.2204  0.0782 -0.5835
   6223SM   H8F 7989   2.761   4.321  14.926 -0.0005 -0.3104  1.1094
   6223SM   H8G 7990   2.939   4.311  14.975 -0.5381 -0.5518  0.3295
   6223SM   C9F 7991   2.879   4.473  14.838  0.7883  0.3367  0.1208
   6223SM   H9F 7992   2.988   4.489  14.845  1.2479 -2.2374 -0.1213
   6223SM   H9G 7993   2.820   4.566  14.853  0.4671  0.3310 -1.0253
   6223SM  C10F 7994   2.856   4.422  14.697  1.0469  0.1719  0.2295
   6223SM  H10F 7995   2.877   4.504  14.625  1.0150 -0.2484 -0.2560
   6223SM  H10G 7996   2.751   4.395  14.675  0.5545  1.8329  0.3908
   6223SM  C11F 7997   2.950   4.306  14.650  0.9828 -0.1491  0.4408
   6223SM  H11F 7998   2.944   4.224  14.724 -2.0686  0.1240  0.6121
   6223SM  H11G 7999   3.054   4.343  14.658  1.5463 -1.6563  0.3738
   6223SM  C12F 8000   2.911   4.246  14.515 -0.1620 -0.3413 -0.3727
   6223SM  H12F 8001   2.936   4.323  14.439  0.0147  0.2241  0.2434
   6223SM  H12G 8002   2.801   4.232  14.511 -0.0738 -0.7006 -2.3445
   6223SM  C13F 8003   2.977   4.114  14.483  0.4087  0.0933  0.4504
   6223SM  H13F 8004   2.957   4.031  14.554  2.0970 -0.0964  0.7344
   6223SM  H13G 8005   3.087   4.129  14.482  0.0302  3.4752 -0.6538
   6223SM  C14F 8006   2.930   4.058  14.350  0.2724  0.0459  0.3573
   6223SM  H14F 8007   2.957   4.129  14.269  2.1315 -1.1348 -0.1136
   6223SM  H14G 8008   2.821   4.037  14.352  0.4415 -0.9271 -0.0858
   6223SM  C15F 8009   3.003   3.927  14.314  0.4243 -0.1060  0.5023
   6223SM  H15F 8010   2.966   3.860  14.394  1.1829 -1.6000 -0.3544
   6223SM  H15G 8011   3.112   3.952  14.320  0.9173 -2.1030  0.4056
   6223SM  C16F 8012   2.972   3.857  14.175 -0.1508 -0.8937 -0.0618
   6223SM  H16F 8013   3.004   3.922  14.091  1.3764 -2.9479 -1.1598
   6223SM  H16G 8014   2.865   3.825  14.174 -1.4587  2.9903 -0.1689
   6223SM  C17F 8015   3.045   3.727  14.162 -0.1142 -0.5355  0.5225
   6223SM  H17F 8016   3.023   3.651  14.240  1.1920 -1.1099  0.3546
   6223SM  H17G 8017   3.154   3.746  14.168  0.5071 -2.5823 -2.1676
   6223SM  C18F 8018   3.030   3.666  14.024 -0.4923  0.1185 -0.3805
   6223SM  H18F 8019   2.930   3.620  14.015 -1.2527  0.6075  3.5157
   6223SM  H18G 8020   3.115   3.594  14.018 -1.5540 -1.0342 -2.0872
   6223SM  C19F 8021   3.057   3.761  13.907  0.3325  0.5086  0.0599
   6223SM  H19F 8022   3.143   3.829  13.918 -0.2764  1.8076 -2.4938
   6223SM  H19G 8023   2.973   3.830  13.882 -0.1495 -0.7991 -2.2502
   6223SM  C20F 8024   3.062   3.680  13.777  0.7160  0.7873  0.5471
   6223SM  H20F 8025   2.960   3.639  13.765  1.2145 -0.8603  1.6767
   6223SM  H20G 8026   3.130   3.594  13.792 -1.5769 -0.9245  1.7273
   6223SM  C21F 8027   3.087   3.765  13.656  0.0764 -0.4055  0.5534
   6223SM  H21F 8028   3.162   3.840  13.687 -0.6542  0.2375  0.8067
   6223SM  H21G 8029   2.994   3.818  13.624  0.6851  0.8137  0.7324
   6223SM  C22F 8030   3.140   3.686  13.541 -0.7416 -0.9694 -0.4428
   6223SM  H22F 8031   3.244   3.650  13.560 -0.9508 -2.2958 -1.6263
   6223SM  H22G 8032   3.145   3.759  13.457 -0.8326  0.0700  0.4315
   6223SM  C23F 8033   3.048   3.574  13.502 -0.6709 -0.6621 -0.6870
   6223SM  H23F 8034   2.939   3.597  13.504 -0.6674 -0.7116  0.4494
   6223SM  H23G 8035   3.065   3.483  13.564 -0.5601 -0.6353 -0.6791
   6223SM  H23H 8036   3.066   3.548  13.395 -1.0738 -0.1050 -0.8970
   6323SM     N 8037   3.146   5.861  15.806  0.1460  0.3437 -0.5129
   6323SM   C15 8038   3.000   5.841  15.831 -0.4532 -0.4877  0.1690
   6323SM  H15A 8039   2.985   5.825  15.937 -0.9633 -1.3100 -0.0190
   6323SM  H15B 8040   2.957   5.752  15.788  2.2552 -2.2151  0.7813
   6323SM  H15C 8041   2.952   5.934  15.804  0.4104 -0.2971 -0.7512
   6323SM   C14 8042   3.220   5.741  15.870  0.1553  0.4713  0.3950
   6323SM  H14A 8043   3.225   5.754  15.977 -0.2194  3.7922  0.1163
   6323SM  H14B 8044   3.323   5.749  15.840 -0.1415 -1.1024 -1.1870
   6323SM  H14C 8045   3.184   5.643  15.842 -1.6693  1.7809 -2.2511
   6323SM   C13 8046   3.169   5.851  15.660  0.1510 -0.3633 -0.0598
   6323SM  H13A 8047   3.272   5.854  15.629  0.4452  0.6330  0.9400
   6323SM  H13B 8048   3.127   5.946  15.629  0.1658  1.0076  3.6061
   6323SM  H13C 8049   3.117   5.771  15.610  0.9972 -0.3235 -1.0458
   6323SM   C12 8050   3.204   5.991  15.850 -0.5546 -0.1184  0.3864
   6323SM  H12A 8051   3.308   6.004  15.823 -1.2777  4.4371 -0.9940
   6323SM  H12B 8052   3.217   5.977  15.957 -0.1123  1.1878  0.5110
   6323SM   C11 8053   3.134   6.122  15.821 -0.4323 -0.0480  0.4885
   6323SM  H11A 8054   3.026   6.126  15.848 -0.8197 -3.4294 -0.1828
   6323SM  H11B 8055   3.140   6.138  15.711 -1.8019  1.1475  0.5488
   6323SM     P 8056   3.333   6.301  15.811  0.0862  0.2757  0.0327
   6323SM   O13 8057   3.329   6.448  15.857  0.1628 -0.1950 -0.4367
   6323SM   O14 8058   3.452   6.218  15.832 -0.1724  0.1068 -0.2089
   6323SM   O11 8059   3.293   6.295  15.658 -0.2603 -0.3559  0.6659
   6323SM   O12 8060   3.209   6.224  15.885  0.0142 -0.4233  0.1608
   6323SM   C1S 8061   3.358   6.383  15.563  0.5735  0.5064 -0.0919
   6323SM   H1S 8062   3.443   6.444  15.600  0.0522  0.3636  1.4114
   6323SM   H1T 8063   3.288   6.455  15.516  0.3385  1.3464  1.4746
   6323SM    NF 8064   3.501   6.354  15.354  0.0182  0.5057 -0.4344
   6323SM   HNF 8065   3.462   6.399  15.273 -2.1679  1.5904  1.1240
   6323SM   C2S 8066   3.405   6.296  15.443 -0.3481 -0.2557 -0.1791
   6323SM   H2S 8067   3.455   6.207  15.488 -2.7323 -0.6304  1.9766
   6323SM   C3S 8068   3.287   6.232  15.363 -0.9575  0.1181  0.2850
   6323SM   H3S 8069   3.225   6.314  15.320 -0.5694  0.0662 -0.3791
   6323SM    O3 8070   3.195   6.166  15.446 -0.0625  0.0595 -0.1080
   6323SM   HO3 8071   3.212   6.207  15.532  0.5597  1.3623 -0.8310
   6323SM   C4S 8072   3.344   6.148  15.247  1.1929  0.2887 -0.0623
   6323SM   H4S 8073   3.440   6.100  15.271  0.3041 -0.7281  1.6548
   6323SM   C5S 8074   3.289   6.148  15.122  0.0960  0.1001  0.4083
   6323SM   H5S 8075   3.195   6.204  15.111 -1.3409 -1.8826  1.9435
   6323SM   C6S 8076   3.344   6.085  14.999 -0.4019  0.1893  0.4486
   6323SM   H6S 8077   3.323   6.151  14.912 -1.7262 -2.0216 -1.0170
   6323SM   H6T 8078   3.287   5.993  14.971  0.1471  0.5588 -2.1946
   6323SM   C7S 8079   3.496   6.043  14.995  0.6417 -0.0182  0.3755
   6323SM   H7S 8080   3.511   5.967  15.074 -0.1954  1.5013  2.0903
   6323SM   H7T 8081   3.548   6.138  15.023 -0.7205  0.2442  2.2862
   6323SM   C8S 8082   3.541   5.980  14.860 -0.8709 -0.2308  0.3460
   6323SM   H8S 8083   3.566   6.056  14.783  0.5481 -1.4419 -0.4442
   6323SM   H8T 8084   3.460   5.914  14.822 -0.7488  0.5518 -1.3466
   6323SM   C9S 8085   3.657   5.881  14.881 -0.0128  0.3630  1.0396
   6323SM   H9S 8086   3.615   5.807  14.952 -0.9122 -2.2618 -2.0114
   6323SM   H9T 8087   3.733   5.934  14.941  0.2449 -0.4650  1.4631
   6323SM  C10S 8088   3.725   5.815  14.762 -0.2366  0.1177 -0.0174
   6323SM  H10S 8089   3.763   5.901  14.702 -1.2398 -0.5141 -1.6428
   6323SM  H10T 8090   3.650   5.766  14.696 -0.5065 -0.6261  0.8289
   6323SM  C11S 8091   3.841   5.723  14.797  0.5179 -0.1728 -0.3012
   6323SM  H11S 8092   3.891   5.694  14.702 -2.4174 -0.9503 -1.7119
   6323SM  H11T 8093   3.818   5.625  14.844  1.9485 -1.0554 -1.3660
   6323SM  C12S 8094   3.960   5.790  14.880 -0.3111  0.1383  0.4940
   6323SM  H12S 8095   3.916   5.807  14.981 -2.4232 -2.8373  0.1871
   6323SM  H12T 8096   3.987   5.882  14.824 -0.5993  1.3493  2.2418
   6323SM  C13S 8097   4.084   5.697  14.884  0.1024 -0.1301 -0.2603
   6323SM  H13S 8098   4.116   5.663  14.783  0.5310 -0.6479  0.0466
   6323SM  H13T 8099   4.049   5.610  14.944 -1.1537 -1.0459 -2.1898
   6323SM  C14S 8100   4.207   5.768  14.948  0.0436  0.5418  0.0764
   6323SM  H14S 8101   4.190   5.808  15.050  1.1088 -1.8242  1.2578
   6323SM  H14T 8102   4.243   5.843  14.874 -0.4846 -1.2448 -2.1298
   6323SM  C15S 8103   4.321   5.661  14.966  0.6925 -0.3305  0.5937
   6323SM  H15S 8104   4.290   5.572  15.024 -0.8428 -0.0789  0.1992
   6323SM  H15T 8105   4.403   5.709  15.024  1.2113 -1.2420  0.6291
   6323SM  C16S 8106   4.382   5.617  14.828 -0.5400 -0.3927 -0.5491
   6323SM  H16S 8107   4.401   5.706  14.764  0.1649 -2.1086 -2.8639
   6323SM  H16T 8108   4.315   5.546  14.776 -1.9643  1.7821 -1.8177
   6323SM  C17S 8109   4.523   5.548  14.849  0.0615  0.4898  0.0841
   6323SM  H17S 8110   4.491   5.460  14.909 -3.0374  0.2778 -1.6640
   6323SM  H17T 8111   4.592   5.610  14.910  0.4169 -0.3145  0.5219
   6323SM  C18S 8112   4.575   5.498  14.713 -1.0618  0.5876  0.0808
   6323SM  H18S 8113   4.572   5.574  14.632 -0.0164  2.2197  1.4991
   6323SM  H18T 8114   4.498   5.426  14.678 -0.5431 -0.2220  0.5748
   6323SM  H18U 8115   4.674   5.449  14.715 -0.9574  0.8002  0.1112
   6323SM   C1F 8116   3.627   6.384  15.388 -0.0558 -0.2676 -0.5979
   6323SM    OF 8117   3.682   6.320  15.480 -0.2555 -0.0898  0.8744
   6323SM   C2F 8118   3.701   6.498  15.319 -0.0618 -0.3989 -0.3500
   6323SM   H2F 8119   3.660   6.583  15.378 -0.7080 -2.1283  1.8824
   6323SM   H2G 8120   3.673   6.509  15.212  1.6718  1.0214 -0.6926
   6323SM   C3F 8121   3.858   6.499  15.340 -0.6348 -0.3270 -0.1282
   6323SM   H3F 8122   3.886   6.395  15.312  0.7247 -0.6266  2.1024
   6323SM   H3G 8123   3.884   6.514  15.447 -1.0422 -1.3244  0.1248
   6323SM   C4F 8124   3.950   6.577  15.243 -0.0758  0.7235 -0.1070
   6323SM   H4F 8125   3.884   6.596  15.156  0.8689  0.2728 -0.9393
   6323SM   H4G 8126   4.026   6.502  15.211 -0.6129  0.3993 -0.6543
   6323SM   C5F 8127   4.018   6.700  15.306  1.0171  0.0618 -0.1593
   6323SM   H5F 8128   4.087   6.671  15.388  2.3536  3.6437  0.1544
   6323SM   H5G 8129   3.938   6.755  15.362  0.7182 -0.0092 -0.5173
   6323SM   C6F 8130   4.093   6.780  15.199 -0.1365  0.6125 -0.1303
   6323SM   H6F 8131   4.027   6.790  15.110 -0.8540 -1.9874  0.0516
   6323SM   H6G 8132   4.178   6.722  15.156 -1.2202 -0.6036 -0.6770
   6323SM   C7F 8133   4.129   6.916  15.247  0.2508 -0.1077 -0.4326
   6323SM   H7F 8134   4.214   6.911  15.320 -1.0174 -1.1432  1.0341
   6323SM   H7G 8135   4.043   6.963  15.300 -0.6415 -0.5459 -1.4599
   6323SM   C8F 8136   4.178   7.002  15.130  0.6102  0.2902 -0.1704
   6323SM   H8F 8137   4.101   7.015  15.052 -1.8966 -1.5757  1.8376
   6323SM   H8G 8138   4.270   6.956  15.089  0.2225  0.7290 -1.5694
   6323SM   C9F 8139   4.218   7.143  15.173  0.3287  0.0821  0.3727
   6323SM   H9F 8140   4.298   7.133  15.250  0.7917 -2.1296 -0.3324
   6323SM   H9G 8141   4.131   7.195  15.219  1.2241  1.5173  0.5181
   6323SM  C10F 8142   4.284   7.233  15.066  0.4883 -0.6036 -0.7021
   6323SM  H10F 8143   4.218   7.218  14.978 -2.1814 -0.2382  1.1542
   6323SM  H10G 8144   4.385   7.194  15.038  0.3474 -0.1115 -1.9943
   6323SM  C11F 8145   4.281   7.379  15.103  0.3485 -0.4480 -0.4276
   6323SM  H11F 8146   4.302   7.391  15.211 -1.4699 -0.2227 -0.0636
   6323SM  H11G 8147   4.174   7.408  15.095  1.0292  1.7669 -2.8033
   6323SM  C12F 8148   4.355   7.471  15.005 -0.1201  0.5932 -0.0581
   6323SM  H12F 8149   4.330   7.574  15.041  1.0002  0.3445  1.5712
   6323SM  H12G 8150   4.327   7.462  14.898  0.8866 -0.7910 -0.2232
   6323SM  C13F 8151   4.511   7.465  15.018  0.1089 -0.1997  0.9209
   6323SM  H13F 8152   4.554   7.392  14.947  1.3083  0.7673  0.6220
   6323SM  H13G 8153   4.538   7.424  15.118  0.3886  0.4216  1.1034
   6323SM  C14F 8154   4.590   7.599  14.992 -0.1213 -0.0745 -0.3793
   6323SM  H14F 8155   4.694   7.575  14.961 -0.0751  1.9190 -1.9749
   6323SM  H14G 8156   4.623   7.650  15.084 -3.0652 -0.5363  1.0557
   6323SM  C15F 8157   4.530   7.697  14.893  0.4883 -0.1845  0.2892
   6323SM  H15F 8158   4.590   7.791  14.900  0.2803 -0.0069 -0.2184
   6323SM  H15G 8159   4.426   7.722  14.923  0.0706 -0.6692 -0.7042
   6323SM  C16F 8160   4.528   7.643  14.756  0.2249  0.4856 -0.2777
   6323SM  H16F 8161   4.458   7.557  14.755  1.3025 -0.4692 -2.7616
   6323SM  H16G 8162   4.632   7.607  14.737 -0.2457 -0.5155 -1.0623
   6323SM  C17F 8163   4.485   7.745  14.650 -0.3080  0.1879 -0.7961
   6323SM  H17F 8164   4.573   7.812  14.665  0.7235 -1.1454 -0.6943
   6323SM  H17G 8165   4.392   7.802  14.669  0.1185  0.2115  1.6060
   6323SM  C18F 8166   4.488   7.679  14.510 -0.9562  0.3467  0.5811
   6323SM  H18F 8167   4.466   7.762  14.439  0.8498 -0.7965 -1.4518
   6323SM  H18G 8168   4.403   7.609  14.492  0.3645 -0.9986 -0.7080
   6323SM  C19F 8169   4.614   7.606  14.462 -0.2095 -0.1519  0.4755
   6323SM  H19F 8170   4.654   7.526  14.528 -0.0108 -1.3770 -1.0493
   6323SM  H19G 8171   4.694   7.681  14.445 -1.6785  1.1446 -1.1259
   6323SM  C20F 8172   4.589   7.539  14.327 -0.1669 -0.0100 -0.6171
   6323SM  H20F 8173   4.677   7.570  14.265 -0.9271  0.8134 -1.3291
   6323SM  H20G 8174   4.493   7.565  14.278 -0.1491  0.4398 -0.4190
   6323SM  C21F 8175   4.599   7.390  14.349 -0.6009 -0.9057  0.4221
   6323SM  H21F 8176   4.518   7.364  14.421 -2.0208  0.5451 -0.5738
   6323SM  H21G 8177   4.697   7.357  14.389 -0.2882 -0.7425 -0.2115
   6323SM  C22F 8178   4.567   7.309  14.218 -0.0532 -0.4757 -0.4734
   6323SM  H22F 8179   4.468   7.348  14.187 -0.3677 -0.9655 -0.1011
   6323SM  H22G 8180   4.559   7.202  14.247 -1.7582 -0.2425  0.0004
   6323SM  C23F 8181   4.667   7.337  14.100  0.4128  0.2917 -0.4442
   6323SM  H23F 8182   4.649   7.439  14.060  1.3163  1.0015  0.8654
   6323SM  H23G 8183   4.640   7.259  14.026 -1.5922 -1.0939  1.6261
   6323SM  H23H 8184   4.772   7.338  14.136  0.1310  1.8696  0.4091
   6423SM     N 8185   5.360   4.888  16.620  0.6796 -0.2769 -0.0015
   6423SM   C15 8186   5.293   5.009  16.686 -0.0217  0.1276  0.4597
   6423SM  H15A 8187   5.340   5.051  16.774 -1.4180  0.3534  1.1455
   6423SM  H15B 8188   5.187   4.996  16.706 -0.7652  1.6718 -2.0601
   6423SM  H15C 8189   5.301   5.091  16.617 -0.7232  1.6311  2.0656
   6423SM   C14 8190   5.494   4.928  16.562  0.6526  0.0731 -0.1135
   6423SM  H14A 8191   5.540   4.850  16.503  0.0739 -0.8474  0.6075
   6423SM  H14B 8192   5.569   4.964  16.631  3.2265 -0.2569 -2.5757
   6423SM  H14C 8193   5.477   5.016  16.502  0.5836 -1.6725 -2.8302
   6423SM   C13 8194   5.376   4.788  16.723  0.6941 -0.2255  0.6951
   6423SM  H13A 8195   5.424   4.835  16.808  0.2746  0.8052  0.3787
   6423SM  H13B 8196   5.443   4.707  16.699 -1.7532 -2.0510 -0.4097
   6423SM  H13C 8197   5.283   4.747  16.762 -0.4992  1.0753 -0.6742
   6423SM   C12 8198   5.284   4.829  16.499 -0.4550 -0.4827 -0.1762
   6423SM  H12A 8199   5.203   4.765  16.529  0.4741 -1.0655  1.2011
   6423SM  H12B 8200   5.355   4.766  16.446 -0.6453 -2.5714  1.8986
   6423SM   C11 8201   5.219   4.924  16.407 -0.3968  0.7183 -0.1379
   6423SM  H11A 8202   5.194   4.874  16.311  1.6996 -0.5030 -0.1009
   6423SM  H11B 8203   5.287   5.010  16.390 -1.5759  1.6970 -0.0933
   6423SM     P 8204   4.969   4.894  16.457 -0.2956  0.1770 -0.3767
   6423SM   O13 8205   4.997   4.757  16.510 -0.0437  0.2174  0.6204
   6423SM   O14 8206   4.865   4.965  16.526  0.0142 -0.1842  0.4682
   6423SM   O11 8207   4.932   4.875  16.302  0.7344  0.0331  0.2653
   6423SM   O12 8208   5.102   4.972  16.467 -0.2233 -0.4090  0.5012
   6423SM   C1S 8209   4.927   4.986  16.209 -0.2211  0.3627 -0.8536
   6423SM   H1S 8210   5.027   5.025  16.182 -0.2724  0.6106 -0.6864
   6423SM   H1T 8211   4.870   5.070  16.255  2.1567  1.2639  0.5940
   6423SM    NF 8212   4.877   5.069  15.984  0.0641 -0.3608 -0.0764
   6423SM   HNF 8213   4.805   5.137  15.975  0.3509 -0.2775 -2.2112
   6423SM   C2S 8214   4.855   4.956  16.073 -0.2936  0.0881 -1.0264
   6423SM   H2S 8215   4.901   4.862  16.036  1.3690 -0.7283  2.6024
   6423SM   C3S 8216   4.703   4.930  16.103  0.3053 -0.7185 -0.3900
   6423SM   H3S 8217   4.657   5.020  16.147  0.1587 -2.0629  2.4334
   6423SM    O3 8218   4.677   4.843  16.215 -0.6803  0.1998  0.4845
   6423SM   HO3 8219   4.764   4.821  16.247 -0.7439 -0.6525  0.0799
   6423SM   C4S 8220   4.631   4.889  15.989 -0.6724  0.1145 -0.1093
   6423SM   H4S 8221   4.683   4.812  15.931 -1.7610 -0.1190 -0.8059
   6423SM   C5S 8222   4.528   4.944  15.933 -0.0011  0.0866  1.0265
   6423SM   H5S 8223   4.473   5.032  15.969  0.8678  0.8846  0.4548
   6423SM   C6S 8224   4.468   4.898  15.800  0.6778  0.0534 -0.5753
   6423SM   H6S 8225   4.496   4.957  15.710  1.0667 -0.4578 -0.7884
   6423SM   H6T 8226   4.360   4.923  15.803  1.0528  1.8103  0.6189
   6423SM   C7S 8227   4.483   4.748  15.764 -0.9061  0.3823  0.2973
   6423SM   H7S 8228   4.476   4.687  15.857  2.1742  1.4829  1.3721
   6423SM   H7T 8229   4.585   4.729  15.723 -1.0772  0.0643  0.0174
   6423SM   C8S 8230   4.380   4.693  15.662  0.0055  0.0270  0.1890
   6423SM   H8S 8231   4.287   4.687  15.722 -0.1034 -0.6677 -0.0372
   6423SM   H8T 8232   4.415   4.588  15.654  3.4774  0.6760  3.8676
   6423SM   C9S 8233   4.377   4.765  15.529  0.6517  0.1133  0.4829
   6423SM   H9S 8234   4.479   4.768  15.484 -0.1964 -0.5391 -1.6472
   6423SM   H9T 8235   4.335   4.867  15.543 -0.1857 -0.0873 -0.4101
   6423SM  C10S 8236   4.289   4.681  15.427 -0.0247  0.2302  0.5340
   6423SM  H10S 8237   4.183   4.699  15.453 -0.6273 -2.5203  0.2927
   6423SM  H10T 8238   4.318   4.574  15.434  0.0435  0.1455 -0.8198
   6423SM  C11S 8239   4.314   4.734  15.283 -0.0128  0.6671 -0.1305
   6423SM  H11S 8240   4.423   4.736  15.264  0.6398  0.9669  3.0424
   6423SM  H11T 8241   4.265   4.833  15.279  0.0219  0.6747 -0.3553
   6423SM  C12S 8242   4.259   4.645  15.164  0.6140 -0.1967  0.4436
   6423SM  H12S 8243   4.148   4.639  15.173  0.3000 -1.5012 -2.9770
   6423SM  H12T 8244   4.300   4.542  15.176  1.6973  0.3111  1.2816
   6423SM  C13S 8245   4.290   4.703  15.018  0.2049  1.0626 -0.0973
   6423SM  H13S 8246   4.400   4.701  15.004  0.4785 -3.4207  1.1007
   6423SM  H13T 8247   4.255   4.809  15.015 -1.3030  0.7439  2.7076
   6423SM  C14S 8248   4.244   4.602  14.912  0.1537 -0.3202 -0.7668
   6423SM  H14S 8249   4.134   4.586  14.913  0.3435 -1.8461 -1.3308
   6423SM  H14T 8250   4.287   4.501  14.931 -2.4103 -1.6179 -1.3537
   6423SM  C15S 8251   4.283   4.651  14.771  0.2571 -0.0359  0.2233
   6423SM  H15S 8252   4.394   4.658  14.769  0.1634  1.5939 -0.3241
   6423SM  H15T 8253   4.238   4.750  14.751 -0.9405 -0.7258 -0.6176
   6423SM  C16S 8254   4.223   4.557  14.655  0.3132 -0.0960  0.0051
   6423SM  H16S 8255   4.113   4.572  14.661  0.5962  1.8212  1.2914
   6423SM  H16T 8256   4.260   4.456  14.682  2.6196  0.8973  0.8486
   6423SM  C17S 8257   4.279   4.593  14.519  0.5734  0.2383 -0.8662
   6423SM  H17S 8258   4.388   4.572  14.520  0.7138  0.7721 -2.1133
   6423SM  H17T 8259   4.270   4.701  14.493 -1.8274 -0.0881 -1.5700
   6423SM  C18S 8260   4.215   4.523  14.398 -0.4888 -0.0280  0.0888
   6423SM  H18S 8261   4.287   4.479  14.326  0.2217 -1.6151  1.6817
   6423SM  H18T 8262   4.148   4.589  14.339 -0.6091  0.5282  0.8298
   6423SM  H18U 8263   4.160   4.432  14.430 -1.3120  0.4871  0.1833
   6423SM   C1F 8264   4.997   5.087  15.925  0.3756  0.0457 -0.1278
   6423SM    OF 8265   5.077   4.996  15.928 -0.0711  0.1545  0.0644
   6423SM   C2F 8266   5.034   5.224  15.869  0.4883 -0.0949  0.2529
   6423SM   H2F 8267   5.045   5.293  15.956 -0.2309 -0.0517  0.3156
   6423SM   H2G 8268   4.946   5.249  15.806  0.8774 -0.4093 -0.4249
   6423SM   C3F 8269   5.164   5.234  15.785 -0.2909 -0.4785  0.3202
   6423SM   H3F 8270   5.255   5.243  15.849  1.1604 -1.9819 -1.4065
   6423SM   H3G 8271   5.161   5.330  15.728  0.5081  0.8742  2.4337
   6423SM   C4F 8272   5.200   5.120  15.690 -0.2558 -0.0401  0.0396
   6423SM   H4F 8273   5.114   5.104  15.622 -0.6811  0.5368  0.4323
   6423SM   H4G 8274   5.230   5.032  15.752  2.4917  0.7442 -0.0483
   6423SM   C5F 8275   5.335   5.143  15.614  0.0657  0.1629  0.7079
   6423SM   H5F 8276   5.424   5.105  15.668  1.1918  0.7278 -0.6889
   6423SM   H5G 8277   5.363   5.251  15.614  0.4577  0.0672  0.1989
   6423SM   C6F 8278   5.327   5.083  15.473 -0.6680  0.1775  0.0782
   6423SM   H6F 8279   5.397   5.142  15.408 -0.4638  1.4601  1.4044
   6423SM   H6G 8280   5.224   5.104  15.437 -1.3695 -1.1082  1.2596
   6423SM   C7F 8281   5.376   4.941  15.462  0.1646  0.3175 -0.1076
   6423SM   H7F 8282   5.461   4.906  15.524 -1.3532 -1.0865  1.2969
   6423SM   H7G 8283   5.418   4.923  15.361  2.7194  0.0233  0.9360
   6423SM   C8F 8284   5.267   4.824  15.464 -0.2129  0.1151  0.1818
   6423SM   H8F 8285   5.174   4.872  15.426 -0.2701 -0.4604 -0.4346
   6423SM   H8G 8286   5.235   4.808  15.569 -1.4422 -0.5651 -0.2792
   6423SM   C9F 8287   5.302   4.702  15.385 -0.5012 -0.0363 -0.1223
   6423SM   H9F 8288   5.321   4.705  15.276  0.6310 -0.0236  0.0595
   6423SM   H9G 8289   5.227   4.622  15.400 -0.0711 -1.0881 -2.9509
   6423SM  C10F 8290   5.431   4.639  15.428  0.8295  0.5066 -0.3733
   6423SM  H10F 8291   5.439   4.630  15.539 -0.7279 -1.0929 -0.3682
   6423SM  H10G 8292   5.518   4.703  15.398  0.6652  0.3543 -1.1799
   6423SM  C11F 8293   5.453   4.497  15.368 -0.4107 -0.0142  0.3255
   6423SM  H11F 8294   5.437   4.496  15.258 -0.1610  0.1059  0.2872
   6423SM  H11G 8295   5.382   4.425  15.414 -0.4060 -0.6971 -0.6998
   6423SM  C12F 8296   5.595   4.450  15.401 -0.0579 -0.3569 -0.1615
   6423SM  H12F 8297   5.616   4.455  15.510  1.6321 -0.2055 -0.4633
   6423SM  H12G 8298   5.665   4.524  15.357 -0.0663 -1.2355 -1.7320
   6423SM  C13F 8299   5.624   4.302  15.371  0.0428 -0.0752  0.7847
   6423SM  H13F 8300   5.579   4.278  15.273 -1.4742 -1.8920  1.8517
   6423SM  H13G 8301   5.566   4.226  15.429  1.6763 -1.5508  0.5524
   6423SM  C14F 8302   5.769   4.259  15.376 -0.7372 -0.4224  0.4028
   6423SM  H14F 8303   5.769   4.151  15.353  0.9021  0.2475 -3.4350
   6423SM  H14G 8304   5.813   4.274  15.477 -1.3941  0.5119  0.5688
   6423SM  C15F 8305   5.847   4.326  15.263 -0.5441 -0.4867  1.2718
   6423SM  H15F 8306   5.865   4.435  15.281  0.3616 -0.3187 -0.4714
   6423SM  H15G 8307   5.790   4.312  15.169 -0.8414 -0.4920  1.4510
   6423SM  C16F 8308   5.992   4.263  15.245 -0.5107 -0.7802  0.0612
   6423SM  H16F 8309   5.986   4.156  15.216 -0.6192 -1.0754  1.1321
   6423SM  H16G 8310   6.039   4.266  15.346  2.3677 -0.5625 -1.1665
   6423SM  C17F 8311   6.078   4.361  15.155  0.4372  0.0190  0.8262
   6423SM  H17F 8312   6.186   4.345  15.174  1.0982  1.6139 -1.2315
   6423SM  H17G 8313   6.046   4.466  15.171  3.0169  1.3249 -1.7242
   6423SM  C18F 8314   6.056   4.329  15.004  0.0357  0.0696 -0.3608
   6423SM  H18F 8315   5.947   4.339  14.982 -0.2101 -2.2595 -0.5385
   6423SM  H18G 8316   6.083   4.225  14.977  3.5105 -0.5497  4.2673
   6423SM  C19F 8317   6.140   4.423  14.915 -0.8920  0.4461  0.6975
   6423SM  H19F 8318   6.246   4.419  14.949 -0.6243  1.1923 -0.0161
   6423SM  H19G 8319   6.114   4.529  14.936  0.6365  0.5647  2.2619
   6423SM  C20F 8320   6.126   4.387  14.766 -0.3769 -0.9668 -0.4207
   6423SM  H20F 8321   6.019   4.389  14.737 -0.3039 -3.7562 -1.1449
   6423SM  H20G 8322   6.158   4.284  14.739 -2.7611 -1.5648 -1.1719
   6423SM  C21F 8323   6.225   4.479  14.683  0.6574  0.0516  0.1337
   6423SM  H21F 8324   6.252   4.422  14.591  1.2035 -0.6312  0.7010
   6423SM  H21G 8325   6.319   4.492  14.741 -0.2823 -0.9853  1.9977
   6423SM  C22F 8326   6.172   4.621  14.659 -0.2716  0.4119  0.0439
   6423SM  H22F 8327   6.170   4.674  14.757 -0.4130  0.7909 -0.1621
   6423SM  H22G 8328   6.069   4.597  14.624  1.1568 -0.1740 -4.2309
   6423SM  C23F 8329   6.241   4.707  14.552  0.1698 -0.7129 -0.3524
   6423SM  H23F 8330   6.212   4.814  14.559  1.6590 -0.2245 -1.1875
   6423SM  H23G 8331   6.211   4.675  14.450  0.7622  1.8346 -1.4033
   6423SM  H23H 8332   6.352   4.708  14.563  0.1134  0.8874  0.3812
   6523SM     N 8333   5.077   6.532  16.186 -0.0513  0.0696 -0.0811
   6523SM   C15 8334   5.107   6.675  16.225 -0.2369  0.1474 -0.5234
   6523SM  H15A 8335   5.163   6.682  16.317 -0.0073  0.8483 -0.7118
   6523SM  H15B 8336   5.013   6.725  16.244 -0.6056 -0.4172 -0.8221
   6523SM  H15C 8337   5.151   6.735  16.146 -1.5122  3.7052  1.2474
   6523SM   C14 8338   5.206   6.469  16.132 -0.8238 -0.0740  0.0158
   6523SM  H14A 8339   5.199   6.364  16.108 -2.0847  0.4240 -2.0061
   6523SM  H14B 8340   5.287   6.482  16.203 -1.0896 -0.1747  0.3371
   6523SM  H14C 8341   5.231   6.519  16.039  1.2940 -1.5464 -0.2786
   6523SM   C13 8342   5.034   6.461  16.310  0.4177 -0.0323  0.2426
   6523SM  H13A 8343   5.040   6.354  16.292  0.2942  0.4649 -3.3894
   6523SM  H13B 8344   4.933   6.493  16.329  1.5681  2.6792  2.3977
   6523SM  H13C 8345   5.086   6.489  16.401  0.6357 -4.1668  1.6124
   6523SM   C12 8346   4.956   6.537  16.090 -0.1054 -0.3432 -0.4996
   6523SM  H12A 8347   4.969   6.446  16.033  1.5403 -1.5775  1.6565
   6523SM  H12B 8348   4.966   6.617  16.019 -2.6168 -0.0960 -0.6470
   6523SM   C11 8349   4.810   6.551  16.153  0.0146 -0.0736  0.1917
   6523SM  H11A 8350   4.747   6.612  16.084  0.1777  2.2726  1.9688
   6523SM  H11B 8351   4.824   6.614  16.244  2.8832 -2.0890  1.2797
   6523SM     P 8352   4.601   6.400  16.186 -0.3407  0.5159  0.0342
   6523SM   O13 8353   4.591   6.256  16.209 -0.0709  0.0516 -0.0822
   6523SM   O14 8354   4.531   6.488  16.284  0.1365  0.4131 -0.2260
   6523SM   O11 8355   4.547   6.430  16.035 -0.1901 -0.2143 -0.0278
   6523SM   O12 8356   4.751   6.428  16.175 -0.3257 -0.5540  0.2534
   6523SM   C1S 8357   4.619   6.372  15.922 -0.5005  0.0912 -0.3712
   6523SM   H1S 8358   4.614   6.261  15.933  1.1467  0.1932  2.2459
   6523SM   H1T 8359   4.724   6.408  15.920 -0.3374 -0.3665 -1.8385
   6523SM    NF 8360   4.665   6.374  15.672 -0.0563 -0.0254 -0.4008
   6523SM   HNF 8361   4.713   6.453  15.635  0.1564 -0.0066 -0.1000
   6523SM   C2S 8362   4.568   6.413  15.779 -0.0798 -0.2654 -0.1314
   6523SM   H2S 8363   4.473   6.362  15.754 -1.4384  0.9982  2.1511
   6523SM   C3S 8364   4.535   6.568  15.769  0.8234  0.1446  0.0577
   6523SM   H3S 8365   4.629   6.624  15.788 -0.0994  2.0068 -0.6325
   6523SM    O3 8366   4.455   6.618  15.876  0.2545  0.5399 -0.0711
   6523SM   HO3 8367   4.479   6.564  15.952 -0.7032  2.5575  1.7635
   6523SM   C4S 8368   4.470   6.607  15.639 -0.2382 -0.8797  0.6072
   6523SM   H4S 8369   4.371   6.562  15.618 -0.0990 -0.4320 -1.2265
   6523SM   C5S 8370   4.530   6.683  15.535  0.1012 -0.3830  0.7445
   6523SM   H5S 8371   4.638   6.703  15.541  0.9893 -1.6157 -4.9563
   6523SM   C6S 8372   4.476   6.703  15.392 -0.1231  0.4307  0.1618
   6523SM   H6S 8373   4.563   6.722  15.326 -0.7677  1.0522 -0.5336
   6523SM   H6T 8374   4.396   6.780  15.389 -0.3687  0.1735  0.0628
   6523SM   C7S 8375   4.415   6.567  15.343 -0.6977 -0.2459  0.0995
   6523SM   H7S 8376   4.361   6.587  15.248  0.2156 -0.2136 -0.4145
   6523SM   H7T 8377   4.332   6.535  15.410  0.1877 -0.7527  0.9773
   6523SM   C8S 8378   4.512   6.455  15.327 -0.5369  0.3151  0.5661
   6523SM   H8S 8379   4.573   6.434  15.418  0.4682 -0.3386 -0.2374
   6523SM   H8T 8380   4.579   6.474  15.241 -0.0912 -1.1413  0.5637
   6523SM   C9S 8381   4.430   6.334  15.267 -0.0534  0.4676 -0.4866
   6523SM   H9S 8382   4.415   6.348  15.158  1.2459  0.1011 -0.7266
   6523SM   H9T 8383   4.331   6.328  15.317 -0.0080  0.3585 -0.4090
   6523SM  C10S 8384   4.502   6.204  15.292  0.4955  0.5413  0.4989
   6523SM  H10S 8385   4.529   6.202  15.399  0.9526 -0.2012  0.3773
   6523SM  H10T 8386   4.588   6.191  15.223 -0.7376  0.2726 -1.0465
   6523SM  C11S 8387   4.415   6.077  15.255  0.1040  0.3829 -0.3247
   6523SM  H11S 8388   4.389   6.089  15.147  1.3760  1.4067 -0.5426
   6523SM  H11T 8389   4.315   6.073  15.304 -0.1207  0.7693 -0.7411
   6523SM  C12S 8390   4.475   5.935  15.281 -0.5650  0.0264  0.7700
   6523SM  H12S 8391   4.585   5.934  15.261 -1.1205  0.8981 -3.3150
   6523SM  H12T 8392   4.436   5.866  15.203  2.0262 -2.3119  1.3617
   6523SM  C13S 8393   4.457   5.874  15.417 -0.1430 -0.0121  0.6229
   6523SM  H13S 8394   4.357   5.880  15.465  0.0056 -4.0212  1.8065
   6523SM  H13T 8395   4.527   5.926  15.485  2.1502 -2.3121  0.1581
   6523SM  C14S 8396   4.494   5.720  15.427 -0.4962 -0.0420  0.0505
   6523SM  H14S 8397   4.515   5.681  15.528  0.8577  0.8796  0.1501
   6523SM  H14T 8398   4.590   5.696  15.377  1.1417  0.4792  2.7778
   6523SM  C15S 8399   4.385   5.629  15.364 -0.1468  0.2200 -0.2730
   6523SM  H15S 8400   4.363   5.659  15.259  0.5289  2.2871  0.1188
   6523SM  H15T 8401   4.292   5.650  15.421  0.0228 -2.0138  0.9177
   6523SM  C16S 8402   4.426   5.485  15.355 -0.1112  0.1578 -0.4695
   6523SM  H16S 8403   4.536   5.477  15.341  0.2879  2.3023  0.9901
   6523SM  H16T 8404   4.378   5.427  15.273 -0.2853 -0.9010  0.3581
   6523SM  C17S 8405   4.395   5.416  15.486 -0.0235  0.4650  0.4939
   6523SM  H17S 8406   4.286   5.421  15.507 -0.3697 -0.5947 -0.9003
   6523SM  H17T 8407   4.443   5.472  15.569 -0.3322  0.9010  0.3775
   6523SM  C18S 8408   4.448   5.271  15.496  0.8187 -0.2833 -0.1592
   6523SM  H18S 8409   4.375   5.213  15.436 -1.8129  1.5304  1.0957
   6523SM  H18T 8410   4.452   5.225  15.597  2.3266 -0.0456 -0.0858
   6523SM  H18U 8411   4.549   5.253  15.452  0.4564 -1.9690 -0.3688
   6523SM   C1F 8412   4.717   6.258  15.667  0.7826  0.4773  0.2247
   6523SM    OF 8413   4.692   6.161  15.739 -0.1284  0.0871 -0.1241
   6523SM   C2F 8414   4.819   6.258  15.552 -0.3368  0.2951 -0.1449
   6523SM   H2F 8415   4.892   6.341  15.562  1.2920 -1.2907  1.7384
   6523SM   H2G 8416   4.759   6.271  15.459  0.7216  1.0742 -0.7415
   6523SM   C3F 8417   4.896   6.126  15.538  0.0820  0.3064  0.2233
   6523SM   H3F 8418   4.836   6.037  15.510 -0.8004  1.2186 -0.9216
   6523SM   H3G 8419   4.962   6.100  15.623 -0.5538  1.5928  1.1365
   6523SM   C4F 8420   5.007   6.134  15.425  0.0924  0.2036  0.2192
   6523SM   H4F 8421   5.074   6.221  15.441 -1.1544  1.3906 -0.7515
   6523SM   H4G 8422   4.946   6.148  15.333 -1.1524 -0.2042  0.9502
   6523SM   C5F 8423   5.078   6.001  15.408  0.4620 -0.1693 -0.4888
   6523SM   H5F 8424   4.999   5.923  15.396  1.1442 -1.1258  0.9125
   6523SM   H5G 8425   5.117   5.972  15.508  0.2459 -0.3862 -0.4657
   6523SM   C6F 8426   5.173   5.982  15.294  0.4634  0.2378 -0.6731
   6523SM   H6F 8427   5.268   5.942  15.337  0.8534  0.6217 -1.1660
   6523SM   H6G 8428   5.195   6.088  15.269 -0.3812  0.7573  0.6864
   6523SM   C7F 8429   5.128   5.908  15.172  0.1151 -0.1072 -0.7647
   6523SM   H7F 8430   5.036   5.960  15.137 -0.9866 -1.1067  0.5446
   6523SM   H7G 8431   5.098   5.805  15.201 -0.3980 -0.2805 -1.8230
   6523SM   C8F 8432   5.240   5.895  15.067  0.2627 -0.4786 -0.1039
   6523SM   H8F 8433   5.341   5.875  15.109 -0.6105 -0.9054  1.9036
   6523SM   H8G 8434   5.246   5.996  15.023  0.3099  1.3692  3.7048
   6523SM   C9F 8435   5.207   5.791  14.964 -0.3862 -0.3848  0.5817
   6523SM   H9F 8436   5.114   5.827  14.915  0.0357 -1.5822 -1.2041
   6523SM   H9G 8437   5.184   5.691  15.007  0.2442 -0.4022  0.8934
   6523SM  C10F 8438   5.314   5.777  14.854 -0.2020 -0.0764  0.2358
   6523SM  H10F 8439   5.388   5.695  14.870  0.9018  0.3943 -2.1055
   6523SM  H10G 8440   5.369   5.873  14.860  0.1663 -0.2964  0.4062
   6523SM  C11F 8441   5.264   5.741  14.719 -0.4576  0.4482  0.3025
   6523SM  H11F 8442   5.190   5.818  14.686 -3.0075 -1.0417  2.1890
   6523SM  H11G 8443   5.212   5.643  14.725  2.3397 -1.1892 -0.6328
   6523SM  C12F 8444   5.383   5.745  14.622  0.1789 -0.0685 -0.2198
   6523SM  H12F 8445   5.454   5.662  14.644  0.8770  0.3616 -0.8053
   6523SM  H12G 8446   5.433   5.843  14.638 -1.2879  0.7872 -0.7036
   6523SM  C13F 8447   5.345   5.743  14.476  0.2002  0.1712  0.6862
   6523SM  H13F 8448   5.441   5.756  14.422 -0.5913 -0.0857 -0.8490
   6523SM  H13G 8449   5.271   5.823  14.453  0.7439  0.8038  1.1195
   6523SM  C14F 8450   5.279   5.612  14.428 -0.7106 -0.0371  0.4088
   6523SM  H14F 8451   5.182   5.606  14.482 -0.9560 -1.0799 -0.1173
   6523SM  H14G 8452   5.335   5.527  14.472 -0.4714  0.9281  2.0637
   6523SM  C15F 8453   5.262   5.601  14.279  0.6591 -0.0105  0.3979
   6523SM  H15F 8454   5.357   5.605  14.223 -0.9719 -0.6103 -2.6130
   6523SM  H15G 8455   5.207   5.695  14.256  0.3334 -0.2099  0.3536
   6523SM  C16F 8456   5.185   5.482  14.220  0.6027  0.4309  0.1934
   6523SM  H16F 8457   5.130   5.512  14.129 -1.7661  1.5944  1.9091
   6523SM  H16G 8458   5.113   5.441  14.295  0.2322  1.3073  0.3301
   6523SM  C17F 8459   5.280   5.366  14.175 -0.4178  0.5083  0.1384
   6523SM  H17F 8460   5.331   5.319  14.261 -1.3344 -1.2010 -0.2159
   6523SM  H17G 8461   5.361   5.402  14.108  0.4238 -1.2003  0.2151
   6523SM  C18F 8462   5.189   5.257  14.106 -0.3039  0.5845  0.4627
   6523SM  H18F 8463   5.095   5.242  14.163 -0.2237 -0.5200  0.3168
   6523SM  H18G 8464   5.238   5.160  14.128 -1.8453 -0.6141 -1.1010
   6523SM  C19F 8465   5.164   5.260  13.951 -0.4717 -0.4604 -0.3351
   6523SM  H19F 8466   5.256   5.271  13.890  0.4083 -0.7085  0.9181
   6523SM  H19G 8467   5.105   5.353  13.934 -0.6909 -0.3006  1.1653
   6523SM  C20F 8468   5.072   5.140  13.898 -0.2512 -0.0137 -0.0284
   6523SM  H20F 8469   4.972   5.169  13.936 -0.8460  0.8841 -2.1303
   6523SM  H20G 8470   5.121   5.044  13.925  0.8798 -0.6031 -3.6289
   6523SM  C21F 8471   5.054   5.132  13.750  0.2089  0.0857 -0.0985
   6523SM  H21F 8472   5.155   5.140  13.704 -0.5387  1.4139 -1.6182
   6523SM  H21G 8473   4.986   5.213  13.717 -0.6082 -0.7856 -0.6059
   6523SM  C22F 8474   4.988   4.999  13.708 -0.3918 -0.6074 -0.5810
   6523SM  H22F 8475   4.893   4.983  13.765 -0.9069  0.1726 -1.2086
   6523SM  H22G 8476   5.040   4.911  13.751  1.3712  0.2628 -0.8647
   6523SM  C23F 8477   4.962   4.974  13.562  0.7457  0.5571 -0.9538
   6523SM  H23F 8478   4.947   4.865  13.546 -0.1791  0.6866 -1.0537
   6523SM  H23G 8479   5.042   5.019  13.500  0.1368  3.4818  0.2112
   6523SM  H23H 8480   4.874   5.030  13.522  0.1103 -1.1519 -2.0533
   6623SM     N 8481   3.468   1.768  16.194  0.0935 -0.4709 -0.3769
   6623SM   C15 8482   3.536   1.773  16.065 -0.1279  0.1831 -0.0898
   6623SM  H15A 8483   3.473   1.756  15.980 -2.8080  0.1243  1.8103
   6623SM  H15B 8484   3.618   1.703  16.056  2.2317  2.4893  1.5572
   6623SM  H15C 8485   3.585   1.868  16.047  0.0533  0.3891  1.3894
   6623SM   C14 8486   3.449   1.908  16.236 -0.0173  0.3785 -0.3348
   6623SM  H14A 8487   3.360   1.961  16.205 -0.1967  0.2818  0.0087
   6623SM  H14B 8488   3.542   1.955  16.208  0.3266  1.1200  1.8801
   6623SM  H14C 8489   3.462   1.906  16.343 -1.8024 -1.1026 -0.0871
   6623SM   C13 8490   3.341   1.691  16.178  0.1002 -0.9886  0.6502
   6623SM  H13A 8491   3.355   1.590  16.144 -1.7184 -0.8182 -0.7332
   6623SM  H13B 8492   3.289   1.746  16.101 -2.7268  2.0997  4.2841
   6623SM  H13C 8493   3.268   1.694  16.257 -0.3177 -0.1159  0.2501
   6623SM   C12 8494   3.554   1.690  16.294  0.3178 -0.4605 -0.4678
   6623SM  H12A 8495   3.494   1.671  16.382  0.6295  0.6698  0.0226
   6623SM  H12B 8496   3.637   1.756  16.319 -1.1232  2.1443 -2.1278
   6623SM   C11 8497   3.605   1.553  16.245  0.1700 -0.4448  0.7028
   6623SM  H11A 8498   3.523   1.504  16.189  0.9337  0.0415 -0.9096
   6623SM  H11B 8499   3.635   1.469  16.311  0.3198 -0.3929  0.7022
   6623SM     P 8500   3.852   1.616  16.203  0.0983 -0.2360 -0.1169
   6623SM   O13 8501   3.845   1.726  16.297  0.0315 -0.5657 -0.5806
   6623SM   O14 8502   3.925   1.494  16.244  0.0887  0.8129 -0.3524
   6623SM   O11 8503   3.908   1.676  16.065 -0.3188  0.3769 -0.6489
   6623SM   O12 8504   3.710   1.571  16.146 -0.3117  0.4680 -0.9722
   6623SM   C1S 8505   3.888   1.590  15.952  0.2692  0.0519  0.4538
   6623SM   H1S 8506   3.798   1.525  15.957  0.0568  0.3963  1.2467
   6623SM   H1T 8507   3.972   1.517  15.948  0.3764  0.0429  2.2048
   6623SM    NF 8508   3.897   1.561  15.709 -0.0882  0.2721 -0.2222
   6623SM   HNF 8509   3.988   1.544  15.671  0.5534  0.1131  1.3254
   6623SM   C2S 8510   3.894   1.663  15.812 -0.1573  0.9661 -0.0118
   6623SM   H2S 8511   3.803   1.725  15.801 -0.0065  1.1775 -0.0761
   6623SM   C3S 8512   4.022   1.748  15.823 -0.1890 -0.1602 -0.0323
   6623SM   H3S 8513   4.111   1.693  15.861  0.2170  0.6634  0.2449
   6623SM    O3 8514   4.016   1.857  15.917 -0.0448 -0.7466  0.1093
   6623SM   HO3 8515   3.955   1.827  15.985 -0.8156  2.2932  0.9136
   6623SM   C4S 8516   4.047   1.819  15.693  0.1368 -0.4812 -0.4248
   6623SM   H4S 8517   3.982   1.908  15.686  1.2599  0.3435 -0.8293
   6623SM   C5S 8518   4.152   1.805  15.607  0.9147  0.1347 -0.3952
   6623SM   H5S 8519   4.239   1.748  15.643 -0.7884 -2.1760  0.3046
   6623SM   C6S 8520   4.182   1.891  15.488 -0.6683  0.2900  0.7178
   6623SM   H6S 8521   4.178   1.822  15.401  1.6381  0.3532  0.5082
   6623SM   H6T 8522   4.284   1.929  15.505 -0.6223  0.6144 -0.2495
   6623SM   C7S 8523   4.088   2.014  15.463  0.0609  0.4915 -0.0985
   6623SM   H7S 8524   4.100   2.085  15.548 -2.1014  0.3570  0.3737
   6623SM   H7T 8525   3.979   1.993  15.458  0.0499  0.8131 -2.4004
   6623SM   C8S 8526   4.110   2.077  15.325  0.0286  0.9378 -0.0598
   6623SM   H8S 8527   4.082   1.995  15.256  1.4742  1.1039 -0.8735
   6623SM   H8T 8528   4.214   2.111  15.304 -0.0029  0.6483 -0.6795
   6623SM   C9S 8529   4.012   2.193  15.302  0.6445  0.8461 -1.0479
   6623SM   H9S 8530   3.909   2.154  15.317  1.0835  0.2245  0.5615
   6623SM   H9T 8531   4.023   2.227  15.197 -0.7760  2.8049 -0.5999
   6623SM  C10S 8532   4.037   2.308  15.398 -1.0674  0.0544  0.0323
   6623SM  H10S 8533   4.143   2.311  15.431 -0.7404 -1.9890 -0.7053
   6623SM  H10T 8534   3.987   2.284  15.494 -0.9732 -1.3856 -0.2615
   6623SM  C11S 8535   3.979   2.434  15.340  0.2377 -0.0248  0.5614
   6623SM  H11S 8536   3.872   2.412  15.316 -0.2043  1.5887  0.9653
   6623SM  H11T 8537   4.031   2.469  15.249  0.0568 -0.3885  0.3143
   6623SM  C12S 8538   3.975   2.553  15.431  0.0074 -0.2016 -0.2561
   6623SM  H12S 8539   4.075   2.600  15.436  0.0709  0.4015 -4.2251
   6623SM  H12T 8540   3.941   2.519  15.531  2.5848  0.9712  1.0997
   6623SM  C13S 8541   3.886   2.668  15.377 -0.4643  0.1527 -0.4232
   6623SM  H13S 8542   3.780   2.641  15.358  0.1744 -1.0471 -2.7249
   6623SM  H13T 8543   3.911   2.706  15.276 -0.1576 -1.5601 -1.0325
   6623SM  C14S 8544   3.887   2.787  15.470  0.4206  0.2806 -0.3789
   6623SM  H14S 8545   3.911   2.764  15.576 -3.7844 -2.2188  0.2719
   6623SM  H14T 8546   3.785   2.833  15.470  1.1103  1.8987 -0.3607
   6623SM  C15S 8547   3.981   2.904  15.428 -0.3018 -0.1703 -0.4181
   6623SM  H15S 8548   3.945   2.939  15.329  2.1655  2.6614 -0.4748
   6623SM  H15T 8549   4.085   2.864  15.422  1.4398  4.0196 -2.2088
   6623SM  C16S 8550   3.973   3.029  15.521  0.3220  0.9872 -0.3661
   6623SM  H16S 8551   4.005   3.007  15.625 -0.8788  0.4874 -0.0833
   6623SM  H16T 8552   3.866   3.059  15.531  0.4057  2.8402 -3.6757
   6623SM  C17S 8553   4.061   3.145  15.468  0.5823 -0.2435 -0.4487
   6623SM  H17S 8554   4.018   3.178  15.370 -2.4224  2.1045  1.4831
   6623SM  H17T 8555   4.172   3.142  15.458  0.7197 -1.7787  1.0524
   6623SM  C18S 8556   4.038   3.271  15.550 -0.1773 -0.3067 -0.3516
   6623SM  H18S 8557   4.128   3.336  15.545  0.0959 -0.7284 -1.3528
   6623SM  H18T 8558   4.027   3.254  15.659 -1.0393  1.5237 -0.1165
   6623SM  H18U 8559   3.948   3.323  15.510 -1.4513 -2.3624 -0.3064
   6623SM   C1F 8560   3.790   1.502  15.660 -0.0039 -0.1361 -0.0443
   6623SM    OF 8561   3.683   1.538  15.705  0.5987 -0.2027 -0.3549
   6623SM   C2F 8562   3.807   1.406  15.544  0.4402  0.6789  0.4884
   6623SM   H2F 8563   3.911   1.367  15.532  0.2504  0.9803 -3.7106
   6623SM   H2G 8564   3.781   1.467  15.455  0.2063  0.6980  0.5689
   6623SM   C3F 8565   3.699   1.291  15.554  0.2831  0.2913  0.6691
   6623SM   H3F 8566   3.595   1.330  15.553  0.1728  0.0563  1.8558
   6623SM   H3G 8567   3.718   1.238  15.650 -1.2133 -0.8407  0.3848
   6623SM   C4F 8568   3.717   1.188  15.441  0.1323  0.2157  0.0430
   6623SM   H4F 8569   3.641   1.108  15.455 -0.2940  0.4864 -0.7074
   6623SM   H4G 8570   3.818   1.143  15.455  0.3931  0.8905  0.3771
   6623SM   C5F 8571   3.690   1.243  15.298 -0.2540 -0.9164 -0.0911
   6623SM   H5F 8572   3.763   1.323  15.276 -1.1783 -0.0428 -0.0629
   6623SM   H5G 8573   3.586   1.283  15.301  0.0939  0.2203 -1.7102
   6623SM   C6F 8574   3.712   1.136  15.189 -0.4144 -0.3830 -0.3264
   6623SM   H6F 8575   3.657   1.042  15.213  0.8470 -0.8481  0.8736
   6623SM   H6G 8576   3.817   1.101  15.177  0.0255  0.7764 -0.0095
   6623SM   C7F 8577   3.671   1.191  15.057  0.2377  0.0260  0.1819
   6623SM   H7F 8578   3.736   1.278  15.034 -0.6343  1.0365  1.3263
   6623SM   H7G 8579   3.568   1.234  15.049 -0.2082 -1.2718 -1.5415
   6623SM   C8F 8580   3.684   1.084  14.937  0.4570 -0.3519  0.6457
   6623SM   H8F 8581   3.630   0.995  14.975  1.1933  0.1467  3.0885
   6623SM   H8G 8582   3.789   1.051  14.928 -0.0874 -2.2948  1.0076
   6623SM   C9F 8583   3.628   1.138  14.806 -0.1725 -0.4145 -0.0604
   6623SM   H9F 8584   3.658   1.243  14.783  0.8624 -1.0665 -1.8704
   6623SM   H9G 8585   3.517   1.138  14.808 -0.2161  0.7783 -1.1898
   6623SM  C10F 8586   3.644   1.057  14.683 -0.4136  0.2024 -0.5463
   6623SM  H10F 8587   3.582   0.965  14.694  2.0229 -1.4928  0.0497
   6623SM  H10G 8588   3.744   1.013  14.662  0.0525  1.8861 -2.1166
   6623SM  C11F 8589   3.601   1.136  14.555 -0.0892  0.0602 -0.0370
   6623SM  H11F 8590   3.679   1.214  14.540 -1.7979  2.7262  3.6268
   6623SM  H11G 8591   3.507   1.190  14.574 -1.0032 -0.5037 -2.5887
   6623SM  C12F 8592   3.564   1.034  14.441 -0.3321 -0.8348  0.6970
   6623SM  H12F 8593   3.454   1.016  14.439 -0.3579 -0.7917 -2.0962
   6623SM  H12G 8594   3.608   0.937  14.472  2.2883 -0.0325 -0.3114
   6623SM  C13F 8595   3.608   1.094  14.307 -0.4021  0.6341 -0.2312
   6623SM  H13F 8596   3.572   1.199  14.312  1.8297  1.4820 -0.5772
   6623SM  H13G 8597   3.552   1.043  14.225  0.6362 -0.3236 -0.3698
   6623SM  C14F 8598   3.763   1.088  14.288  0.3491  0.2933 -0.4030
   6623SM  H14F 8599   3.807   1.034  14.374  1.1759  1.1792 -0.2604
   6623SM  H14G 8600   3.805   1.190  14.293 -1.8183  1.1912  1.2366
   6623SM  C15F 8601   3.812   1.016  14.159  0.0255 -0.8571  0.7010
   6623SM  H15F 8602   3.746   0.927  14.155 -0.8479 -0.2466  1.3299
   6623SM  H15G 8603   3.917   0.980  14.162  0.5885  0.5341 -0.8770
   6623SM  C16F 8604   3.785   1.090  14.027 -0.6426  0.0205  0.5682
   6623SM  H16F 8605   3.705   1.166  14.033  0.0495  0.9081 -0.7572
   6623SM  H16G 8606   3.756   1.009  13.956  1.3744  1.0261 -1.5488
   6623SM  C17F 8607   3.917   1.160  13.979  0.3046  0.6207 -0.3114
   6623SM  H17F 8608   3.989   1.079  13.999 -1.9174 -0.9243  2.0275
   6623SM  H17G 8609   3.952   1.233  14.055  0.5483  0.7681 -0.5637
   6623SM  C18F 8610   3.931   1.184  13.826  0.8226 -0.0498 -0.4512
   6623SM  H18F 8611   3.878   1.281  13.816  1.8118  0.8625  2.3100
   6623SM  H18G 8612   3.881   1.115  13.754 -0.2595  0.6217 -0.3642
   6623SM  C19F 8613   4.076   1.211  13.773  0.2074 -0.1272  0.0701
   6623SM  H19F 8614   4.108   1.299  13.832  1.7401 -0.0881 -0.7847
   6623SM  H19G 8615   4.082   1.236  13.665  0.6459 -1.1492 -0.1588
   6623SM  C20F 8616   4.173   1.098  13.792 -0.3550  0.2799  0.0481
   6623SM  H20F 8617   4.192   1.087  13.901  1.4494 -1.4542 -0.3814
   6623SM  H20G 8618   4.266   1.135  13.744 -0.9685  1.1307 -0.5097
   6623SM  C21F 8619   4.134   0.965  13.729 -0.3651 -0.2884 -0.0488
   6623SM  H21F 8620   4.041   0.930  13.779 -0.0015  1.9883  2.4248
   6623SM  H21G 8621   4.222   0.901  13.750 -1.0602 -1.2834 -0.0920
   6623SM  C22F 8622   4.104   0.977  13.576 -0.4298 -0.1754  0.3768
   6623SM  H22F 8623   4.183   1.035  13.525  0.4146 -1.2442  0.4248
   6623SM  H22G 8624   4.008   1.029  13.559  0.5814  1.4709 -0.5055
   6623SM  C23F 8625   4.085   0.842  13.506 -0.0523 -0.1760 -0.5679
   6623SM  H23F 8626   4.077   0.849  13.395  2.0212 -1.0888 -0.8047
   6623SM  H23G 8627   3.995   0.789  13.545 -0.6849 -0.2078 -2.0003
   6623SM  H23H 8628   4.175   0.780  13.521  1.9187  2.9309  1.4842
   6723SM     N 8629   3.122   6.972  16.147 -0.0934  0.1696  0.0134
   6723SM   C15 8630   3.012   6.871  16.125 -0.0656  0.0574  0.7617
   6723SM  H15A 8631   2.925   6.886  16.188 -1.9770  0.6557 -1.8273
   6723SM  H15B 8632   3.037   6.768  16.142  1.8178  0.0770 -1.4290
   6723SM  H15C 8633   2.972   6.869  16.025  2.3312 -1.5141 -0.2489
   6723SM   C14 8634   3.068   7.105  16.105 -0.3579 -0.3138  0.3940
   6723SM  H14A 8635   3.140   7.185  16.109 -0.2639 -0.4208  0.8935
   6723SM  H14B 8636   2.982   7.132  16.163 -1.0419 -2.9579  0.7189
   6723SM  H14C 8637   3.048   7.114  15.999  0.3753  0.7799  0.3290
   6723SM   C13 8638   3.165   6.972  16.295 -0.9617 -0.3343  0.0938
   6723SM  H13A 8639   3.198   6.874  16.327 -1.1014  0.5588  3.3549
   6723SM  H13B 8640   3.076   6.990  16.353 -1.1440  0.9722 -0.5574
   6723SM  H13C 8641   3.231   7.055  16.318  0.5053 -1.0598 -1.3299
   6723SM   C12 8642   3.231   6.951  16.047  0.0675 -0.6476  0.3550
   6723SM  H12A 8643   3.308   7.023  16.072 -1.0505 -0.2395  2.8638
   6723SM  H12B 8644   3.200   6.974  15.946  1.4096  0.8787  0.2414
   6723SM   C11 8645   3.290   6.810  16.046 -0.1769  0.5463 -0.8281
   6723SM  H11A 8646   3.213   6.732  16.026  0.3629 -0.2035 -0.0836
   6723SM  H11B 8647   3.337   6.779  16.142  0.8153 -0.5474 -1.6318
   6723SM     P 8648   3.524   6.867  15.953  0.4158  0.1197 -0.2704
   6723SM   O13 8649   3.537   6.962  16.065 -0.0974  0.2051 -0.3519
   6723SM   O14 8650   3.629   6.771  15.922 -0.5875  0.3419  0.0751
   6723SM   O11 8651   3.506   6.956  15.822 -0.2113  0.6711 -0.5058
   6723SM   O12 8652   3.385   6.796  15.940  0.3736  0.4636 -0.1598
   6723SM   C1S 8653   3.418   6.927  15.712  0.9498  0.6243 -0.0856
   6723SM   H1S 8654   3.316   6.964  15.735  1.2535  0.7708  1.1171
   6723SM   H1T 8655   3.420   6.818  15.689 -0.8622  0.4357  0.5093
   6723SM    NF 8656   3.360   7.007  15.480 -1.0508  0.3451  0.4850
   6723SM   HNF 8657   3.378   6.947  15.403  1.7224  0.6738  0.7653
   6723SM   C2S 8658   3.465   6.993  15.577  0.3255  0.3753  0.5528
   6723SM   H2S 8659   3.495   7.099  15.595 -0.7884  0.3396  3.0849
   6723SM   C3S 8660   3.591   6.925  15.521 -1.3529  0.3966 -0.5709
   6723SM   H3S 8661   3.575   6.815  15.512 -1.6725  0.5298 -1.8907
   6723SM    O3 8662   3.702   6.931  15.608  0.5062  0.0411 -0.3326
   6723SM   HO3 8663   3.653   6.942  15.690 -0.2912 -2.5728 -0.3769
   6723SM   C4S 8664   3.639   6.976  15.385 -0.1123  0.3266  0.6720
   6723SM   H4S 8665   3.661   7.084  15.382 -1.5833  0.6556 -1.8004
   6723SM   C5S 8666   3.656   6.899  15.273 -0.0771  0.5862  0.3178
   6723SM   H5S 8667   3.643   6.790  15.274 -0.6233  0.5403 -2.5254
   6723SM   C6S 8668   3.694   6.950  15.134  0.2657  0.1919  0.7217
   6723SM   H6S 8669   3.726   6.867  15.069 -2.7241  1.8467 -3.2873
   6723SM   H6T 8670   3.786   7.012  15.139  1.2581 -1.2072  0.1483
   6723SM   C7S 8671   3.587   7.019  15.053 -0.4069  0.4923  0.2509
   6723SM   H7S 8672   3.627   7.081  14.970 -2.1136  0.8625 -0.3198
   6723SM   H7T 8673   3.539   7.086  15.127  0.3754 -0.6318  1.8344
   6723SM   C8S 8674   3.487   6.923  14.995  0.0014  0.3805  0.1474
   6723SM   H8S 8675   3.467   6.840  15.067  0.3923 -0.9006 -1.1859
   6723SM   H8T 8676   3.520   6.877  14.900  0.4363 -0.8936  0.8937
   6723SM   C9S 8677   3.343   6.990  14.972 -0.2345  0.1141  0.1927
   6723SM   H9S 8678   3.361   7.071  14.898 -1.1673  0.7166  0.6034
   6723SM   H9T 8679   3.310   7.050  15.059 -0.0877  1.9346 -0.9363
   6723SM  C10S 8680   3.236   6.884  14.922 -0.2315  0.8646  0.4062
   6723SM  H10S 8681   3.245   6.796  14.988 -2.2554  0.5886  0.3696
   6723SM  H10T 8682   3.256   6.858  14.815 -0.0219  0.5797  0.5147
   6723SM  C11S 8683   3.092   6.942  14.911 -0.3387  0.0047 -0.8589
   6723SM  H11S 8684   3.050   6.969  15.010  1.5855  0.7565 -0.2065
   6723SM  H11T 8685   3.018   6.867  14.876 -0.5424 -0.8182  1.2057
   6723SM  C12S 8686   3.070   7.071  14.825 -0.1628  0.3846  0.1355
   6723SM  H12S 8687   3.116   7.053  14.725  0.2010 -1.4628  0.5995
   6723SM  H12T 8688   3.131   7.158  14.858  0.1229  1.1772 -2.2880
   6723SM  C13S 8689   2.924   7.104  14.806  0.9556 -0.2094 -0.3620
   6723SM  H13S 8690   2.884   7.127  14.907  0.7115 -0.5888 -0.3706
   6723SM  H13T 8691   2.864   7.015  14.778  1.3230 -1.2581  1.9777
   6723SM  C14S 8692   2.890   7.219  14.706 -0.2741  0.5827  0.5206
   6723SM  H14S 8693   2.944   7.310  14.738 -0.0468  0.9695 -0.9091
   6723SM  H14T 8694   2.779   7.223  14.710 -0.2966 -0.1183  0.6917
   6723SM  C15S 8695   2.943   7.185  14.556  0.5532 -0.2667 -0.2297
   6723SM  H15S 8696   2.911   7.081  14.535  0.5863  0.0031 -1.7118
   6723SM  H15T 8697   3.052   7.204  14.546  0.2340  1.5145 -0.6978
   6723SM  C16S 8698   2.869   7.275  14.460 -0.6086  0.3513  0.0663
   6723SM  H16S 8699   2.933   7.364  14.444 -0.1506  0.4278  2.0185
   6723SM  H16T 8700   2.771   7.307  14.502 -1.4452 -0.8852 -0.8495
   6723SM  C17S 8701   2.861   7.197  14.322 -0.3905 -0.5325  0.3303
   6723SM  H17S 8702   2.780   7.122  14.332  0.4296 -1.4621  0.1778
   6723SM  H17T 8703   2.961   7.151  14.304  0.7078  1.5062  0.9545
   6723SM  C18S 8704   2.829   7.299  14.213 -0.0090 -0.1200  0.6903
   6723SM  H18S 8705   2.904   7.380  14.224  0.2489 -0.2851  0.1695
   6723SM  H18T 8706   2.725   7.337  14.219 -0.4391 -0.8138 -1.5328
   6723SM  H18U 8707   2.843   7.253  14.113 -2.5449 -0.5903  0.4801
   6723SM   C1F 8708   3.253   7.084  15.479  0.5788  0.7928  0.0562
   6723SM    OF 8709   3.220   7.143  15.581  0.3165  0.7912  0.4299
   6723SM   C2F 8710   3.171   7.098  15.355 -0.0720 -0.3440  0.5143
   6723SM   H2F 8711   3.114   7.004  15.348 -0.9387  0.1114  1.2595
   6723SM   H2G 8712   3.225   7.095  15.258 -2.8378 -0.6477 -1.0984
   6723SM   C3F 8713   3.076   7.226  15.356  0.3138  0.2038 -0.5555
   6723SM   H3F 8714   3.139   7.315  15.374 -0.1069  0.5473 -0.7636
   6723SM   H3G 8715   2.998   7.225  15.436 -0.4658 -2.0494 -1.2497
   6723SM   C4F 8716   3.011   7.243  15.222 -0.0546 -1.0654 -0.1326
   6723SM   H4F 8717   2.957   7.152  15.187 -0.9220  0.5851 -3.5273
   6723SM   H4G 8718   3.095   7.253  15.150  0.0558 -0.6013  0.0612
   6723SM   C5F 8719   2.916   7.362  15.218 -0.6655  0.1371 -0.2017
   6723SM   H5F 8720   2.957   7.459  15.253  1.1386 -0.5122 -0.4609
   6723SM   H5G 8721   2.825   7.341  15.278 -0.8884  0.7176 -0.3278
   6723SM   C6F 8722   2.871   7.383  15.074  0.1133 -0.6105  0.4071
   6723SM   H6F 8723   2.811   7.296  15.039 -0.0906  1.0531 -4.0283
   6723SM   H6G 8724   2.963   7.400  15.015 -0.3744 -1.7561 -0.7048
   6723SM   C7F 8725   2.778   7.508  15.069  0.1609 -0.2724 -0.8175
   6723SM   H7F 8726   2.833   7.604  15.077 -0.8166  0.1687  1.2384
   6723SM   H7G 8727   2.713   7.522  15.158  0.0911 -0.4080 -0.8450
   6723SM   C8F 8728   2.698   7.514  14.942 -0.1568 -0.5481 -0.2459
   6723SM   H8F 8729   2.626   7.597  14.951 -0.2326 -0.7714  1.3669
   6723SM   H8G 8730   2.639   7.421  14.925  0.0376 -0.7067 -0.0619
   6723SM   C9F 8731   2.795   7.561  14.835  0.5998  0.1143  0.5556
   6723SM   H9F 8732   2.871   7.482  14.818 -0.9601 -1.6721  1.4228
   6723SM   H9G 8733   2.837   7.659  14.864 -0.1534  0.2195  1.3602
   6723SM  C10F 8734   2.705   7.584  14.708 -0.3214  0.3769 -0.3555
   6723SM  H10F 8735   2.622   7.654  14.731 -0.1599  0.6198 -0.5120
   6723SM  H10G 8736   2.655   7.493  14.668 -1.7941  1.4163 -0.9407
   6723SM  C11F 8737   2.794   7.627  14.593 -0.6937 -0.4375  0.2057
   6723SM  H11F 8738   2.885   7.570  14.567 -0.1165  1.3449 -1.9951
   6723SM  H11G 8739   2.834   7.727  14.623 -0.3730 -0.8628  1.2385
   6723SM  C12F 8740   2.709   7.650  14.464  0.1477  0.1023  0.2601
   6723SM  H12F 8741   2.631   7.718  14.505  0.1723  1.1474 -1.3320
   6723SM  H12G 8742   2.671   7.550  14.432  1.1525  0.9511 -4.1857
   6723SM  C13F 8743   2.772   7.729  14.353 -0.5239  0.3938  0.3706
   6723SM  H13F 8744   2.848   7.666  14.301 -0.0290  0.1718  1.3431
   6723SM  H13G 8745   2.819   7.822  14.390 -0.0882  0.0803  0.6172
   6723SM  C14F 8746   2.670   7.779  14.250 -0.1982  0.0520 -0.3894
   6723SM  H14F 8747   2.630   7.864  14.309  0.3900  1.0514 -1.3788
   6723SM  H14G 8748   2.589   7.703  14.238 -0.2474  0.2848 -1.6046
   6723SM  C15F 8749   2.732   7.799  14.111  0.6278 -0.7223 -0.5035
   6723SM  H15F 8750   2.785   7.703  14.090  0.1354 -0.7645 -1.6102
   6723SM  H15G 8751   2.808   7.880  14.110 -0.0725 -0.0464  0.1458
   6723SM  C16F 8752   2.621   7.828  14.007 -0.4042  0.6668 -0.4263
   6723SM  H16F 8753   2.543   7.890  14.056  0.0524 -0.6029  2.0546
   6723SM  H16G 8754   2.581   7.724  14.004 -2.1106  1.3092 -1.3267
   6723SM  C17F 8755   2.658   7.874  13.868 -0.8636 -0.1562 -0.3068
   6723SM  H17F 8756   2.567   7.865  13.805 -1.6142 -1.1026  0.8831
   6723SM  H17G 8757   2.738   7.808  13.826 -0.1191  0.0281  0.7819
   6723SM  C18F 8758   2.708   8.019  13.868 -0.7200  0.3565 -0.5378
   6723SM  H18F 8759   2.792   8.037  13.938 -2.7019  0.3754  1.9524
   6723SM  H18G 8760   2.622   8.083  13.896  0.1426  0.5961  1.8223
   6723SM  C19F 8761   2.773   8.048  13.732  0.4500  0.5184  0.4640
   6723SM  H19F 8762   2.866   7.989  13.715  0.3607  0.2831  0.7838
   6723SM  H19G 8763   2.796   8.156  13.744 -0.6983  1.1533 -2.2651
   6723SM  C20F 8764   2.685   8.037  13.613 -0.0203  0.2497 -0.2730
   6723SM  H20F 8765   2.586   8.083  13.631  0.9148  2.5557 -0.5921
   6723SM  H20G 8766   2.669   7.932  13.581 -1.2925 -0.6045  2.7778
   6723SM  C21F 8767   2.753   8.115  13.501 -1.2010 -0.1628 -0.4895
   6723SM  H21F 8768   2.724   8.082  13.399  0.5765 -0.5563 -0.8952
   6723SM  H21G 8769   2.862   8.094  13.509 -0.6264  2.2781 -0.8699
   6723SM  C22F 8770   2.725   8.268  13.496 -0.3054 -0.0961  0.5152
   6723SM  H22F 8771   2.765   8.305  13.593  0.9788  0.3062 -0.1537
   6723SM  H22G 8772   2.615   8.282  13.496 -0.6984 -1.2398 -4.4503
   6723SM  C23F 8773   2.791   8.343  13.374  0.0299  0.2179 -0.4738
   6723SM  H23F 8774   2.714   8.331  13.294 -2.6845 -0.3350  2.0304
   6723SM  H23G 8775   2.886   8.291  13.349 -1.0433 -2.1732  0.0660
   6723SM  H23H 8776   2.798   8.453  13.389  1.4969  0.4049 -2.2680
   6823SM     N 8777   2.814   1.149  16.368  0.4651 -0.4754 -0.0464
   6823SM   C15 8778   2.964   1.118  16.357 -0.1524  0.5553 -0.3838
   6823SM  H15A 8779   3.015   1.112  16.452  0.3631 -1.7638 -0.7529
   6823SM  H15B 8780   3.023   1.176  16.288 -1.9604  1.1886 -1.4737
   6823SM  H15C 8781   2.976   1.021  16.312 -1.1200  0.1407  0.2132
   6823SM   C14 8782   2.755   1.055  16.472 -0.2303  0.7532 -0.2220
   6823SM  H14A 8783   2.775   0.951  16.451  0.9124  0.3550  2.5520
   6823SM  H14B 8784   2.649   1.072  16.483 -0.3908 -0.4110  0.1395
   6823SM  H14C 8785   2.799   1.059  16.570 -1.5884  1.2894  0.3929
   6823SM   C13 8786   2.791   1.289  16.414 -0.1538 -0.7127  0.0389
   6823SM  H13A 8787   2.831   1.358  16.342 -0.7058  1.2652  1.5392
   6823SM  H13B 8788   2.836   1.310  16.510 -0.3293  0.4710 -0.1242
   6823SM  H13C 8789   2.687   1.308  16.435 -0.3376 -0.4883 -1.0243
   6823SM   C12 8790   2.759   1.120  16.224  0.5926  0.5945 -0.1748
   6823SM  H12A 8791   2.651   1.120  16.232  0.4043 -1.0220 -1.9783
   6823SM  H12B 8792   2.776   1.016  16.202 -1.3958 -0.1383  1.4282
   6823SM   C11 8793   2.809   1.194  16.095 -0.5765  0.2914 -0.3655
   6823SM  H11A 8794   2.790   1.301  16.121  2.6388  0.4754  1.7844
   6823SM  H11B 8795   2.746   1.169  16.007  0.2220  1.4433 -1.3077
   6823SM     P 8796   2.998   1.051  15.990  0.1643  0.1054 -0.1108
   6823SM   O13 8797   3.141   1.031  15.978 -0.3312 -0.1359  0.0641
   6823SM   O14 8798   2.916   0.939  16.036  0.3704 -0.2387  0.0235
   6823SM   O11 8799   2.941   1.094  15.855 -0.7087  0.0257 -0.7122
   6823SM   O12 8800   2.949   1.177  16.073 -0.0125  0.0570 -0.8469
   6823SM   C1S 8801   2.978   1.224  15.801  0.2809 -0.7636  0.1727
   6823SM   H1S 8802   3.076   1.257  15.840  1.2427 -3.0757 -0.1186
   6823SM   H1T 8803   2.899   1.295  15.835  1.0456  0.2113 -0.0521
   6823SM    NF 8804   3.048   1.337  15.597  0.5643 -0.0173  0.3259
   6823SM   HNF 8805   2.991   1.417  15.582 -0.5785 -0.8573  0.1137
   6823SM   C2S 8806   2.977   1.221  15.646  0.3039 -0.4817  0.3461
   6823SM   H2S 8807   3.032   1.131  15.609  1.1612  0.3083 -0.3579
   6823SM   C3S 8808   2.829   1.214  15.591 -0.6169 -0.1562 -0.2998
   6823SM   H3S 8809   2.782   1.310  15.621  0.0990 -0.2935  1.3653
   6823SM    O3 8810   2.752   1.126  15.669  0.3154 -0.0200  0.1497
   6823SM   HO3 8811   2.815   1.107  15.738 -1.5792 -2.8403  1.3061
   6823SM   C4S 8812   2.802   1.198  15.448 -0.0870 -0.1378  0.6390
   6823SM   H4S 8813   2.807   1.295  15.396  2.1493 -1.5041 -1.9904
   6823SM   C5S 8814   2.788   1.078  15.386 -0.1054  0.4466 -0.3921
   6823SM   H5S 8815   2.813   0.983  15.436  0.9108 -0.4532 -2.4417
   6823SM   C6S 8816   2.755   1.058  15.242 -0.0650 -0.1935  0.1651
   6823SM   H6S 8817   2.752   1.152  15.182  0.4791 -1.6144 -2.2076
   6823SM   H6T 8818   2.657   1.006  15.237 -1.1974  1.8077  0.1720
   6823SM   C7S 8819   2.855   0.971  15.172  0.2746 -0.2845 -0.2401
   6823SM   H7S 8820   2.821   0.870  15.204 -1.5052  1.0941  2.5887
   6823SM   H7T 8821   2.958   0.992  15.207  0.0612  0.9385 -0.2997
   6823SM   C8S 8822   2.857   0.999  15.024 -0.0577  0.0765  0.5599
   6823SM   H8S 8823   2.863   1.107  15.000 -0.4025 -0.2229 -0.9774
   6823SM   H8T 8824   2.767   0.956  14.977  1.2535 -0.5511 -1.5233
   6823SM   C9S 8825   2.967   0.921  14.955 -0.4726 -0.0727 -0.1055
   6823SM   H9S 8826   2.968   0.822  15.005 -1.5374  1.4153  3.0740
   6823SM   H9T 8827   3.059   0.979  14.976 -0.7649  0.5000 -0.4110
   6823SM  C10S 8828   2.945   0.917  14.802 -0.4807 -0.1459 -0.9640
   6823SM  H10S 8829   2.849   0.862  14.787 -1.2699 -0.0026  2.5941
   6823SM  H10T 8830   3.030   0.874  14.745  0.1034 -1.2412  0.6437
   6823SM  C11S 8831   2.897   1.053  14.742  0.4914 -0.2282 -0.0940
   6823SM  H11S 8832   2.918   1.135  14.814  0.6006  0.0587 -0.4519
   6823SM  H11T 8833   2.789   1.042  14.718  0.2752 -0.4907  0.9198
   6823SM  C12S 8834   2.972   1.087  14.613  1.1314  0.4853 -0.4034
   6823SM  H12S 8835   2.907   1.166  14.569  1.8791  2.0231  1.1128
   6823SM  H12T 8836   2.952   1.000  14.547 -0.7004  0.9577 -0.5148
   6823SM  C13S 8837   3.119   1.121  14.626 -0.2088  0.0198  0.5764
   6823SM  H13S 8838   3.185   1.051  14.681 -0.2320 -0.3893  0.0911
   6823SM  H13T 8839   3.125   1.220  14.676 -0.6379 -0.0730  0.8139
   6823SM  C14S 8840   3.190   1.145  14.488  0.0890  0.8498 -0.4510
   6823SM  H14S 8841   3.189   1.057  14.420 -0.3574  1.6354 -1.4871
   6823SM  H14T 8842   3.292   1.168  14.525  0.4540  0.9472 -1.4848
   6823SM  C15S 8843   3.139   1.264  14.408  0.3918 -0.1564 -0.0271
   6823SM  H15S 8844   3.151   1.346  14.482 -0.0431 -0.4776  0.4099
   6823SM  H15T 8845   3.033   1.243  14.379  0.2752  0.5736 -0.1357
   6823SM  C16S 8846   3.217   1.268  14.277  0.3447  0.4375 -0.5458
   6823SM  H16S 8847   3.192   1.182  14.210  2.1583 -1.4233  1.0042
   6823SM  H16T 8848   3.327   1.254  14.277  0.2265 -1.0021  1.7024
   6823SM  C17S 8849   3.196   1.400  14.198 -0.4266  0.0241  0.9752
   6823SM  H17S 8850   3.255   1.480  14.247  0.7022  0.5414 -1.1177
   6823SM  H17T 8851   3.094   1.442  14.209 -0.9362 -1.0827  0.6008
   6823SM  C18S 8852   3.236   1.394  14.048  0.0983 -0.0282 -0.0040
   6823SM  H18S 8853   3.235   1.493  13.998 -0.7198  0.8643  1.7213
   6823SM  H18T 8854   3.166   1.327  13.993  1.3293 -0.4797 -1.0924
   6823SM  H18U 8855   3.339   1.355  14.032  0.2264  0.0727  0.5658
   6823SM   C1F 8856   3.185   1.352  15.607 -0.2092 -0.3611  0.0131
   6823SM    OF 8857   3.261   1.258  15.634 -0.0192  0.0116  0.5247
   6823SM   C2F 8858   3.238   1.492  15.581  0.4864 -0.2760 -0.3911
   6823SM   H2F 8859   3.265   1.542  15.677 -3.5686  0.2465  0.6617
   6823SM   H2G 8860   3.161   1.553  15.529 -0.2184 -0.7971  0.0237
   6823SM   C3F 8861   3.361   1.499  15.486  0.5775  0.0573 -0.0762
   6823SM   H3F 8862   3.341   1.422  15.408 -1.4410  1.2946 -0.8654
   6823SM   H3G 8863   3.452   1.468  15.541 -1.1946 -2.9055  1.4196
   6823SM   C4F 8864   3.378   1.637  15.431 -0.5467 -0.2066  0.0205
   6823SM   H4F 8865   3.409   1.695  15.521 -3.3801  0.8556  0.4228
   6823SM   H4G 8866   3.279   1.681  15.407  0.1091  0.7987 -0.9173
   6823SM   C5F 8867   3.473   1.639  15.310 -0.0088 -0.0677  0.3249
   6823SM   H5F 8868   3.573   1.601  15.340  1.8153  3.3422 -0.9446
   6823SM   H5G 8869   3.470   1.743  15.273 -0.3033 -0.9228 -2.2795
   6823SM   C6F 8870   3.428   1.540  15.199  0.9514 -0.2079 -0.1635
   6823SM   H6F 8871   3.324   1.574  15.177  1.1453 -0.5984 -1.7515
   6823SM   H6G 8872   3.431   1.434  15.233  0.3233  0.2514  1.3974
   6823SM   C7F 8873   3.507   1.553  15.074 -0.0889 -0.1543 -0.0141
   6823SM   H7F 8874   3.608   1.507  15.085 -0.4968 -0.6243  1.9946
   6823SM   H7G 8875   3.529   1.662  15.067 -0.7624 -0.0262 -0.1287
   6823SM   C8F 8876   3.434   1.489  14.953 -0.1980  0.3809 -0.1478
   6823SM   H8F 8877   3.329   1.524  14.941 -1.3907 -2.7538  0.3502
   6823SM   H8G 8878   3.450   1.380  14.963  0.9789  0.6076  0.5897
   6823SM   C9F 8879   3.504   1.524  14.819 -0.1313 -0.5598 -0.1876
   6823SM   H9F 8880   3.611   1.495  14.819 -0.0959 -0.4926  1.1403
   6823SM   H9G 8881   3.515   1.634  14.809  2.1184 -0.6888  0.4016
   6823SM  C10F 8882   3.418   1.461  14.703  0.5325  0.5746 -0.0284
   6823SM  H10F 8883   3.315   1.502  14.700 -0.1484 -1.0604 -0.2405
   6823SM  H10G 8884   3.409   1.354  14.732 -2.6008  0.6873 -0.3389
   6823SM  C11F 8885   3.485   1.463  14.563  0.5275 -0.0441 -0.2115
   6823SM  H11F 8886   3.413   1.406  14.501  1.4978  0.7442 -2.1542
   6823SM  H11G 8887   3.578   1.404  14.578 -0.9472 -2.4636  0.0281
   6823SM  C12F 8888   3.510   1.600  14.500 -0.0213 -0.1882 -0.9281
   6823SM  H12F 8889   3.585   1.657  14.558 -0.9657  0.8807 -0.7213
   6823SM  H12G 8890   3.412   1.649  14.518 -0.8496 -2.9293  3.6544
   6823SM  C13F 8891   3.556   1.596  14.355 -0.2018  0.3737 -0.3802
   6823SM  H13F 8892   3.479   1.569  14.280  0.0462 -0.8473 -0.2179
   6823SM  H13G 8893   3.606   1.497  14.350 -0.6571  0.1428 -0.3651
   6823SM  C14F 8894   3.614   1.726  14.298  0.2095 -0.6002 -0.5628
   6823SM  H14F 8895   3.685   1.767  14.373  0.4135 -1.0136 -0.5223
   6823SM  H14G 8896   3.538   1.806  14.300  0.0809 -0.7375  0.3711
   6823SM  C15F 8897   3.672   1.722  14.159 -0.0580  0.3661  0.5604
   6823SM  H15F 8898   3.596   1.695  14.083  0.9708 -0.2849 -0.2646
   6823SM  H15G 8899   3.754   1.647  14.165 -2.4008 -2.2351  2.4900
   6823SM  C16F 8900   3.727   1.859  14.127 -0.1091  0.6812  1.0616
   6823SM  H16F 8901   3.795   1.884  14.211  1.0797 -1.3061  0.7482
   6823SM  H16G 8902   3.649   1.935  14.107  0.6888  1.1015 -0.6691
   6823SM  C17F 8903   3.814   1.846  14.000 -0.5595  0.4778 -0.0041
   6823SM  H17F 8904   3.751   1.824  13.912 -1.5113 -0.6143  0.9216
   6823SM  H17G 8905   3.893   1.768  14.001  0.2670  1.2249 -1.9076
   6823SM  C18F 8906   3.901   1.977  13.976  1.3035  0.8468  0.0527
   6823SM  H18F 8907   3.992   1.994  14.036  1.7060 -1.3000  0.1415
   6823SM  H18G 8908   3.834   2.065  13.983 -0.3512 -0.3085 -0.4065
   6823SM  C19F 8909   3.954   1.969  13.829 -0.3682 -0.0890 -0.5168
   6823SM  H19F 8910   3.866   1.977  13.760 -0.2749 -0.7659 -0.7228
   6823SM  H19G 8911   4.000   1.873  13.801 -0.6945 -0.3519 -0.1535
   6823SM  C20F 8912   4.040   2.093  13.789 -0.2623  0.0005 -0.0096
   6823SM  H20F 8913   4.133   2.088  13.849 -0.9302 -0.2618  1.0339
   6823SM  H20G 8914   3.981   2.184  13.814 -0.8723  0.1712 -1.9202
   6823SM  C21F 8915   4.069   2.101  13.632  0.4368  0.1704  0.0394
   6823SM  H21F 8916   3.976   2.105  13.571  1.2946 -3.5786 -1.8044
   6823SM  H21G 8917   4.120   2.004  13.611 -0.3292  0.0150 -1.1377
   6823SM  C22F 8918   4.168   2.214  13.605  0.2516 -0.2308 -0.2596
   6823SM  H22F 8919   4.253   2.202  13.675  0.6297  0.3746 -0.6082
   6823SM  H22G 8920   4.122   2.312  13.627  0.1355 -0.9274  3.1873
   6823SM  C23F 8921   4.209   2.209  13.456 -0.0571 -0.3335 -0.3277
   6823SM  H23F 8922   4.140   2.270  13.394  1.5356  1.9691  0.0171
   6823SM  H23G 8923   4.208   2.104  13.420  1.4529 -0.8671  1.0659
   6823SM  H23H 8924   4.313   2.242  13.435  0.9955 -2.9755  0.3694
   6923SM     N 8925   6.550   2.529  16.191 -0.7472 -0.5541 -0.4451
   6923SM   C15 8926   6.589   2.633  16.087 -0.2993  0.1068  0.3758
   6923SM  H15A 8927   6.636   2.723  16.123 -0.8783  0.6475 -0.2167
   6923SM  H15B 8928   6.496   2.666  16.045  0.6032 -0.5621 -2.3625
   6923SM  H15C 8929   6.642   2.590  16.004 -0.5249 -0.8830  0.7292
   6923SM   C14 8930   6.670   2.477  16.256 -0.0736  0.4849 -0.1436
   6923SM  H14A 8931   6.738   2.549  16.300  0.4858  0.1006 -0.3834
   6923SM  H14B 8932   6.739   2.428  16.190  0.5649  2.5588 -1.1071
   6923SM  H14C 8933   6.642   2.410  16.336 -0.5145 -0.2945 -0.9468
   6923SM   C13 8934   6.470   2.602  16.296 -0.1372  0.7166 -0.3674
   6923SM  H13A 8935   6.385   2.654  16.256  1.6066  3.5042 -0.7225
   6923SM  H13B 8936   6.526   2.681  16.344  0.5706  0.8903 -1.4265
   6923SM  H13C 8937   6.428   2.538  16.372  0.0817  2.5368  1.3686
   6923SM   C12 8938   6.472   2.411  16.131 -0.1684 -0.8001  0.1686
   6923SM  H12A 8939   6.443   2.341  16.208 -1.2380  0.1174  0.6264
   6923SM  H12B 8940   6.538   2.353  16.068  1.0640 -0.6037  1.2247
   6923SM   C11 8941   6.341   2.441  16.059 -0.0749  0.1544  0.4053
   6923SM  H11A 8942   6.310   2.345  16.012 -1.8785 -0.0685  1.9225
   6923SM  H11B 8943   6.349   2.511  15.974 -0.6631  0.6046  0.7175
   6923SM     P 8944   6.147   2.393  16.225 -0.3982  0.0610  0.1947
   6923SM   O13 8945   6.218   2.261  16.235  0.4711 -0.6577  0.5519
   6923SM   O14 8946   6.112   2.445  16.359  0.1730 -0.4639  0.3679
   6923SM   O11 8947   6.014   2.380  16.138 -0.5452 -0.2590 -0.3993
   6923SM   O12 8948   6.245   2.495  16.154 -0.4326  0.1045  0.6855
   6923SM   C1S 8949   5.942   2.494  16.096 -0.0480 -0.2486  0.6948
   6923SM   H1S 8950   6.003   2.586  16.114 -0.2947 -0.1335  0.9580
   6923SM   H1T 8951   5.849   2.497  16.158  1.0599 -0.0532  2.4267
   6923SM    NF 8952   5.827   2.611  15.907  0.5095  0.7735 -0.5810
   6923SM   HNF 8953   5.729   2.596  15.911  0.4304  1.1642 -1.0284
   6923SM   C2S 8954   5.910   2.491  15.943 -0.6932 -0.2514 -0.1839
   6923SM   H2S 8955   6.013   2.496  15.901  0.2901 -1.9407  1.7913
   6923SM   C3S 8956   5.846   2.361  15.907 -0.2868 -0.5114  0.6153
   6923SM   H3S 8957   5.764   2.352  15.981 -0.8678 -0.4318 -0.0083
   6923SM    O3 8958   5.926   2.250  15.935 -0.1772 -0.4433  0.2005
   6923SM   HO3 8959   5.977   2.290  16.006 -2.6101  1.1098  1.2135
   6923SM   C4S 8960   5.794   2.357  15.768  0.4594  0.2587 -0.1660
   6923SM   H4S 8961   5.855   2.396  15.685  0.3516  0.4194 -0.1691
   6923SM   C5S 8962   5.674   2.305  15.734  0.6740 -0.0222  0.3547
   6923SM   H5S 8963   5.601   2.266  15.806  0.1550  1.0471  0.4194
   6923SM   C6S 8964   5.616   2.310  15.593 -0.7179 -0.1871 -0.3700
   6923SM   H6S 8965   5.513   2.267  15.584 -1.4197  1.1161  1.0101
   6923SM   H6T 8966   5.677   2.243  15.529  0.6037 -0.0093  0.6567
   6923SM   C7S 8967   5.607   2.460  15.550 -0.2434  0.0635  0.0193
   6923SM   H7S 8968   5.710   2.495  15.527 -0.0171 -0.1733  0.6324
   6923SM   H7T 8969   5.567   2.510  15.641 -0.9978 -2.8517  1.4115
   6923SM   C8S 8970   5.525   2.487  15.427  0.6651 -0.3438  0.0101
   6923SM   H8S 8971   5.419   2.461  15.447  0.8553 -0.5957  0.7571
   6923SM   H8T 8972   5.561   2.421  15.345 -0.0220 -1.6804  0.7355
   6923SM   C9S 8973   5.515   2.638  15.387 -0.2562  0.5897 -0.6708
   6923SM   H9S 8974   5.613   2.689  15.387 -1.7418  3.6722 -1.4016
   6923SM   H9T 8975   5.461   2.697  15.463 -0.8967 -0.3664 -0.3643
   6923SM  C10S 8976   5.457   2.652  15.248  0.9966  0.0714  0.2003
   6923SM  H10S 8977   5.358   2.604  15.237  0.6389  0.9850 -0.7342
   6923SM  H10T 8978   5.527   2.604  15.176 -0.1253 -0.7458 -0.3643
   6923SM  C11S 8979   5.435   2.798  15.213 -0.9090 -0.6009 -0.2424
   6923SM  H11S 8980   5.522   2.856  15.254 -1.3448 -0.5287  0.6082
   6923SM  H11T 8981   5.336   2.837  15.244 -0.4051 -1.3257  2.5918
   6923SM  C12S 8982   5.455   2.816  15.060 -0.2602  0.4879  0.0442
   6923SM  H12S 8983   5.541   2.749  15.038  1.3276  2.9012 -1.6287
   6923SM  H12T 8984   5.483   2.916  15.022  1.6931  0.4405  1.2316
   6923SM  C13S 8985   5.337   2.763  14.973  0.4656 -0.0550 -0.4135
   6923SM  H13S 8986   5.264   2.846  14.973  0.9942  0.4167 -1.1983
   6923SM  H13T 8987   5.282   2.677  15.019 -1.3204  2.4820  2.5930
   6923SM  C14S 8988   5.383   2.732  14.828 -0.5525 -0.4908 -0.4521
   6923SM  H14S 8989   5.489   2.701  14.826 -0.5015 -0.3151 -0.4885
   6923SM  H14T 8990   5.372   2.826  14.769 -0.3477 -0.2897 -0.1706
   6923SM  C15S 8991   5.300   2.617  14.764  0.3873 -0.1555  0.8380
   6923SM  H15S 8992   5.195   2.653  14.751  0.8600  1.9064  2.2573
   6923SM  H15T 8993   5.309   2.532  14.834 -0.0861  0.9643  2.3003
   6923SM  C16S 8994   5.349   2.571  14.626  0.1208 -0.5698  0.2311
   6923SM  H16S 8995   5.322   2.650  14.552 -1.6046 -0.8975  0.4523
   6923SM  H16T 8996   5.284   2.484  14.602  0.0193 -0.5498  0.4335
   6923SM  C17S 8997   5.497   2.522  14.607 -0.2333  0.5806 -0.3917
   6923SM  H17S 8998   5.498   2.445  14.687 -2.0168  2.4654  1.5518
   6923SM  H17T 8999   5.571   2.597  14.641 -0.9512  1.1699 -0.1129
   6923SM  C18S 9000   5.528   2.463  14.469  0.4064  0.2525  0.6607
   6923SM  H18S 9001   5.461   2.378  14.443  1.5597 -0.3601 -0.3744
   6923SM  H18T 9002   5.633   2.429  14.459  0.2808 -0.4762  1.7432
   6923SM  H18U 9003   5.512   2.542  14.391 -1.2406 -1.5236 -0.9118
   6923SM   C1F 9004   5.879   2.736  15.907 -0.5800  0.0809  0.4404
   6923SM    OF 9005   5.997   2.761  15.915  0.1108 -0.5135  0.1759
   6923SM   C2F 9006   5.779   2.841  15.883 -0.0605  0.5508 -0.1840
   6923SM   H2F 9007   5.757   2.905  15.971 -0.7626  0.3571 -0.2181
   6923SM   H2G 9008   5.684   2.804  15.840  0.7842  0.9398 -2.5108
   6923SM   C3F 9009   5.835   2.938  15.769  0.5874  0.1694  0.2272
   6923SM   H3F 9010   5.938   2.978  15.783  1.6583 -1.6159 -1.9867
   6923SM   H3G 9011   5.765   3.023  15.754  1.3477  0.6947 -0.4449
   6923SM   C4F 9012   5.846   2.862  15.631  0.9022  0.0941 -0.1904
   6923SM   H4F 9013   5.742   2.826  15.613  0.1453  1.7387  0.7270
   6923SM   H4G 9014   5.919   2.778  15.632  0.0325 -0.7447  2.5397
   6923SM   C5F 9015   5.886   2.948  15.514  0.0576 -0.0870 -0.0093
   6923SM   H5F 9016   5.837   3.046  15.533 -0.6034 -0.5350  0.6362
   6923SM   H5G 9017   5.842   2.902  15.422  0.7477 -0.1875 -0.2971
   6923SM   C6F 9018   6.036   2.987  15.502 -0.3049  0.3818 -0.3210
   6923SM   H6F 9019   6.096   2.898  15.532  0.4094  0.6712 -0.8845
   6923SM   H6G 9020   6.060   3.061  15.582 -0.9169  0.0440  0.1872
   6923SM   C7F 9021   6.066   3.028  15.361  0.1409 -0.2926  0.6853
   6923SM   H7F 9022   6.038   2.951  15.285 -1.1822  1.0701 -0.2598
   6923SM   H7G 9023   6.176   3.029  15.347 -0.0355  0.5886 -0.9028
   6923SM   C8F 9024   5.985   3.140  15.296  0.4726 -0.0591 -0.1413
   6923SM   H8F 9025   6.008   3.230  15.357 -1.7275  1.1206 -0.9257
   6923SM   H8G 9026   5.879   3.118  15.318  0.1985 -1.8441 -2.7408
   6923SM   C9F 9027   6.014   3.168  15.151 -0.4976 -0.2170 -0.3029
   6923SM   H9F 9028   5.980   3.088  15.081 -0.3327  0.6656 -1.4130
   6923SM   H9G 9029   6.124   3.183  15.148 -0.4659 -0.5395 -1.0129
   6923SM  C10F 9030   5.949   3.300  15.111  0.0277 -0.3062  0.7501
   6923SM  H10F 9031   5.972   3.385  15.178 -0.9553 -0.4153  1.2302
   6923SM  H10G 9032   5.839   3.291  15.124 -0.0968  1.7536  1.5529
   6923SM  C11F 9033   5.969   3.333  14.962  0.2834 -0.0596 -0.0516
   6923SM  H11F 9034   5.914   3.254  14.906  1.8985 -0.1134 -1.6738
   6923SM  H11G 9035   6.074   3.326  14.924  0.4189 -0.5138  0.4058
   6923SM  C12F 9036   5.936   3.475  14.924  1.0161 -0.2110  0.2884
   6923SM  H12F 9037   5.982   3.547  14.995 -1.3197  0.3335  1.3193
   6923SM  H12G 9038   5.828   3.483  14.945  1.4102  0.5314  2.2444
   6923SM  C13F 9039   5.962   3.507  14.772  0.3222 -0.4936 -0.1219
   6923SM  H13F 9040   5.934   3.415  14.715  0.0825 -0.8011  0.4874
   6923SM  H13G 9041   6.069   3.522  14.747 -0.2162  1.8798 -1.2611
   6923SM  C14F 9042   5.884   3.629  14.725  0.6936 -0.0251  1.2392
   6923SM  H14F 9043   5.948   3.695  14.663 -1.2411  0.1762 -0.6594
   6923SM  H14G 9044   5.868   3.694  14.814  2.0641 -0.8320  2.1057
   6923SM  C15F 9045   5.748   3.598  14.654  0.0793 -0.0053 -0.1429
   6923SM  H15F 9046   5.690   3.692  14.644  0.1575  0.0970  0.3370
   6923SM  H15G 9047   5.693   3.529  14.722  0.8362  1.2167  1.8234
   6923SM  C16F 9048   5.773   3.526  14.523 -0.4126  0.6537  0.4483
   6923SM  H16F 9049   5.820   3.431  14.553  0.4225  1.2716  1.1586
   6923SM  H16G 9050   5.841   3.586  14.459  1.3385 -2.0491 -0.3661
   6923SM  C17F 9051   5.655   3.502  14.432 -0.2645 -0.7850 -0.5742
   6923SM  H17F 9052   5.585   3.589  14.440  0.5532 -0.1229 -0.4349
   6923SM  H17G 9053   5.612   3.409  14.474  0.1426 -0.8322 -0.2504
   6923SM  C18F 9054   5.676   3.475  14.280  0.2203  0.5296  0.1368
   6923SM  H18F 9055   5.719   3.557  14.218 -0.0004  0.4154 -0.1661
   6923SM  H18G 9056   5.574   3.455  14.242  0.6215 -0.1336 -0.6259
   6923SM  C19F 9057   5.776   3.354  14.258  0.0504 -0.2113  0.3001
   6923SM  H19F 9058   5.740   3.273  14.325 -1.7372 -0.8725 -1.3684
   6923SM  H19G 9059   5.879   3.383  14.287 -0.1359  1.3993 -0.5410
   6923SM  C20F 9060   5.785   3.308  14.118  0.5182 -0.4519  0.2255
   6923SM  H20F 9061   5.807   3.391  14.047  0.5463 -0.0403  0.7082
   6923SM  H20G 9062   5.688   3.265  14.085  1.1620 -0.8213 -1.2573
   6923SM  C21F 9063   5.893   3.200  14.101 -0.3976 -0.3683 -0.0876
   6923SM  H21F 9064   5.865   3.110  14.160  2.1013 -0.3589  1.2428
   6923SM  H21G 9065   5.988   3.229  14.149  1.3149 -2.9020 -1.6811
   6923SM  C22F 9066   5.928   3.154  13.955 -0.8565  0.1247  0.0744
   6923SM  H22F 9067   5.973   3.238  13.898  5.1046  0.1330  3.8366
   6923SM  H22G 9068   5.829   3.113  13.925 -1.2135  0.1836  1.1322
   6923SM  C23F 9069   6.028   3.046  13.948  0.3995 -0.2355  0.1148
   6923SM  H23F 9070   6.124   3.069  13.999  0.0956 -0.0372  0.5985
   6923SM  H23G 9071   6.057   3.021  13.843 -2.7921  1.5216 -1.3385
   6923SM  H23H 9072   5.988   2.955  13.997  0.2000  0.1775  0.7224
   7023SM     N 9073   5.533   2.231  16.288  1.0597  0.3613 -0.4964
   7023SM   C15 9074   5.593   2.325  16.193 -0.3795 -0.9317  0.5340
   7023SM  H15A 9075   5.586   2.425  16.231 -0.2765 -1.3839  1.7919
   7023SM  H15B 9076   5.546   2.321  16.096  0.1150 -2.3818  0.3297
   7023SM  H15C 9077   5.698   2.302  16.175 -0.4847 -2.5725  1.7126
   7023SM   C14 9078   5.618   2.226  16.415 -0.1047  0.3042 -0.5271
   7023SM  H14A 9079   5.608   2.320  16.468  1.2882  0.4275 -0.4532
   7023SM  H14B 9080   5.719   2.198  16.389  0.0664 -2.6686  2.7122
   7023SM  H14C 9081   5.574   2.143  16.468  2.1397  0.4621  1.7710
   7023SM   C13 9082   5.401   2.285  16.318 -0.0531 -0.1137  0.2947
   7023SM  H13A 9083   5.412   2.384  16.361 -0.3263 -0.0564  0.2360
   7023SM  H13B 9084   5.346   2.225  16.388  1.1412 -2.5170 -0.7171
   7023SM  H13C 9085   5.347   2.289  16.224 -0.0019 -0.3338  0.2545
   7023SM   C12 9086   5.520   2.094  16.221  0.3942  0.3288 -0.9131
   7023SM  H12A 9087   5.468   2.025  16.285 -1.1089  1.1619 -1.1769
   7023SM  H12B 9088   5.622   2.059  16.209  0.7422  1.3836 -1.2113
   7023SM   C11 9089   5.443   2.090  16.087 -0.1886 -0.7831  0.4668
   7023SM  H11A 9090   5.461   1.988  16.047  0.6106 -0.3001 -0.4308
   7023SM  H11B 9091   5.494   2.148  16.007 -1.7420  1.4504  0.9932
   7023SM     P 9092   5.229   2.178  15.972  0.2007  0.4543  0.2102
   7023SM   O13 9093   5.086   2.149  15.991 -0.2198 -0.7021 -0.8951
   7023SM   O14 9094   5.266   2.315  15.950  0.0546  0.5930  0.1900
   7023SM   O11 9095   5.273   2.095  15.844 -0.4858  0.1234 -0.9645
   7023SM   O12 9096   5.307   2.127  16.095  0.1656 -0.6518 -0.1290
   7023SM   C1S 9097   5.241   1.955  15.830 -0.1047  0.1162 -0.2591
   7023SM   H1S 9098   5.135   1.934  15.808 -0.6880 -0.6643  2.8202
   7023SM   H1T 9099   5.264   1.895  15.921  1.8963  2.3539  0.8192
   7023SM    NF 9100   5.267   1.758  15.670 -0.1711 -0.3173 -0.0081
   7023SM   HNF 9101   5.329   1.681  15.672 -2.8780 -2.6510  1.7085
   7023SM   C2S 9102   5.319   1.896  15.706  0.3995  1.1163 -0.0530
   7023SM   H2S 9103   5.292   1.959  15.618  0.2132  1.2652  0.1077
   7023SM   C3S 9104   5.472   1.894  15.734  0.7045 -0.4259  0.0235
   7023SM   H3S 9105   5.513   1.836  15.819  1.0568  1.3515  1.1160
   7023SM    O3 9106   5.518   2.027  15.761  0.3855 -0.3632 -0.4728
   7023SM   HO3 9107   5.436   2.072  15.784 -0.2831 -2.5594  1.8841
   7023SM   C4S 9108   5.540   1.843  15.608  0.8425  0.3220 -0.3953
   7023SM   H4S 9109   5.511   1.742  15.574 -0.7393  0.4425  0.5003
   7023SM   C5S 9110   5.624   1.910  15.525 -0.3532 -0.9193 -0.2559
   7023SM   H5S 9111   5.666   2.006  15.559 -1.2046 -0.9525  0.9330
   7023SM   C6S 9112   5.687   1.844  15.408  0.5435 -0.1713  0.2469
   7023SM   H6S 9113   5.692   1.733  15.419 -1.4972 -0.3122  0.1383
   7023SM   H6T 9114   5.789   1.887  15.408 -0.0541  1.3227 -1.0083
   7023SM   C7S 9115   5.630   1.899  15.277  0.3114  0.6612  0.4709
   7023SM   H7S 9116   5.636   2.010  15.273  0.9936  0.6622  1.2852
   7023SM   H7T 9117   5.524   1.865  15.269  0.3952  0.8725 -2.4400
   7023SM   C8S 9118   5.702   1.840  15.162  0.3746 -0.1178  0.4101
   7023SM   H8S 9119   5.685   1.732  15.144 -1.5671  0.4928 -1.7685
   7023SM   H8T 9120   5.811   1.857  15.179  0.6786 -0.3273 -1.1600
   7023SM   C9S 9121   5.650   1.925  15.035 -0.5405 -0.2269 -0.1792
   7023SM   H9S 9122   5.645   2.032  15.066 -0.4732 -0.4109  0.4787
   7023SM   H9T 9123   5.544   1.899  15.018 -0.3909 -0.1646 -1.2770
   7023SM  C10S 9124   5.736   1.922  14.906 -0.4313  0.0324  0.2932
   7023SM  H10S 9125   5.834   1.972  14.923 -0.3148  0.0282 -0.3314
   7023SM  H10T 9126   5.675   1.962  14.822 -1.3166 -1.2951  0.2704
   7023SM  C11S 9127   5.781   1.780  14.863  0.0287  0.2694  0.2138
   7023SM  H11S 9128   5.849   1.757  14.948  0.1773  0.5951  0.1835
   7023SM  H11T 9129   5.843   1.774  14.771  2.1163 -0.1505  1.5806
   7023SM  C12S 9130   5.672   1.674  14.870  0.5075 -0.4957 -0.0690
   7023SM  H12S 9131   5.616   1.678  14.966 -0.3105 -0.3113 -0.5472
   7023SM  H12T 9132   5.714   1.572  14.883 -2.8771 -1.7202  3.0508
   7023SM  C13S 9133   5.563   1.692  14.757  0.3724  0.3523 -0.5291
   7023SM  H13S 9134   5.604   1.666  14.657  3.0261  0.1028  0.5603
   7023SM  H13T 9135   5.532   1.798  14.758 -1.7239 -0.2099 -0.0000
   7023SM  C14S 9136   5.435   1.609  14.781  0.3244  0.0892  0.0448
   7023SM  H14S 9137   5.454   1.500  14.773 -0.0019 -0.0062  0.5349
   7023SM  H14T 9138   5.364   1.625  14.697  1.6962 -2.1036 -1.6336
   7023SM  C15S 9139   5.378   1.630  14.923 -0.1314 -0.2537  0.0564
   7023SM  H15S 9140   5.370   1.739  14.944  1.5300 -0.1272  0.2238
   7023SM  H15T 9141   5.442   1.587  15.003  1.0897 -0.0670 -0.7953
   7023SM  C16S 9142   5.230   1.592  14.943  0.1281  0.3277 -0.0288
   7023SM  H16S 9143   5.230   1.481  14.934  0.3581  0.3524 -0.3504
   7023SM  H16T 9144   5.172   1.638  14.859 -3.1435  2.3747  3.0582
   7023SM  C17S 9145   5.156   1.632  15.073 -0.2924  0.1996 -0.0654
   7023SM  H17S 9146   5.046   1.623  15.055 -0.2229  0.5204 -0.6843
   7023SM  H17T 9147   5.173   1.742  15.078  1.3428 -0.0821  1.2207
   7023SM  C18S 9148   5.196   1.581  15.204 -0.0867 -0.5217  0.4469
   7023SM  H18S 9149   5.298   1.616  15.226 -0.9613  3.0618 -0.4882
   7023SM  H18T 9150   5.198   1.470  15.213  0.9413 -0.5775 -0.2559
   7023SM  H18U 9151   5.140   1.633  15.284 -2.1683  0.7384 -1.6881
   7023SM   C1F 9152   5.138   1.731  15.634 -0.6643  0.7224  0.3249
   7023SM    OF 9153   5.070   1.818  15.584  0.0559 -0.1922  0.1637
   7023SM   C2F 9154   5.088   1.588  15.654  0.0329  0.6281 -0.6404
   7023SM   H2F 9155   4.979   1.595  15.675 -0.1918 -0.9972 -1.1883
   7023SM   H2G 9156   5.129   1.545  15.748 -0.7970 -2.9260 -1.7515
   7023SM   C3F 9157   5.095   1.478  15.540  0.1649 -0.3186  0.5539
   7023SM   H3F 9158   5.206   1.475  15.525  0.1140 -0.2252  0.1383
   7023SM   H3G 9159   5.049   1.515  15.446 -0.0438  1.3546  1.2661
   7023SM   C4F 9160   5.055   1.338  15.578 -0.7035  0.0229 -0.0070
   7023SM   H4F 9161   4.953   1.322  15.538 -0.7630  0.3205  0.0227
   7023SM   H4G 9162   5.039   1.341  15.688 -0.6005  3.2992  0.0235
   7023SM   C5F 9163   5.153   1.228  15.552 -0.3444 -0.5798 -0.1768
   7023SM   H5F 9164   5.245   1.250  15.609 -0.9374  1.6739 -0.0053
   7023SM   H5G 9165   5.183   1.241  15.445 -0.6232  0.9264 -0.0998
   7023SM   C6F 9166   5.116   1.082  15.577 -0.2904 -0.6737 -0.1215
   7023SM   H6F 9167   5.028   1.062  15.512  0.4276  1.7273 -1.9797
   7023SM   H6G 9168   5.110   1.067  15.687  1.3138 -0.3949  0.0310
   7023SM   C7F 9169   5.231   0.987  15.535  0.4194  0.9647  0.3265
   7023SM   H7F 9170   5.214   0.892  15.589 -1.3688  1.0005 -0.1198
   7023SM   H7G 9171   5.329   1.034  15.560  1.9100 -1.7879  0.0850
   7023SM   C8F 9172   5.244   0.969  15.380  0.5518 -0.8854  0.3139
   7023SM   H8F 9173   5.255   1.071  15.337 -0.1928 -1.4345 -1.2319
   7023SM   H8G 9174   5.150   0.931  15.336 -1.1032  2.5876  0.4455
   7023SM   C9F 9175   5.367   0.888  15.340 -0.2276  0.3100  0.1484
   7023SM   H9F 9176   5.373   0.788  15.389  4.3113  0.5842  0.5007
   7023SM   H9G 9177   5.450   0.950  15.378 -0.8680  0.8798  0.6432
   7023SM  C10F 9178   5.381   0.873  15.185 -0.0834  0.3978 -1.2982
   7023SM  H10F 9179   5.491   0.865  15.170  0.1227 -0.9669  0.6008
   7023SM  H10G 9180   5.342   0.960  15.129 -1.8841 -0.7174 -1.8559
   7023SM  C11F 9181   5.328   0.738  15.122 -0.1242  0.1702  0.2521
   7023SM  H11F 9182   5.219   0.725  15.138 -0.1567  0.1174  0.0015
   7023SM  H11G 9183   5.368   0.652  15.181  1.9425  0.4322 -0.6725
   7023SM  C12F 9184   5.355   0.723  14.969 -0.2825  0.0548 -0.2231
   7023SM  H12F 9185   5.285   0.645  14.932 -2.7391  2.3018 -0.6106
   7023SM  H12G 9186   5.457   0.681  14.953  0.4164  0.9847  1.5426
   7023SM  C13F 9187   5.345   0.846  14.879  0.2047  0.3694  0.1754
   7023SM  H13F 9188   5.408   0.933  14.908  0.9999  0.9596 -2.9091
   7023SM  H13G 9189   5.238   0.876  14.882 -0.0578 -0.3974 -0.9922
   7023SM  C14F 9190   5.378   0.808  14.735 -0.7006 -0.1814 -0.0419
   7023SM  H14F 9191   5.475   0.755  14.742 -0.8877 -0.3328  1.9038
   7023SM  H14G 9192   5.382   0.900  14.672 -2.4771 -0.9552 -1.3680
   7023SM  C15F 9193   5.274   0.718  14.667 -0.0101  0.4930 -0.1118
   7023SM  H15F 9194   5.177   0.768  14.647 -0.6747  0.0465  1.8321
   7023SM  H15G 9195   5.244   0.638  14.737 -1.6788  1.7458  0.6628
   7023SM  C16F 9196   5.329   0.670  14.529  0.6604  0.6875  0.0695
   7023SM  H16F 9197   5.269   0.577  14.518  0.5778  0.6890  0.4927
   7023SM  H16G 9198   5.436   0.640  14.531  1.0803  2.0933 -0.2882
   7023SM  C17F 9199   5.307   0.770  14.412 -0.0459 -0.4028  0.0260
   7023SM  H17F 9200   5.370   0.860  14.427 -1.9561  0.8418  1.1099
   7023SM  H17G 9201   5.201   0.805  14.421  0.1909  0.1219  0.9879
   7023SM  C18F 9202   5.323   0.716  14.273  0.4081  0.3043 -0.2894
   7023SM  H18F 9203   5.244   0.639  14.254  0.0358 -0.3645  3.1999
   7023SM  H18G 9204   5.421   0.664  14.273 -0.6206 -1.7423 -0.4069
   7023SM  C19F 9205   5.331   0.825  14.168  0.1407  0.4025 -0.2251
   7023SM  H19F 9206   5.422   0.885  14.187 -1.2179  1.5238  3.8205
   7023SM  H19G 9207   5.239   0.888  14.172  0.5291  1.1921 -2.4676
   7023SM  C20F 9208   5.331   0.762  14.029 -0.0324 -0.6614 -0.5312
   7023SM  H20F 9209   5.244   0.693  14.025 -1.3055  0.5519  2.7990
   7023SM  H20G 9210   5.423   0.703  14.007  0.4053 -0.0491 -0.3380
   7023SM  C21F 9211   5.320   0.874  13.926 -0.2630  0.0311  0.2195
   7023SM  H21F 9212   5.414   0.926  13.902 -0.4095 -0.9037 -2.7716
   7023SM  H21G 9213   5.246   0.949  13.961  1.9486  2.0118  0.8595
   7023SM  C22F 9214   5.276   0.819  13.788  0.4376  0.2330  0.0431
   7023SM  H22F 9215   5.315   0.718  13.764 -0.9502 -0.4942  0.7555
   7023SM  H22G 9216   5.298   0.892  13.706 -1.1114  1.2784  0.5180
   7023SM  C23F 9217   5.124   0.785  13.770  0.1464 -0.5871 -1.1970
   7023SM  H23F 9218   5.113   0.705  13.694  0.7150 -1.4896 -0.3579
   7023SM  H23G 9219   5.074   0.881  13.744 -0.3535 -0.8727 -1.3117
   7023SM  H23H 9220   5.075   0.761  13.867 -1.2704  0.6984 -1.5442
   7123SM     N 9221   4.911   0.642  16.306  0.0394 -0.3072 -0.5066
   7123SM   C15 9222   4.761   0.606  16.301  0.1902 -0.5919 -0.0080
   7123SM  H15A 9223   4.722   0.599  16.402 -0.5177 -0.2263 -0.2462
   7123SM  H15B 9224   4.738   0.519  16.241  0.1603 -1.9111  1.8200
   7123SM  H15C 9225   4.699   0.682  16.256 -0.6279 -0.8732  0.6122
   7123SM   C14 9226   4.935   0.760  16.400 -0.1136 -0.4557  0.0425
   7123SM  H14A 9227   5.038   0.775  16.432 -0.0170 -0.1694 -0.3961
   7123SM  H14B 9228   4.873   0.761  16.488  1.1604  2.8258  1.0588
   7123SM  H14C 9229   4.914   0.854  16.352  2.1526  0.5843  0.9117
   7123SM   C13 9230   4.973   0.518  16.358  0.7237  0.1187 -0.0621
   7123SM  H13A 9231   4.925   0.429  16.320  0.3224 -0.9952  2.7919
   7123SM  H13B 9232   4.943   0.522  16.462  0.6393  0.5910 -0.1028
   7123SM  H13C 9233   5.080   0.508  16.346  0.6086  1.4465 -2.8498
   7123SM   C12 9234   4.963   0.664  16.171 -0.4402 -0.1571  0.3309
   7123SM  H12A 9235   5.070   0.681  16.174 -0.3561 -0.3135 -1.1313
   7123SM  H12B 9236   4.924   0.750  16.119 -0.8533 -2.3683 -3.3598
   7123SM   C11 9237   4.925   0.554  16.057 -0.7069  0.0222 -0.3508
   7123SM  H11A 9238   4.971   0.582  15.959  0.3510  1.1620  0.4378
   7123SM  H11B 9239   4.818   0.558  16.028 -0.7107 -0.7340 -0.4453
   7123SM     P 9240   5.106   0.361  16.053 -0.2288  0.2459 -0.4747
   7123SM   O13 9241   5.204   0.465  16.093 -0.1609  0.1453 -0.4965
   7123SM   O14 9242   5.120   0.223  16.112 -0.2775 -0.0113  0.3035
   7123SM   O11 9243   5.103   0.341  15.896  0.0904 -0.0015 -0.1983
   7123SM   O12 9244   4.966   0.417  16.095 -0.8071  0.0346  0.0424
   7123SM   C1S 9245   5.044   0.233  15.820 -0.1267  0.3039 -0.9021
   7123SM   H1S 9246   4.938   0.211  15.846 -0.2297  0.6149 -1.0584
   7123SM   H1T 9247   5.101   0.138  15.835 -0.4134  0.1219 -0.9417
   7123SM    NF 9248   4.982   0.176  15.576 -0.1687 -0.1880  0.3295
   7123SM   HNF 9249   5.042   0.125  15.515  0.0149 -0.7383  0.9555
   7123SM   C2S 9250   5.048   0.274  15.667  0.2144 -0.1442 -0.6515
   7123SM   H2S 9251   4.980   0.362  15.661 -0.6923 -0.8740 -1.4369
   7123SM   C3S 9252   5.194   0.309  15.624 -0.2255  0.1737 -0.1480
   7123SM   H3S 9253   5.263   0.227  15.655  1.3513  1.3078 -0.5122
   7123SM    O3 9254   5.247   0.423  15.694 -0.0778 -0.0546  0.3717
   7123SM   HO3 9255   5.191   0.426  15.771 -1.3492 -1.8866 -0.3923
   7123SM   C4S 9256   5.209   0.320  15.470 -1.2444 -0.0298 -0.0201
   7123SM   H4S 9257   5.145   0.392  15.417  0.2623 -0.2722 -2.3264
   7123SM   C5S 9258   5.302   0.265  15.395  0.2602 -0.3347  0.2064
   7123SM   H5S 9259   5.379   0.195  15.431 -0.3290 -1.3109 -0.3999
   7123SM   C6S 9260   5.306   0.280  15.246  0.4613  0.5212  1.1908
   7123SM   H6S 9261   5.298   0.179  15.200 -0.5638  1.1119 -0.0042
   7123SM   H6T 9262   5.403   0.327  15.218  0.5491  0.1226  0.8065
   7123SM   C7S 9263   5.190   0.349  15.174  0.5811 -0.4133 -0.9343
   7123SM   H7S 9264   5.176   0.454  15.208  1.1653 -1.3721  2.7448
   7123SM   H7T 9265   5.099   0.286  15.187  1.2356 -2.0456 -3.5436
   7123SM   C8S 9266   5.199   0.337  15.021 -0.1387 -0.1370 -0.8373
   7123SM   H8S 9267   5.193   0.230  14.989  0.8748 -0.9359  1.4526
   7123SM   H8T 9268   5.296   0.379  14.987 -0.6413  3.1111  1.3579
   7123SM   C9S 9269   5.086   0.407  14.948  0.6057 -0.9509 -0.7835
   7123SM   H9S 9270   5.095   0.514  14.977  0.1009 -1.6749  2.4076
   7123SM   H9T 9271   4.993   0.356  14.981  1.2311 -1.1281  0.7767
   7123SM  C10S 9272   5.103   0.391  14.794 -0.0589  0.0910  0.4064
   7123SM  H10S 9273   5.083   0.284  14.769 -1.5928 -0.0713  2.1019
   7123SM  H10T 9274   5.208   0.410  14.763  0.0020  0.0950  0.6169
   7123SM  C11S 9275   4.993   0.463  14.711 -0.5433 -0.0548 -0.6882
   7123SM  H11S 9276   5.020   0.571  14.706  1.9441 -0.5720  0.1150
   7123SM  H11T 9277   4.897   0.464  14.767  0.3089  2.5653  0.9168
   7123SM  C12S 9278   4.979   0.409  14.574 -0.9666 -0.1657 -0.1889
   7123SM  H12S 9279   4.942   0.305  14.580 -0.5828 -0.2890  0.0572
   7123SM  H12T 9280   5.073   0.407  14.515 -0.6710 -1.2538  0.3006
   7123SM  C13S 9281   4.880   0.494  14.483 -0.3383 -0.0053 -0.5225
   7123SM  H13S 9282   4.790   0.534  14.535 -2.6697 -1.8849 -2.8090
   7123SM  H13T 9283   4.840   0.425  14.405 -0.6174  0.1703 -0.5376
   7123SM  C14S 9284   4.952   0.609  14.413  0.7274  0.1149  0.3087
   7123SM  H14S 9285   5.053   0.573  14.383  1.9408  2.5632  1.2144
   7123SM  H14T 9286   4.975   0.685  14.491 -0.7323  0.9816 -0.0751
   7123SM  C15S 9287   4.878   0.659  14.289  0.1724  0.4883 -0.8001
   7123SM  H15S 9288   4.778   0.688  14.329  0.7475  0.3614  0.8398
   7123SM  H15T 9289   4.868   0.580  14.212 -2.4426 -2.7446  2.4844
   7123SM  C16S 9290   4.949   0.787  14.234  0.1379  0.4544  0.3923
   7123SM  H16S 9291   5.045   0.748  14.196  0.5119  2.6339 -1.0104
   7123SM  H16T 9292   4.980   0.848  14.322  1.1047  0.6898 -0.0987
   7123SM  C17S 9293   4.877   0.858  14.129  0.3584 -0.6586 -0.0016
   7123SM  H17S 9294   4.783   0.905  14.164  1.4920  1.4097  0.4440
   7123SM  H17T 9295   4.831   0.786  14.058  0.3276  1.1522 -1.9038
   7123SM  C18S 9296   4.958   0.972  14.058  0.0350 -0.4458 -0.2017
   7123SM  H18S 9297   5.033   0.920  13.995 -0.2751  0.0742 -1.0243
   7123SM  H18T 9298   4.999   1.050  14.126  0.6246  0.0443 -1.0827
   7123SM  H18U 9299   4.887   1.017  13.985 -1.8174 -2.4663  0.2746
   7123SM   C1F 9300   4.854   0.152  15.591 -0.0001 -0.3009 -0.0013
   7123SM    OF 9301   4.776   0.217  15.665  0.0674  0.2205 -0.3209
   7123SM   C2F 9302   4.798   0.047  15.502 -0.0772  0.0769  0.3328
   7123SM   H2F 9303   4.877   0.035  15.425 -0.6818 -1.0918 -0.1283
   7123SM   H2G 9304   4.704   0.069  15.448 -0.3389 -1.7960 -0.0554
   7123SM   C3F 9305   4.786  -0.084  15.585 -0.7646 -0.1489  0.2142
   7123SM   H3F 9306   4.733  -0.155  15.517  1.6448  0.5240 -2.5475
   7123SM   H3G 9307   4.710  -0.064  15.664  0.0333  3.1647  0.2887
   7123SM   C4F 9308   4.916  -0.161  15.625 -0.5058 -0.0851 -0.2599
   7123SM   H4F 9309   4.992  -0.095  15.670  0.8077 -1.0572 -0.9654
   7123SM   H4G 9310   4.962  -0.198  15.531  1.5577  1.2391  0.1718
   7123SM   C5F 9311   4.886  -0.291  15.700  0.2764 -0.5229  0.2539
   7123SM   H5F 9312   4.798  -0.341  15.654  0.6834 -0.9515 -0.0748
   7123SM   H5G 9313   4.855  -0.264  15.803  2.9128 -1.2566  1.3329
   7123SM   C6F 9314   5.005  -0.379  15.700 -0.1527  1.4256 -0.0384
   7123SM   H6F 9315   4.993  -0.449  15.785 -1.0159  0.3092 -1.0497
   7123SM   H6G 9316   5.101  -0.326  15.717  2.5694 -3.6560  2.5818
   7123SM   C7F 9317   5.029  -0.475  15.584  0.1786 -0.3839 -0.6433
   7123SM   H7F 9318   5.138  -0.474  15.562  0.6271  0.4795  1.3488
   7123SM   H7G 9319   4.984  -0.430  15.493  0.2483 -1.0342 -1.0028
   7123SM   C8F 9320   4.974  -0.618  15.599 -0.7098 -0.0376 -0.2378
   7123SM   H8F 9321   4.873  -0.625  15.645 -1.1922  0.4439 -1.2075
   7123SM   H8G 9322   5.035  -0.668  15.678  1.8484 -0.3829 -2.3035
   7123SM   C9F 9323   4.975  -0.694  15.469 -0.1568 -0.0854  0.4111
   7123SM   H9F 9324   5.059  -0.767  15.468 -1.0125 -1.1042 -0.7991
   7123SM   H9G 9325   4.980  -0.625  15.382 -0.5707 -0.9734 -0.3417
   7123SM  C10F 9326   4.842  -0.769  15.445 -0.0419 -0.7171  0.4619
   7123SM  H10F 9327   4.759  -0.696  15.454  0.7659  0.5385 -1.5718
   7123SM  H10G 9328   4.830  -0.843  15.528 -4.4430  0.9720  1.6308
   7123SM  C11F 9329   4.824  -0.844  15.315 -0.2348  0.4087  0.6709
   7123SM  H11F 9330   4.857  -0.770  15.240 -2.4579  1.9894  1.1493
   7123SM  H11G 9331   4.717  -0.864  15.291  0.3205 -1.2006 -0.7237
   7123SM  C12F 9332   4.915  -0.970  15.309 -0.4933  0.0840  0.9464
   7123SM  H12F 9333   4.861  -1.042  15.373  0.9435  0.0549  2.1708
   7123SM  H12G 9334   5.005  -0.941  15.368 -0.5627 -1.2904  1.7555
   7123SM  C13F 9335   4.942  -1.027  15.171 -0.8917 -0.2798 -0.0031
   7123SM  H13F 9336   5.007  -0.966  15.104  1.6196 -3.5251 -0.7608
   7123SM  H13G 9337   4.848  -1.035  15.112 -0.2251  1.3080 -1.3620
   7123SM  C14F 9338   5.013  -1.161  15.178  0.7508 -0.7726 -0.4231
   7123SM  H14F 9339   4.942  -1.239  15.213 -0.2111 -0.3100 -1.2783
   7123SM  H14G 9340   5.103  -1.164  15.243 -1.2094 -1.9550  2.4699
   7123SM  C15F 9341   5.047  -1.196  15.032 -0.2653 -0.0866 -0.1245
   7123SM  H15F 9342   5.132  -1.134  14.997  0.6960 -0.8430  0.7864
   7123SM  H15G 9343   4.962  -1.171  14.966  0.3576 -0.8983 -1.2855
   7123SM  C16F 9344   5.081  -1.340  15.015 -0.0950 -0.0410  0.3190
   7123SM  H16F 9345   4.998  -1.394  15.065 -1.3567  2.0702  0.5810
   7123SM  H16G 9346   5.175  -1.362  15.071  0.7742 -0.0769 -1.0909
   7123SM  C17F 9347   5.098  -1.389  14.876 -0.1300  0.4031  0.1351
   7123SM  H17F 9348   5.006  -1.426  14.827 -0.0191  0.6636 -0.2710
   7123SM  H17G 9349   5.165  -1.478  14.878 -0.1571  0.3819  1.9199
   7123SM  C18F 9350   5.162  -1.287  14.781 -0.6323  0.8162 -0.1157
   7123SM  H18F 9351   5.250  -1.241  14.831 -1.5302  0.9031  1.4459
   7123SM  H18G 9352   5.084  -1.211  14.762 -1.8261 -0.6472 -1.3330
   7123SM  C19F 9353   5.200  -1.340  14.635  0.4923  0.0353 -0.2107
   7123SM  H19F 9354   5.286  -1.410  14.647  1.7429  1.7478  1.4413
   7123SM  H19G 9355   5.233  -1.254  14.574 -1.6003  0.7756 -0.3640
   7123SM  C20F 9356   5.078  -1.410  14.572  0.1002  0.1987  0.4838
   7123SM  H20F 9357   4.997  -1.334  14.575 -0.3565 -0.3021  1.0158
   7123SM  H20G 9358   5.038  -1.488  14.640  0.1162  0.3440  0.6620
   7123SM  C21F 9359   5.076  -1.475  14.432  0.1042  0.1486 -0.0662
   7123SM  H21F 9360   5.147  -1.560  14.434  1.7856  1.4337 -2.0009
   7123SM  H21G 9361   5.120  -1.406  14.357  2.6680  1.2271  2.2385
   7123SM  C22F 9362   4.935  -1.530  14.393  0.6250  0.5626  0.3448
   7123SM  H22F 9363   4.896  -1.590  14.477  1.1949 -1.3660 -0.7049
   7123SM  H22G 9364   4.973  -1.601  14.316  0.3180 -1.2691  1.8014
   7123SM  C23F 9365   4.841  -1.428  14.336  0.1515  0.2582  0.1381
   7123SM  H23F 9366   4.819  -1.348  14.410 -0.5620  1.8631 -1.6901
   7123SM  H23G 9367   4.741  -1.468  14.310 -0.3207  1.4806 -0.0352
   7123SM  H23H 9368   4.882  -1.383  14.243  0.4827  0.6514  0.4694
   7223SM     N 9369   6.323   3.132  16.399 -0.4453  0.1258  0.0643
   7223SM   C15 9370   6.447   3.220  16.422 -0.0042  0.7218 -0.6385
   7223SM  H15A 9371   6.505   3.239  16.334  0.2059  0.6773 -0.5091
   7223SM  H15B 9372   6.522   3.168  16.480  0.7910  1.4396 -1.0065
   7223SM  H15C 9373   6.418   3.318  16.455 -2.4479 -0.0128 -0.3812
   7223SM   C14 9374   6.352   3.001  16.459  0.3100 -0.3898 -0.4752
   7223SM  H14A 9375   6.374   3.006  16.564  2.3135 -2.9888 -0.6496
   7223SM  H14B 9376   6.447   2.967  16.420 -0.5006 -1.7926 -1.3220
   7223SM  H14C 9377   6.270   2.932  16.440  2.1153 -2.2120 -2.3281
   7223SM   C13 9378   6.213   3.189  16.477  0.5035  0.4953 -0.0397
   7223SM  H13A 9379   6.169   3.280  16.441 -1.0824  0.2983  1.2778
   7223SM  H13B 9380   6.234   3.200  16.582 -0.5835 -0.3302  0.2848
   7223SM  H13C 9381   6.128   3.122  16.471 -0.0372  1.0111  1.3228
   7223SM   C12 9382   6.283   3.118  16.254 -0.0688 -0.4902  0.5381
   7223SM  H12A 9383   6.241   3.214  16.229  2.2844  0.6084  0.5198
   7223SM  H12B 9384   6.202   3.047  16.249 -0.9313  0.4368  0.9336
   7223SM   C11 9385   6.388   3.069  16.149  0.0095 -0.2858 -0.4470
   7223SM  H11A 9386   6.330   3.068  16.055 -2.0233  0.5610  0.7253
   7223SM  H11B 9387   6.408   2.962  16.169  1.8388 -0.0204 -0.6387
   7223SM     P 9388   6.532   3.274  16.049 -0.3694 -0.1285  0.3965
   7223SM   O13 9389   6.415   3.362  16.035  0.1748  0.2719  0.6363
   7223SM   O14 9390   6.654   3.338  16.104  0.1111 -0.6451  0.1811
   7223SM   O11 9391   6.573   3.216  15.907  0.4436 -0.1097  0.1035
   7223SM   O12 9392   6.502   3.151  16.149 -0.5958  0.8659  0.8425
   7223SM   C1S 9393   6.579   3.081  15.865 -0.3963  0.2038  0.1723
   7223SM   H1S 9394   6.487   3.021  15.880 -0.8913  0.6989 -0.8514
   7223SM   H1T 9395   6.653   3.022  15.924 -1.6042  0.0480  1.5871
   7223SM    NF 9396   6.585   2.929  15.678 -0.0845 -0.0782 -0.4907
   7223SM   HNF 9397   6.671   2.879  15.691  0.0666  0.5294  1.0896
   7223SM   C2S 9398   6.603   3.068  15.718  0.1212 -0.2212  0.6053
   7223SM   H2S 9399   6.524   3.136  15.679  0.9391  0.1995 -0.3962
   7223SM   C3S 9400   6.736   3.132  15.678 -0.3468 -0.1484  0.0409
   7223SM   H3S 9401   6.815   3.069  15.724  0.6125  1.7058  1.0328
   7223SM    O3 9402   6.763   3.261  15.727  0.2301 -1.0266  0.3008
   7223SM   HO3 9403   6.690   3.292  15.782  1.3630  1.5960  0.5120
   7223SM   C4S 9404   6.755   3.127  15.526 -0.6670  0.1271  0.0422
   7223SM   H4S 9405   6.704   3.208  15.473  1.5908  1.3283 -0.4221
   7223SM   C5S 9406   6.840   3.046  15.461 -0.4039 -0.4292 -0.0389
   7223SM   H5S 9407   6.898   2.973  15.519  1.0802  0.6822 -0.0514
   7223SM   C6S 9408   6.870   3.055  15.313 -0.2406 -0.8663  0.3068
   7223SM   H6S 9409   6.979   3.048  15.292 -0.2121 -2.8954  0.9325
   7223SM   H6T 9410   6.846   3.158  15.278 -0.2805 -0.3106  1.8902
   7223SM   C7S 9411   6.781   2.942  15.247 -0.3985 -0.7963  0.4011
   7223SM   H7S 9412   6.672   2.960  15.244 -0.2023  0.5167  0.3082
   7223SM   H7T 9413   6.791   2.853  15.313 -0.2126  1.0178  2.9893
   7223SM   C8S 9414   6.827   2.917  15.103  0.3712 -0.3616 -0.3171
   7223SM   H8S 9415   6.760   2.841  15.058 -1.7285 -0.1891  2.2358
   7223SM   H8T 9416   6.933   2.883  15.103  1.1291  1.7461 -1.9589
   7223SM   C9S 9417   6.823   3.046  15.012  0.3031 -0.1217 -0.0358
   7223SM   H9S 9418   6.913   3.105  15.038  3.7139 -3.2684 -3.4458
   7223SM   H9T 9419   6.722   3.090  15.028  0.9604  1.3377  0.1575
   7223SM  C10S 9420   6.840   3.014  14.860 -0.7005 -0.5191  0.6120
   7223SM  H10S 9421   6.783   2.920  14.844  1.4208 -1.8592  0.5313
   7223SM  H10T 9422   6.947   2.990  14.844 -1.1299 -1.4703 -1.0896
   7223SM  C11S 9423   6.797   3.128  14.761  0.1578 -0.4495  1.1520
   7223SM  H11S 9424   6.817   3.232  14.792 -0.2091  0.4902 -1.4818
   7223SM  H11T 9425   6.687   3.114  14.750  0.5931 -3.1162 -0.8346
   7223SM  C12S 9426   6.850   3.121  14.615 -0.0882  0.6553 -0.5006
   7223SM  H12S 9427   6.955   3.159  14.615 -0.6592  2.5600  2.1893
   7223SM  H12T 9428   6.794   3.191  14.550  0.1720  1.9127  0.5866
   7223SM  C13S 9429   6.844   2.977  14.556  0.0746  0.3553  0.3476
   7223SM  H13S 9430   6.737   2.950  14.544  0.2517 -0.3948  0.4134
   7223SM  H13T 9431   6.891   2.913  14.633  0.4042  0.9573  0.6501
   7223SM  C14S 9432   6.910   2.973  14.418  0.5742 -0.4388 -0.1674
   7223SM  H14S 9433   7.020   2.965  14.422  0.5584 -0.7071 -0.2704
   7223SM  H14T 9434   6.880   3.064  14.361  2.5802  1.3277  1.4453
   7223SM  C15S 9435   6.880   2.847  14.331 -0.2897  0.4077  0.6322
   7223SM  H15S 9436   6.935   2.862  14.235 -1.4806 -2.4604 -0.5955
   7223SM  H15T 9437   6.770   2.847  14.316 -0.0538 -1.0921 -1.5024
   7223SM  C16S 9438   6.935   2.719  14.398  0.0553 -0.3765  0.3858
   7223SM  H16S 9439   6.887   2.714  14.498 -2.0015  1.5229 -0.4091
   7223SM  H16T 9440   7.043   2.737  14.415 -0.3419  1.6099  1.0615
   7223SM  C17S 9441   6.914   2.593  14.319  0.2051 -0.2735 -0.5070
   7223SM  H17S 9442   6.981   2.511  14.352  1.0171  0.9656  1.0440
   7223SM  H17T 9443   6.957   2.602  14.217  0.5617  0.9944 -0.2677
   7223SM  C18S 9444   6.767   2.550  14.304  0.2976 -0.0863  0.5618
   7223SM  H18S 9445   6.728   2.546  14.409  2.2062  1.6161  1.4013
   7223SM  H18T 9446   6.762   2.452  14.251  0.8781 -1.6978  3.2522
   7223SM  H18U 9447   6.697   2.622  14.256  0.0014 -1.5869 -1.3682
   7223SM   C1F 9448   6.465   2.882  15.653 -0.2619 -0.0324  0.9925
   7223SM    OF 9449   6.363   2.952  15.660 -0.2188 -0.2988 -0.5715
   7223SM   C2F 9450   6.446   2.736  15.612 -0.0275 -0.3883  0.4916
   7223SM   H2F 9451   6.413   2.673  15.697  0.8072 -0.0889  1.0534
   7223SM   H2G 9452   6.541   2.686  15.583 -0.1437 -0.4942  0.2899
   7223SM   C3F 9453   6.357   2.717  15.486  0.3020  0.1566  0.1894
   7223SM   H3F 9454   6.248   2.732  15.500  0.3517  0.1942  0.5298
   7223SM   H3G 9455   6.381   2.612  15.458  0.5673  0.4616 -0.7798
   7223SM   C4F 9456   6.396   2.800  15.365  0.8797 -0.1412  0.2012
   7223SM   H4F 9457   6.502   2.774  15.342  0.6133  0.1847 -1.4974
   7223SM   H4G 9458   6.384   2.905  15.397  0.7552  0.0535 -0.4662
   7223SM   C5F 9459   6.315   2.769  15.237  0.1920 -0.3131 -0.1171
   7223SM   H5F 9460   6.223   2.828  15.255 -1.4901 -3.3399  2.1378
   7223SM   H5G 9461   6.283   2.663  15.241 -1.4707  0.1783  0.7599
   7223SM   C6F 9462   6.389   2.781  15.108 -0.6644 -0.4882  0.0735
   7223SM   H6F 9463   6.479   2.716  15.105 -0.2849  0.0611 -0.6297
   7223SM   H6G 9464   6.423   2.886  15.099  1.8631 -1.1410  1.2734
   7223SM   C7F 9465   6.295   2.746  14.989 -0.1861  0.6153 -0.5119
   7223SM   H7F 9466   6.215   2.822  14.995  1.4471  2.3053  1.4561
   7223SM   H7G 9467   6.254   2.644  15.005 -0.4579  0.3934 -2.3301
   7223SM   C8F 9468   6.371   2.752  14.857  0.3183  0.0420 -0.3142
   7223SM   H8F 9469   6.481   2.742  14.864  0.6328  2.2229 -1.1398
   7223SM   H8G 9470   6.351   2.843  14.797  1.2682  1.1031  0.9295
   7223SM   C9F 9471   6.337   2.631  14.764  0.0235  0.0628 -0.7816
   7223SM   H9F 9472   6.231   2.649  14.736 -1.0154  0.2329  2.7537
   7223SM   H9G 9473   6.343   2.535  14.819 -0.5936  0.3894 -0.1263
   7223SM  C10F 9474   6.424   2.617  14.634 -0.3380 -0.4038  0.2219
   7223SM  H10F 9475   6.517   2.564  14.664  0.0984 -0.0856 -0.5312
   7223SM  H10G 9476   6.444   2.714  14.585 -1.9114 -0.4691 -0.6297
   7223SM  C11F 9477   6.364   2.532  14.522  0.5353  0.2231 -0.1313
   7223SM  H11F 9478   6.319   2.435  14.554  1.8536 -1.4127 -2.7938
   7223SM  H11G 9479   6.438   2.506  14.443  0.2908 -0.2433 -0.2142
   7223SM  C12F 9480   6.249   2.603  14.439 -0.4408 -0.0121  0.0477
   7223SM  H12F 9481   6.297   2.663  14.359 -1.1884  0.9632  0.3188
   7223SM  H12G 9482   6.189   2.668  14.507  1.6947  2.0473  0.0954
   7223SM  C13F 9483   6.174   2.497  14.354 -0.1249 -0.2448 -0.2762
   7223SM  H13F 9484   6.135   2.419  14.423 -1.1906 -1.3635 -2.0502
   7223SM  H13G 9485   6.250   2.445  14.292 -0.5980  0.0243 -1.1007
   7223SM  C14F 9486   6.068   2.561  14.255  0.2512  0.2208 -0.0329
   7223SM  H14F 9487   6.128   2.585  14.165  3.0486 -1.5275  1.2014
   7223SM  H14G 9488   6.048   2.658  14.305 -0.3706 -0.1887  0.5277
   7223SM  C15F 9489   5.942   2.477  14.224 -0.6844 -0.1681  0.0898
   7223SM  H15F 9490   5.893   2.450  14.321 -1.5214 -2.1144 -0.8019
   7223SM  H15G 9491   5.972   2.379  14.180 -0.0219 -0.2026  0.5913
   7223SM  C16F 9492   5.844   2.544  14.119 -0.0384 -0.6075  0.4013
   7223SM  H16F 9493   5.796   2.627  14.175  0.0372 -0.5209  0.3371
   7223SM  H16G 9494   5.768   2.473  14.078  0.4335  0.2317 -2.1471
   7223SM  C17F 9495   5.926   2.606  13.997 -0.4523 -0.7045  1.1452
   7223SM  H17F 9496   5.971   2.532  13.928 -2.2820  1.3541 -2.5947
   7223SM  H17G 9497   6.003   2.678  14.031 -0.7433  0.8272 -1.1622
   7223SM  C18F 9498   5.829   2.695  13.909  0.4072 -0.1015  0.1456
   7223SM  H18F 9499   5.790   2.782  13.966 -1.1039 -0.5035 -0.2539
   7223SM  H18G 9500   5.745   2.630  13.878  0.3925 -0.1435  0.2732
   7223SM  C19F 9501   5.891   2.741  13.781  0.9311  0.1231  0.3062
   7223SM  H19F 9502   5.933   2.655  13.725  0.4568 -0.4184  0.7619
   7223SM  H19G 9503   5.979   2.799  13.815  0.8908  0.7132 -0.5512
   7223SM  C20F 9504   5.791   2.832  13.707 -0.0286 -0.3347  0.0055
   7223SM  H20F 9505   5.784   2.915  13.781  0.3809 -0.3282  0.0400
   7223SM  H20G 9506   5.703   2.774  13.673 -0.0482 -0.1298 -0.2986
   7223SM  C21F 9507   5.840   2.901  13.584  0.4871  0.0742  0.4232
   7223SM  H21F 9508   5.927   2.968  13.605  0.5566 -0.3922  1.7305
   7223SM  H21G 9509   5.759   2.965  13.543 -0.6691 -1.5543  0.0822
   7223SM  C22F 9510   5.876   2.803  13.474 -0.2832  0.0458  0.8138
   7223SM  H22F 9511   5.954   2.733  13.511  0.5032  1.0495  1.0960
   7223SM  H22G 9512   5.908   2.861  13.385 -2.5004 -0.3726 -0.3261
   7223SM  C23F 9513   5.763   2.723  13.422  0.1002 -0.2484 -0.3762
   7223SM  H23F 9514   5.677   2.783  13.385 -0.0600 -0.0115  0.3556
   7223SM  H23G 9515   5.712   2.662  13.500 -0.9218  0.8894 -0.1207
   7223SM  H23H 9516   5.790   2.652  13.342 -0.7140 -3.5805  2.0703
   7323SM     N 9517   5.585   1.191  16.260 -0.2126  0.2011  0.2425
   7323SM   C15 9518   5.518   1.066  16.221 -0.4117 -0.3274 -0.2273
   7323SM  H15A 9519   5.432   1.088  16.160  1.3989  2.4988 -1.9719
   7323SM  H15B 9520   5.486   1.003  16.303 -1.0154  0.7613  0.3921
   7323SM  H15C 9521   5.584   1.002  16.164  0.7562  1.4168 -0.9086
   7323SM   C14 9522   5.521   1.239  16.389  0.8416  0.9196 -0.8543
   7323SM  H14A 9523   5.514   1.165  16.468 -0.3213  0.2339 -1.5752
   7323SM  H14B 9524   5.414   1.253  16.380  0.5300 -0.2584  0.6959
   7323SM  H14C 9525   5.573   1.323  16.434  2.6889 -0.8456  0.4626
   7323SM   C13 9526   5.727   1.158  16.289 -0.1362  0.0659  0.0841
   7323SM  H13A 9527   5.774   1.133  16.195  0.2921 -2.3038  0.8670
   7323SM  H13B 9528   5.727   1.065  16.344  0.4137  0.0914  0.1239
   7323SM  H13C 9529   5.772   1.243  16.336 -1.7358  1.4664 -0.7878
   7323SM   C12 9530   5.561   1.293  16.152 -0.2311 -0.6580  0.9985
   7323SM  H12A 9531   5.584   1.387  16.201  0.8636 -0.9310  1.0380
   7323SM  H12B 9532   5.455   1.295  16.133 -0.3917 -0.3245  1.8865
   7323SM   C11 9533   5.631   1.266  16.011  0.2959 -0.6546  0.6191
   7323SM  H11A 9534   5.740   1.288  16.014  0.2848 -0.3315 -0.6067
   7323SM  H11B 9535   5.594   1.343  15.940  0.2684 -1.3214 -0.0966
   7323SM     P 9536   5.481   1.100  15.870 -0.1990  0.3547 -0.0844
   7323SM   O13 9537   5.472   0.951  15.856 -0.2455 -0.8885  0.0540
   7323SM   O14 9538   5.360   1.166  15.923 -0.3720  0.4110  0.0509
   7323SM   O11 9539   5.523   1.161  15.731  0.0651 -0.1602 -0.0649
   7323SM   O12 9540   5.604   1.132  15.962 -0.4072  0.0523 -0.2095
   7323SM   C1S 9541   5.647   1.135  15.662  0.0939 -0.6685  0.2265
   7323SM   H1S 9542   5.687   1.036  15.690  1.7447 -0.0285  0.2182
   7323SM   H1T 9543   5.723   1.205  15.703 -0.2952 -0.3851  0.4818
   7323SM    NF 9544   5.737   1.108  15.433  1.0015 -0.7714  0.3748
   7323SM   HNF 9545   5.810   1.173  15.416  0.5012 -0.0103  1.0900
   7323SM   C2S 9546   5.618   1.153  15.508 -0.3237 -0.2583 -0.1732
   7323SM   H2S 9547   5.528   1.094  15.479  0.1768 -0.6436 -0.9560
   7323SM   C3S 9548   5.575   1.295  15.466  0.1628 -0.4605 -0.2345
   7323SM   H3S 9549   5.659   1.362  15.497 -0.8998  1.9203 -2.1833
   7323SM    O3 9550   5.456   1.339  15.529 -0.6507 -0.6872 -0.0123
   7323SM   HO3 9551   5.442   1.264  15.587 -1.5567  0.3330  1.1607
   7323SM   C4S 9552   5.575   1.302  15.314 -0.3528  0.1513  0.0102
   7323SM   H4S 9553   5.664   1.355  15.278 -1.0039  3.5513  2.7930
   7323SM   C5S 9554   5.481   1.258  15.226 -0.0013 -0.2901 -0.1298
   7323SM   H5S 9555   5.394   1.206  15.269 -0.4918 -1.3360 -2.2636
   7323SM   C6S 9556   5.478   1.281  15.077  0.4761 -0.1870  0.7997
   7323SM   H6S 9557   5.411   1.368  15.057 -0.2326 -1.0560 -0.8280
   7323SM   H6T 9558   5.422   1.196  15.033  1.0331 -0.4801  0.6592
   7323SM   C7S 9559   5.607   1.283  15.000  0.5074  0.2556 -0.5124
   7323SM   H7S 9560   5.663   1.375  15.030  1.6525 -0.4953 -0.2573
   7323SM   H7T 9561   5.578   1.301  14.894 -1.2426  0.3389 -0.0466
   7323SM   C8S 9562   5.687   1.151  15.023 -1.0384  0.4928  0.3678
   7323SM   H8S 9563   5.615   1.071  15.050  0.0880 -0.7540 -0.2078
   7323SM   H8T 9564   5.762   1.163  15.103 -2.0264 -1.2148  1.6065
   7323SM   C9S 9565   5.755   1.100  14.894  0.4604 -0.5527 -0.2553
   7323SM   H9S 9566   5.826   1.019  14.919  0.4482 -1.2568 -2.3304
   7323SM   H9T 9567   5.826   1.179  14.860 -1.3972  2.0487  1.4422
   7323SM  C10S 9568   5.655   1.045  14.788  0.5329  0.1535 -0.3782
   7323SM  H10S 9569   5.585   1.127  14.762  0.3398 -0.8388 -3.2835
   7323SM  H10T 9570   5.599   0.958  14.829  2.4924 -2.2477 -2.5170
   7323SM  C11S 9571   5.741   1.007  14.670  0.3191 -0.6023 -0.2663
   7323SM  H11S 9572   5.793   0.919  14.714  0.4129 -1.4012 -1.8732
   7323SM  H11T 9573   5.807   1.093  14.646 -0.5496 -0.2201 -1.4079
   7323SM  C12S 9574   5.664   0.967  14.545  0.0664  0.5581  0.1198
   7323SM  H12S 9575   5.601   1.052  14.511 -1.6084  0.1079  1.9263
   7323SM  H12T 9576   5.598   0.882  14.574 -0.0347  0.3256 -0.7494
   7323SM  C13S 9577   5.766   0.934  14.436  0.3883  0.1453 -0.3945
   7323SM  H13S 9578   5.826   0.846  14.466  0.2282  0.0657 -0.3124
   7323SM  H13T 9579   5.837   1.020  14.428  0.3106  0.4707  1.7437
   7323SM  C14S 9580   5.692   0.894  14.304 -0.2967  0.6581 -0.4502
   7323SM  H14S 9581   5.643   0.987  14.266  0.0668  1.4619  0.9577
   7323SM  H14T 9582   5.616   0.816  14.324  1.3701 -0.5508  1.5945
   7323SM  C15S 9583   5.800   0.843  14.202  0.9170  0.2443  0.3256
   7323SM  H15S 9584   5.759   0.823  14.101 -0.7936  0.8221  0.8655
   7323SM  H15T 9585   5.835   0.746  14.245  0.9950 -0.8041 -1.9616
   7323SM  C16S 9586   5.921   0.933  14.177 -0.5005 -0.6573  0.5729
   7323SM  H16S 9587   5.989   0.886  14.103 -3.0305 -2.7461 -0.5756
   7323SM  H16T 9588   5.986   0.944  14.267  2.8163  0.9025 -1.8127
   7323SM  C17S 9589   5.884   1.075  14.137  0.1824 -0.0338  0.1815
   7323SM  H17S 9590   5.846   1.126  14.228  1.1424  3.3835 -1.1751
   7323SM  H17T 9591   5.806   1.069  14.058  0.3143  1.7885 -0.1215
   7323SM  C18S 9592   5.994   1.164  14.090 -0.7315 -0.3418 -0.0053
   7323SM  H18S 9593   5.961   1.268  14.070  1.8920  0.3943 -0.8542
   7323SM  H18T 9594   6.038   1.127  13.996 -0.8702  0.5175 -0.4179
   7323SM  H18U 9595   6.077   1.180  14.162 -0.7663  0.9982 -0.2416
   7323SM   C1F 9596   5.766   0.980  15.420  0.5091  0.5072 -0.1101
   7323SM    OF 9597   5.720   0.894  15.494 -0.6574  0.0991 -0.5019
   7323SM   C2F 9598   5.877   0.941  15.323 -0.2427  0.4125  0.0304
   7323SM   H2F 9599   5.946   0.875  15.380  1.1716 -0.7643 -2.8539
   7323SM   H2G 9600   5.934   1.027  15.282 -0.8248 -0.5096 -2.9837
   7323SM   C3F 9601   5.825   0.853  15.214 -0.5580  0.0662  0.2283
   7323SM   H3F 9602   5.737   0.898  15.162 -1.1121  0.0880  1.1520
   7323SM   H3G 9603   5.778   0.766  15.264  0.7694  0.3072  2.0219
   7323SM   C4F 9604   5.939   0.813  15.114  0.1603 -0.1177  0.2469
   7323SM   H4F 9605   6.006   0.748  15.174  0.1979  0.6300  1.0319
   7323SM   H4G 9606   5.998   0.902  15.082  0.4960 -0.0748  0.9669
   7323SM   C5F 9607   5.897   0.733  14.993 -0.5074  0.3395 -0.0457
   7323SM   H5F 9608   5.827   0.789  14.928 -0.5707  0.8824  0.4764
   7323SM   H5G 9609   5.839   0.645  15.028  2.0664 -2.5184 -2.4567
   7323SM   C6F 9610   6.015   0.683  14.906  0.0984  0.4254 -0.0797
   7323SM   H6F 9611   6.065   0.594  14.949 -0.5451  0.8746  1.6635
   7323SM   H6G 9612   6.086   0.769  14.904 -0.2870  0.7493 -1.8757
   7323SM   C7F 9613   5.976   0.638  14.758 -1.2783 -0.0270  0.5187
   7323SM   H7F 9614   5.931   0.724  14.705 -1.8266 -0.5414  0.1468
   7323SM   H7G 9615   5.891   0.570  14.780 -0.2466 -0.7245  2.7188
   7323SM   C8F 9616   6.083   0.582  14.667 -0.6406 -0.2165  0.4411
   7323SM   H8F 9617   6.148   0.512  14.723  0.5996  1.4393  1.1138
   7323SM   H8G 9618   6.155   0.660  14.636 -0.9999  0.5074  1.3963
   7323SM   C9F 9619   6.026   0.516  14.542  0.4194  0.6609 -0.2256
   7323SM   H9F 9620   6.105   0.499  14.466  1.3416 -0.2043  0.8987
   7323SM   H9G 9621   5.947   0.580  14.498 -1.6692  0.8057  3.3545
   7323SM  C10F 9622   5.962   0.381  14.581  0.3808  0.4978 -0.1345
   7323SM  H10F 9623   5.886   0.398  14.660  1.9502 -0.6799  1.7181
   7323SM  H10G 9624   6.040   0.321  14.632 -1.9531 -1.5076  1.3226
   7323SM  C11F 9625   5.904   0.298  14.465  0.1110 -0.0516  0.2428
   7323SM  H11F 9626   5.866   0.196  14.489 -1.3416  0.8060  1.8709
   7323SM  H11G 9627   5.992   0.288  14.398  0.2129  0.2282  0.3324
   7323SM  C12F 9628   5.801   0.366  14.374 -0.1307  0.3780 -0.2887
   7323SM  H12F 9629   5.771   0.467  14.410 -1.3061  0.1238 -0.5026
   7323SM  H12G 9630   5.712   0.299  14.380 -0.1059  0.4850  2.1993
   7323SM  C13F 9631   5.839   0.383  14.227  0.5646 -0.0895 -0.1207
   7323SM  H13F 9632   5.851   0.282  14.180  0.1491  0.0142 -0.4640
   7323SM  H13G 9633   5.941   0.426  14.230  1.5320 -2.2925  1.2593
   7323SM  C14F 9634   5.751   0.469  14.135  0.2328 -0.7462 -1.0122
   7323SM  H14F 9635   5.734   0.571  14.175 -2.6918 -0.6472 -2.2341
   7323SM  H14G 9636   5.649   0.429  14.156  0.3772 -0.6423 -0.0622
   7323SM  C15F 9637   5.793   0.487  13.987 -0.1262  0.0999  0.0354
   7323SM  H15F 9638   5.882   0.554  13.988  1.3138 -1.6938 -0.5950
   7323SM  H15G 9639   5.705   0.542  13.948  0.9557  0.9852 -1.2289
   7323SM  C16F 9640   5.813   0.357  13.922  0.6653  0.7122 -1.1146
   7323SM  H16F 9641   5.718   0.301  13.940  1.6228 -0.1233  1.8659
   7323SM  H16G 9642   5.891   0.297  13.974  0.0787  0.7918 -0.1073
   7323SM  C17F 9643   5.826   0.359  13.773 -0.3316  0.5720 -0.1639
   7323SM  H17F 9644   5.931   0.390  13.752 -0.3773 -0.1662 -1.5929
   7323SM  H17G 9645   5.749   0.432  13.740 -0.2604  0.1253 -1.3476
   7323SM  C18F 9646   5.806   0.217  13.706 -0.3481  0.3041  0.2569
   7323SM  H18F 9647   5.707   0.169  13.717  1.3710 -3.6289  0.2764
   7323SM  H18G 9648   5.875   0.145  13.756 -0.6871 -0.0319  0.2475
   7323SM  C19F 9649   5.849   0.227  13.557  0.2161  0.0622  0.2350
   7323SM  H19F 9650   5.930   0.156  13.531  1.8060  2.0624 -0.5052
   7323SM  H19G 9651   5.890   0.329  13.541 -1.3885  0.6564 -0.3744
   7323SM  C20F 9652   5.730   0.198  13.464  0.1805  0.3365  0.6782
   7323SM  H20F 9653   5.641   0.252  13.501 -0.6321 -1.3073  1.2398
   7323SM  H20G 9654   5.709   0.090  13.478 -0.5237  0.3567 -0.1470
   7323SM  C21F 9655   5.760   0.226  13.316 -0.5341 -0.0751 -0.5521
   7323SM  H21F 9656   5.701   0.150  13.261 -2.1197  0.6744  0.0387
   7323SM  H21G 9657   5.865   0.193  13.301  0.1108  1.7181 -0.2832
   7323SM  C22F 9658   5.740   0.369  13.267  0.4304  0.3770  0.0418
   7323SM  H22F 9659   5.773   0.444  13.342  1.2054 -0.6578  0.7723
   7323SM  H22G 9660   5.630   0.379  13.253  0.6839  1.4351 -1.4328
   7323SM  C23F 9661   5.801   0.392  13.131  0.4322  0.6131  0.7451
   7323SM  H23F 9662   5.824   0.498  13.109 -1.2769  0.8296 -0.1878
   7323SM  H23G 9663   5.736   0.350  13.051  1.2767  1.7189 -0.5743
   7323SM  H23H 9664   5.903   0.350  13.142  0.3032  0.6332  2.2317
   7423SM     N 9665   0.938   4.621  16.033 -0.3389  0.3206  0.1907
   7423SM   C15 9666   1.080   4.634  15.988 -0.3882  0.3099  0.3709
   7423SM  H15A 9667   1.095   4.603  15.886  0.0702  2.0997 -0.1377
   7423SM  H15B 9668   1.142   4.582  16.060  0.8941 -0.9261 -1.5564
   7423SM  H15C 9669   1.121   4.734  15.993  0.8053 -0.1657  0.4991
   7423SM   C14 9670   0.911   4.477  16.059  0.7968 -0.9225 -0.3585
   7423SM  H14A 9671   0.990   4.428  16.113 -0.0036 -2.9995 -0.9707
   7423SM  H14B 9672   0.917   4.429  15.962  0.2392  2.5590 -2.3024
   7423SM  H14C 9673   0.817   4.471  16.111  0.9856  0.3364  0.1511
   7423SM   C13 9674   0.942   4.686  16.163  0.0776  0.2996  0.0013
   7423SM  H13A 9675   1.016   4.649  16.233 -0.1263 -0.3905 -0.1490
   7423SM  H13B 9676   0.848   4.682  16.216  0.1633 -2.3943  0.0796
   7423SM  H13C 9677   0.956   4.792  16.147  0.5940 -0.1692 -3.5226
   7423SM   C12 9678   0.844   4.676  15.932  0.5997 -0.5066 -0.1829
   7423SM  H12A 9679   0.743   4.654  15.962  0.1745  0.8568 -0.5853
   7423SM  H12B 9680   0.862   4.619  15.842  1.0853 -2.4936  1.0989
   7423SM   C11 9681   0.850   4.828  15.894  0.3409  0.4485  0.0242
   7423SM  H11A 9682   0.828   4.891  15.984 -2.0627 -0.9857  0.5220
   7423SM  H11B 9683   0.767   4.848  15.823 -0.1159 -0.9272  0.1438
   7423SM     P 9684   1.056   4.988  15.872 -0.3868  0.1326  0.0110
   7423SM   O13 9685   1.056   4.995  16.020 -0.7904 -0.2281  0.3414
   7423SM   O14 9686   1.188   4.984  15.798  0.2701  0.2810  0.2706
   7423SM   O11 9687   0.965   5.095  15.811  0.3302 -0.0730 -0.3734
   7423SM   O12 9688   0.980   4.859  15.828 -0.1135  0.4859 -0.1322
   7423SM   C1S 9689   0.960   5.124  15.674 -0.4448 -0.2490 -0.7150
   7423SM   H1S 9690   1.054   5.096  15.623  0.8161  2.1184  0.1692
   7423SM   H1T 9691   0.949   5.234  15.664 -0.8963  0.0572  2.2985
   7423SM    NF 9692   0.846   5.071  15.459 -0.2100  0.9354  0.2267
   7423SM   HNF 9693   0.799   5.154  15.429 -1.3378 -0.3752 -1.8381
   7423SM   C2S 9694   0.840   5.057  15.600  0.1371  0.9184  0.1948
   7423SM   H2S 9695   0.846   4.948  15.622  0.2436  0.8271 -0.2712
   7423SM   C3S 9696   0.700   5.107  15.659  0.2339 -0.3738  0.6211
   7423SM   H3S 9697   0.691   5.209  15.617 -0.0798 -1.5807 -2.4581
   7423SM    O3 9698   0.698   5.118  15.801  0.0755 -0.3212  0.0450
   7423SM   HO3 9699   0.792   5.123  15.820  0.3806  1.8218 -1.6394
   7423SM   C4S 9700   0.582   5.035  15.598 -0.0260  0.0626 -0.5894
   7423SM   H4S 9701   0.536   5.093  15.517 -0.7384 -0.6158 -0.6833
   7423SM   C5S 9702   0.535   4.911  15.633 -0.1249 -0.4051  0.1454
   7423SM   H5S 9703   0.587   4.848  15.707  0.8947 -0.2510 -0.4233
   7423SM   C6S 9704   0.430   4.832  15.557  0.0391  0.0893  0.2291
   7423SM   H6S 9705   0.336   4.843  15.616 -0.6679 -0.3526 -0.7726
   7423SM   H6T 9706   0.455   4.726  15.535 -2.9536 -0.9784  1.3331
   7423SM   C7S 9707   0.386   4.886  15.417  0.4039 -0.0429  0.3365
   7423SM   H7S 9708   0.472   4.891  15.348  0.1881  0.4496  0.0947
   7423SM   H7T 9709   0.339   4.987  15.422  0.3157 -0.1072  0.9823
   7423SM   C8S 9710   0.272   4.802  15.349  0.8458 -0.2020  0.5362
   7423SM   H8S 9711   0.171   4.818  15.394  0.3846 -0.4512 -0.3815
   7423SM   H8T 9712   0.282   4.693  15.365 -1.8042 -0.7716 -1.0193
   7423SM   C9S 9713   0.259   4.824  15.203  0.0367 -0.0945 -0.1954
   7423SM   H9S 9714   0.182   4.753  15.166 -0.2480 -0.7751  1.6196
   7423SM   H9T 9715   0.355   4.801  15.151  0.0855  0.7132 -0.4892
   7423SM  C10S 9716   0.206   4.965  15.179 -0.5254 -0.2767  0.4959
   7423SM  H10S 9717   0.278   5.038  15.223  1.0618 -1.5679  0.1068
   7423SM  H10T 9718   0.125   4.988  15.252  0.5011 -2.7699  2.5528
   7423SM  C11S 9719   0.159   4.986  15.031 -0.4254  0.2047 -0.8779
   7423SM  H11S 9720   0.242   4.953  14.965  0.7444 -1.1306  1.1488
   7423SM  H11T 9721   0.147   5.096  15.015  2.4270  0.9261  1.1181
   7423SM  C12S 9722   0.024   4.918  14.999 -0.3477 -0.0781  0.7856
   7423SM  H12S 9723  -0.058   4.949  15.068 -1.7784 -2.1550  0.1225
   7423SM  H12T 9724   0.034   4.808  15.004 -0.0956 -0.1907 -1.2886
   7423SM  C13S 9725  -0.026   4.955  14.861 -0.3442  0.2386 -0.3155
   7423SM  H13S 9726   0.011   5.055  14.828  2.5844 -0.4438  0.6580
   7423SM  H13T 9727  -0.137   4.950  14.863 -0.3270  0.0598  1.5226
   7423SM  C14S 9728   0.020   4.845  14.763  0.2608 -0.8375  0.1094
   7423SM  H14S 9729  -0.040   4.753  14.781  1.2843 -1.9569 -1.8005
   7423SM  H14T 9730   0.128   4.835  14.791 -0.1726 -0.3388  2.0543
   7423SM  C15S 9731   0.012   4.887  14.618  0.0236  0.4333  0.0323
   7423SM  H15S 9732   0.028   4.997  14.610 -1.5501  0.6457 -0.4675
   7423SM  H15T 9733  -0.091   4.871  14.578  0.4089 -2.6014  0.0596
   7423SM  C16S 9734   0.122   4.818  14.540 -0.9575 -0.2720  0.1573
   7423SM  H16S 9735   0.127   4.709  14.560 -0.9176 -0.2126  0.4859
   7423SM  H16T 9736   0.224   4.861  14.552 -0.7256  0.2391 -2.9917
   7423SM  C17S 9737   0.098   4.850  14.384  0.4069 -0.2786 -0.7952
   7423SM  H17S 9738   0.037   4.942  14.374 -0.1406 -0.5333  0.0895
   7423SM  H17T 9739   0.035   4.766  14.348 -0.3020 -0.2362  0.3028
   7423SM  C18S 9740   0.217   4.875  14.302 -1.0204  0.6137  0.6860
   7423SM  H18S 9741   0.196   4.891  14.194  2.1761 -0.2156 -0.1680
   7423SM  H18T 9742   0.284   4.788  14.310  0.4585  1.5225 -1.0380
   7423SM  H18U 9743   0.279   4.955  14.348  0.6964  0.5238 -1.3135
   7423SM   C1F 9744   0.927   4.993  15.383 -0.3775  0.5135 -0.6640
   7423SM    OF 9745   0.994   4.908  15.440 -0.3837 -0.2677  0.5868
   7423SM   C2F 9746   0.950   5.021  15.234 -0.2509  0.0364  0.3704
   7423SM   H2F 9747   0.950   5.130  15.214  1.1776 -0.3240 -2.0443
   7423SM   H2G 9748   0.870   4.972  15.174 -1.4055 -0.1234  1.9780
   7423SM   C3F 9749   1.081   4.958  15.187  0.7215 -0.4846  0.0771
   7423SM   H3F 9750   1.099   4.858  15.232 -0.9241 -0.4984  0.8040
   7423SM   H3G 9751   1.157   5.030  15.224 -0.2689  0.9916 -0.6879
   7423SM   C4F 9752   1.111   4.960  15.037 -0.4156  0.0537  0.1070
   7423SM   H4F 9753   1.071   4.865  14.994 -0.4295  0.0727  0.0775
   7423SM   H4G 9754   1.221   4.963  15.025 -0.2767 -0.9177  0.9824
   7423SM   C5F 9755   1.050   5.075  14.965 -0.3974 -0.0231  0.8325
   7423SM   H5F 9756   1.098   5.164  15.011  1.2618 -1.9296  2.9913
   7423SM   H5G 9757   0.940   5.087  14.963 -0.2168  1.8747 -0.7993
   7423SM   C6F 9758   1.088   5.060  14.816  0.3635 -0.1927  0.2075
   7423SM   H6F 9759   1.026   4.980  14.770 -1.1801  1.8065 -1.3889
   7423SM   H6G 9760   1.196   5.035  14.811  0.2282 -0.4489 -2.3602
   7423SM   C7F 9761   1.071   5.189  14.730  0.1116  0.1122 -0.1046
   7423SM   H7F 9762   1.172   5.235  14.732 -0.0614  0.7422 -2.7009
   7423SM   H7G 9763   0.985   5.244  14.774 -0.1266 -2.1571  2.5085
   7423SM   C8F 9764   1.032   5.162  14.584 -0.4594 -0.2977  0.6179
   7423SM   H8F 9765   1.123   5.137  14.526  0.2879 -0.0237  1.6344
   7423SM   H8G 9766   1.006   5.257  14.534  3.2141 -0.7896 -2.7249
   7423SM   C9F 9767   0.916   5.066  14.557  1.4283 -0.5491 -0.3311
   7423SM   H9F 9768   0.827   5.084  14.621  1.6667 -3.9408  1.1305
   7423SM   H9G 9769   0.946   4.962  14.583  4.4477  0.8777  2.5677
   7423SM  C10F 9770   0.866   5.071  14.414 -0.2793 -0.0433 -0.2362
   7423SM  H10F 9771   0.952   5.051  14.346 -0.2912  0.4535 -0.4015
   7423SM  H10G 9772   0.823   5.170  14.387  0.3917 -0.1819 -1.9000
   7423SM  C11F 9773   0.775   4.945  14.372  0.3846 -0.0281  0.1193
   7423SM  H11F 9774   0.704   4.941  14.457 -0.8639 -1.9579 -0.9614
   7423SM  H11G 9775   0.825   4.845  14.370  0.2647 -0.0740 -1.1671
   7423SM  C12F 9776   0.684   4.977  14.255  0.9866 -0.4512  0.3721
   7423SM  H12F 9777   0.599   5.039  14.290  0.0712 -1.4026 -0.1191
   7423SM  H12G 9778   0.628   4.883  14.238 -1.1447  0.8149 -0.0396
   7423SM  C13F 9779   0.760   5.017  14.128  0.6067  0.2217  0.5385
   7423SM  H13F 9780   0.827   4.930  14.112 -0.4024 -0.8414  1.8572
   7423SM  H13G 9781   0.827   5.105  14.125  1.8876 -0.7394  0.2538
   7423SM  C14F 9782   0.653   5.042  14.008 -0.4164 -0.5064 -0.0205
   7423SM  H14F 9783   0.709   5.096  13.928 -0.7523  0.0086  0.0860
   7423SM  H14G 9784   0.577   5.115  14.045 -1.3024 -1.0763 -0.6946
   7423SM  C15F 9785   0.571   4.926  13.971  0.6623 -0.5242 -0.4878
   7423SM  H15F 9786   0.589   4.836  14.034  0.2877 -1.0398 -1.1058
   7423SM  H15G 9787   0.609   4.890  13.873  0.3274  0.0470 -0.8324
   7423SM  C16F 9788   0.419   4.960  13.984  0.8738 -0.4133  0.5988
   7423SM  H16F 9789   0.395   5.003  14.083  1.1102  0.5233  0.2601
   7423SM  H16G 9790   0.357   4.871  13.957  0.8712 -0.5691  1.1170
   7423SM  C17F 9791   0.368   5.056  13.877  0.1645 -0.9835  0.2074
   7423SM  H17F 9792   0.400   5.018  13.777  1.1885  0.6627 -0.1286
   7423SM  H17G 9793   0.417   5.155  13.875  1.6796 -1.6972 -1.5096
   7423SM  C18F 9794   0.218   5.083  13.884  0.2140 -0.4190  0.4955
   7423SM  H18F 9795   0.189   5.142  13.974 -1.2760 -0.5105  0.0951
   7423SM  H18G 9796   0.165   4.985  13.889 -0.0209 -0.2548  1.6293
   7423SM  C19F 9797   0.153   5.165  13.765 -1.0655  0.0926 -0.5931
   7423SM  H19F 9798   0.080   5.235  13.810 -0.5220  0.2793  0.0100
   7423SM  H19G 9799   0.098   5.107  13.688  0.3986  1.1731 -2.5825
   7423SM  C20F 9800   0.248   5.261  13.691  0.1949  1.1381  0.0024
   7423SM  H20F 9801   0.340   5.202  13.671  0.8587  2.8056 -2.2907
   7423SM  H20G 9802   0.272   5.354  13.746  1.0571  0.3230  1.0189
   7423SM  C21F 9803   0.202   5.296  13.539  0.1881 -0.4162 -0.0256
   7423SM  H21F 9804   0.201   5.197  13.489  0.0627 -0.0201 -0.8235
   7423SM  H21G 9805   0.288   5.350  13.496  0.4702 -0.5939  0.3159
   7423SM  C22F 9806   0.069   5.375  13.526 -0.4465 -0.4381  0.7005
   7423SM  H22F 9807  -0.005   5.303  13.564  0.6633 -1.3776  1.1294
   7423SM  H22G 9808   0.041   5.395  13.420  1.2898  1.7764  0.5578
   7423SM  C23F 9809   0.060   5.504  13.611 -0.1357  0.9814  0.5148
   7423SM  H23F 9810   0.083   5.486  13.718 -0.6833 -1.9471  0.2144
   7423SM  H23G 9811  -0.037   5.557  13.598 -0.7346 -0.2546 -0.3106
   7423SM  H23H 9812   0.128   5.586  13.578  0.3341  0.9702  1.4241
   7523SM     N 9813   7.735   6.757  16.035  0.2553 -0.2557 -0.3425
   7523SM   C15 9814   7.749   6.864  16.137  0.2251 -0.7410  0.2002
   7523SM  H15A 9815   7.765   6.823  16.236 -2.4663  0.2831  1.1681
   7523SM  H15B 9816   7.657   6.919  16.142  1.1008  1.1266 -2.1548
   7523SM  H15C 9817   7.825   6.937  16.111 -0.9506  0.5703  0.3228
   7523SM   C14 9818   7.608   6.689  16.055  0.1206  0.7482 -0.2814
   7523SM  H14A 9819   7.581   6.664  16.156 -2.6946  1.3364 -0.8011
   7523SM  H14B 9820   7.601   6.596  16.000 -2.7816  0.2966  0.6661
   7523SM  H14C 9821   7.523   6.742  16.013 -0.0310 -0.8444 -2.1108
   7523SM   C13 9822   7.723   6.822  15.898  0.4109  0.1752 -0.3626
   7523SM  H13A 9823   7.811   6.884  15.885  0.4273 -0.0367 -1.3268
   7523SM  H13B 9824   7.635   6.884  15.902  1.2594  1.3509  1.6708
   7523SM  H13C 9825   7.710   6.747  15.822 -1.9278  1.3311 -1.1973
   7523SM   C12 9826   7.859   6.668  16.037 -0.4130 -0.1335 -0.1985
   7523SM  H12A 9827   7.945   6.732  16.026  0.2338 -0.8633  0.5735
   7523SM  H12B 9828   7.850   6.592  15.961  0.7517 -2.1809  1.6035
   7523SM   C11 9829   7.889   6.585  16.166  0.1285 -0.6219 -0.3078
   7523SM  H11A 9830   7.902   6.657  16.249 -1.3776  0.7064 -1.1669
   7523SM  H11B 9831   7.991   6.542  16.154  1.8622  3.3630 -1.6418
   7523SM     P 9832   7.745   6.377  16.105  0.2034 -0.1584  0.0342
   7523SM   O13 9833   7.792   6.252  16.165  0.5090  0.0835 -0.5137
   7523SM   O14 9834   7.599   6.380  16.083  0.5483  0.2599  0.3518
   7523SM   O11 9835   7.822   6.397  15.974 -0.4563  0.1233 -0.8232
   7523SM   O12 9836   7.776   6.497  16.197 -0.3097  0.4575  0.4782
   7523SM   C1S 9837   7.843   6.288  15.888 -0.4663 -0.0212  0.1653
   7523SM   H1S 9838   7.848   6.188  15.937  0.4773 -0.2968 -0.4864
   7523SM   H1T 9839   7.945   6.297  15.847  0.6984  0.2366  2.8982
   7523SM    NF 9840   7.752   6.156  15.714  0.3805 -0.9159 -0.3173
   7523SM   HNF 9841   7.820   6.164  15.641 -0.7085  1.8127 -1.1554
   7523SM   C2S 9842   7.731   6.283  15.779 -0.1312  0.0043 -0.2507
   7523SM   H2S 9843   7.630   6.290  15.826  0.2061  1.2030  0.3367
   7523SM   C3S 9844   7.753   6.397  15.680  0.1855 -0.9557  0.4908
   7523SM   H3S 9845   7.855   6.385  15.639  0.2950 -3.6450  1.2908
   7523SM    O3 9846   7.748   6.529  15.745 -0.1965  0.3097 -0.0702
   7523SM   HO3 9847   7.778   6.512  15.835  0.7437  0.3801 -0.3597
   7523SM   C4S 9848   7.655   6.385  15.570  0.1984 -0.0639 -0.0035
   7523SM   H4S 9849   7.687   6.310  15.496  1.3751 -0.2606  0.6820
   7523SM   C5S 9850   7.538   6.454  15.550 -0.4401  0.3206  0.2646
   7523SM   H5S 9851   7.534   6.530  15.629  3.2990  0.2498  0.7289
   7523SM   C6S 9852   7.429   6.449  15.442  0.0695 -0.6651 -0.6052
   7523SM   H6S 9853   7.416   6.545  15.388  1.1886 -0.9267 -1.3734
   7523SM   H6T 9854   7.335   6.433  15.500  0.4944  0.6217  0.4721
   7523SM   C7S 9855   7.439   6.329  15.357  0.7237  0.4399  0.2604
   7523SM   H7S 9856   7.421   6.233  15.411 -0.5875  0.0015 -0.9259
   7523SM   H7T 9857   7.539   6.323  15.310 -0.4190 -0.6087 -2.1976
   7523SM   C8S 9858   7.339   6.326  15.246 -0.0083  0.3600  0.7189
   7523SM   H8S 9859   7.373   6.418  15.194  0.8268  1.6371  3.3730
   7523SM   H8T 9860   7.233   6.320  15.281 -0.1228  0.3273  0.3747
   7523SM   C9S 9861   7.373   6.205  15.157  0.5684  0.9865  0.6810
   7523SM   H9S 9862   7.364   6.107  15.208  1.3405  1.0143  0.8837
   7523SM   H9T 9863   7.479   6.218  15.125  0.3518 -0.0890 -0.5882
   7523SM  C10S 9864   7.276   6.198  15.039 -0.3150 -0.0437  0.0703
   7523SM  H10S 9865   7.175   6.236  15.066 -2.4003 -3.4896 -2.1228
   7523SM  H10T 9866   7.283   6.091  15.009 -1.5890 -0.0335 -0.3171
   7523SM  C11S 9867   7.314   6.288  14.912 -0.2125  0.1519 -0.4129
   7523SM  H11S 9868   7.372   6.380  14.936  1.6022 -0.7001 -1.3435
   7523SM  H11T 9869   7.214   6.320  14.877 -0.3323 -0.1998 -0.3888
   7523SM  C12S 9870   7.386   6.217  14.802  0.2312  0.5527 -0.5775
   7523SM  H12S 9871   7.408   6.280  14.714  1.1077  1.0253 -0.0376
   7523SM  H12T 9872   7.316   6.133  14.782  2.0354 -1.0968 -0.2727
   7523SM  C13S 9873   7.521   6.159  14.852  0.0356  0.3051  0.1538
   7523SM  H13S 9874   7.504   6.067  14.911  1.9012 -0.5202 -0.5149
   7523SM  H13T 9875   7.570   6.238  14.913 -0.2535 -0.6561  1.6678
   7523SM  C14S 9876   7.621   6.117  14.741 -0.2774  0.0700  0.4857
   7523SM  H14S 9877   7.572   6.161  14.651  1.3053  0.0048 -0.4340
   7523SM  H14T 9878   7.612   6.007  14.726  0.5886  0.1425 -0.6929
   7523SM  C15S 9879   7.759   6.169  14.755 -0.2111 -0.3513  0.3643
   7523SM  H15S 9880   7.817   6.123  14.839  0.0614  0.9520  0.9136
   7523SM  H15T 9881   7.755   6.280  14.754 -2.4173 -0.3716 -1.5895
   7523SM  C16S 9882   7.833   6.150  14.622  0.1352 -0.4675 -0.4112
   7523SM  H16S 9883   7.761   6.172  14.540 -1.4003 -1.0411  0.7179
   7523SM  H16T 9884   7.849   6.041  14.605  0.3503 -0.0414 -3.3293
   7523SM  C17S 9885   7.968   6.236  14.624 -0.0458 -0.5998  0.1505
   7523SM  H17S 9886   8.014   6.212  14.526 -0.6528  0.3654 -0.3871
   7523SM  H17T 9887   8.043   6.193  14.694  1.7266 -1.3618 -2.0985
   7523SM  C18S 9888   7.961   6.388  14.636 -0.1467  0.0874  0.0139
   7523SM  H18S 9889   8.063   6.428  14.619  0.0302 -1.1812 -2.2319
   7523SM  H18T 9890   7.921   6.417  14.736  1.7417 -1.7084  1.3925
   7523SM  H18U 9891   7.891   6.429  14.561 -2.2269  0.4975  2.0447
   7523SM   C1F 9892   7.711   6.042  15.753  0.1537  0.3198  0.3992
   7523SM    OF 9893   7.662   6.021  15.862  0.2230  0.5241  0.4461
   7523SM   C2F 9894   7.718   5.935  15.645 -0.4394  0.3255  0.2651
   7523SM   H2F 9895   7.757   5.973  15.548  2.5874 -2.6588  0.1508
   7523SM   H2G 9896   7.615   5.900  15.623 -0.3211  0.5123 -0.6034
   7523SM   C3F 9897   7.810   5.821  15.686  0.0043  0.1618  0.0466
   7523SM   H3F 9898   7.785   5.765  15.778  2.1422 -2.4341 -0.7946
   7523SM   H3G 9899   7.913   5.862  15.683  0.0223  0.2779 -4.1410
   7523SM   C4F 9900   7.812   5.718  15.578  0.3397  0.9784  0.0275
   7523SM   H4F 9901   7.854   5.761  15.485  0.6562  2.2030  0.7091
   7523SM   H4G 9902   7.705   5.695  15.557  0.4680 -0.5464  0.8944
   7523SM   C5F 9903   7.888   5.588  15.618 -1.2415  0.4917 -0.8431
   7523SM   H5F 9904   7.833   5.546  15.705 -1.5241  1.3142 -0.6135
   7523SM   H5G 9905   7.991   5.611  15.653 -1.5642 -0.7211  1.0451
   7523SM   C6F 9906   7.925   5.481  15.509 -0.2964  0.4657  0.0766
   7523SM   H6F 9907   7.972   5.393  15.557  1.8636  1.4283 -0.1734
   7523SM   H6G 9908   8.011   5.526  15.456  1.7172 -1.3000  1.6709
   7523SM   C7F 9909   7.803   5.443  15.423  0.3465 -0.0937 -0.7727
   7523SM   H7F 9910   7.777   5.539  15.373  1.2594 -0.0333 -1.1425
   7523SM   H7G 9911   7.716   5.415  15.488  0.3229  2.5404  0.4875
   7523SM   C8F 9912   7.831   5.327  15.324  0.0317 -0.2985 -0.4496
   7523SM   H8F 9913   7.825   5.229  15.376  1.5110 -0.2314 -0.0910
   7523SM   H8G 9914   7.939   5.338  15.301  0.9771 -3.0080  1.9888
   7523SM   C9F 9915   7.749   5.342  15.195  0.4016 -0.3104 -0.0733
   7523SM   H9F 9916   7.785   5.272  15.118  1.0794 -0.8325  0.6960
   7523SM   H9G 9917   7.754   5.444  15.153 -0.9832  0.6229  1.8408
   7523SM  C10F 9918   7.597   5.296  15.213 -0.5301 -0.1246 -0.7250
   7523SM  H10F 9919   7.563   5.340  15.309 -0.7626  0.2194 -0.9661
   7523SM  H10G 9920   7.581   5.188  15.234 -4.0575  0.5926  0.8966
   7523SM  C11F 9921   7.503   5.337  15.111  0.8909 -0.1087  0.4349
   7523SM  H11F 9922   7.482   5.446  15.105 -0.9307 -0.4571 -0.1817
   7523SM  H11G 9923   7.403   5.299  15.140  1.2421  0.3424  2.3739
   7523SM  C12F 9924   7.539   5.294  14.970  0.1851 -0.5499  0.2544
   7523SM  H12F 9925   7.556   5.184  14.982 -2.9414 -1.0743  0.6708
   7523SM  H12G 9926   7.625   5.351  14.930 -2.3438  2.4372 -1.2886
   7523SM  C13F 9927   7.435   5.314  14.867  0.2332 -0.0316  0.3453
   7523SM  H13F 9928   7.332   5.295  14.901  0.1983  1.0253  0.8558
   7523SM  H13G 9929   7.447   5.250  14.777 -1.9920  0.8578 -0.6561
   7523SM  C14F 9930   7.437   5.459  14.814 -0.4887  0.7818 -0.1302
   7523SM  H14F 9931   7.524   5.479  14.748 -0.7622  0.7916 -0.4892
   7523SM  H14G 9932   7.449   5.531  14.898  1.7957  1.6426 -1.1193
   7523SM  C15F 9933   7.305   5.493  14.757  0.0334  0.6247  0.3689
   7523SM  H15F 9934   7.220   5.501  14.828 -2.0739  0.3041 -1.9753
   7523SM  H15G 9935   7.276   5.412  14.687 -1.0974  0.7721  0.6497
   7523SM  C16F 9936   7.323   5.629  14.690 -0.0874  0.4327  0.1478
   7523SM  H16F 9937   7.386   5.619  14.599 -1.3277 -0.0260 -0.6977
   7523SM  H16G 9938   7.369   5.704  14.758 -2.1448  2.6158 -0.7114
   7523SM  C17F 9939   7.194   5.687  14.635  0.2208 -0.2450  0.5594
   7523SM  H17F 9940   7.205   5.784  14.582 -2.3060 -0.8520 -1.2548
   7523SM  H17G 9941   7.129   5.705  14.722 -0.1031 -0.8002  0.4347
   7523SM  C18F 9942   7.116   5.589  14.544 -0.8012 -0.0474  0.3589
   7523SM  H18F 9943   7.071   5.502  14.596 -2.7040 -0.2855 -1.5087
   7523SM  H18G 9944   7.169   5.541  14.458 -3.5751 -1.3440 -0.7688
   7523SM  C19F 9945   6.984   5.653  14.486  0.4349  0.5825  0.0103
   7523SM  H19F 9946   7.021   5.745  14.436 -0.3431  2.5076  2.7468
   7523SM  H19G 9947   6.915   5.686  14.567 -1.7493  0.7423 -1.7909
   7523SM  C20F 9948   6.897   5.551  14.417 -0.0636 -0.4379 -0.1867
   7523SM  H20F 9949   6.943   5.521  14.321 -0.1521  0.3910 -0.4923
   7523SM  H20G 9950   6.805   5.607  14.393 -1.6988 -1.5698  2.8031
   7523SM  C21F 9951   6.862   5.432  14.496  0.1708 -0.3673 -0.3088
   7523SM  H21F 9952   6.842   5.458  14.602 -1.0930  0.1868 -0.6670
   7523SM  H21G 9953   6.949   5.363  14.490  0.4014  0.0244 -2.2106
   7523SM  C22F 9954   6.735   5.362  14.449  0.0706  0.0167 -0.5859
   7523SM  H22F 9955   6.736   5.320  14.346 -1.9458  3.3280 -2.1596
   7523SM  H22G 9956   6.660   5.444  14.456 -0.3003 -0.4292  1.2267
   7523SM  C23F 9957   6.694   5.246  14.547 -0.0670 -0.0324  0.5484
   7523SM  H23F 9958   6.749   5.151  14.529 -0.0634 -0.1992  1.3953
   7523SM  H23G 9959   6.584   5.233  14.546 -0.1415  0.5772  0.4321
   7523SM  H23H 9960   6.721   5.267  14.653 -1.8749 -2.1380  1.5147
   7623SM     N 9961   0.242   6.097  16.381 -0.0847  0.2031 -0.1441
   7623SM   C15 9962   0.198   6.209  16.470 -0.2940  0.0517  0.9937
   7623SM  H15A 9963   0.213   6.306  16.425  0.0554 -1.0683 -1.5168
   7623SM  H15B 9964   0.260   6.198  16.557 -0.1956 -0.2958  0.8816
   7623SM  H15C 9965   0.093   6.212  16.493 -0.2530  1.1027  1.1059
   7623SM   C14 9966   0.394   6.111  16.371  0.7256  0.1643  0.4989
   7623SM  H14A 9967   0.405   6.211  16.331 -0.4602  0.4933  0.9504
   7623SM  H14B 9968   0.432   6.031  16.311  3.5300  0.7710  1.3097
   7623SM  H14C 9969   0.444   6.104  16.467 -1.4278  1.4243  1.8001
   7623SM   C13 9970   0.220   5.969  16.448  0.6273 -0.1828 -0.3425
   7623SM  H13A 9971   0.129   5.971  16.506  1.6890  2.9608  1.4457
   7623SM  H13B 9972   0.298   5.945  16.520  1.0317 -1.1714 -1.0865
   7623SM  H13C 9973   0.215   5.883  16.383 -0.5467  0.1673 -0.7444
   7623SM   C12 9974   0.169   6.106  16.244  0.4143 -0.3339 -0.3294
   7623SM  H12A 9975   0.195   6.198  16.194  1.2531 -0.7056 -0.6143
   7623SM  H12B 9976   0.063   6.110  16.263  0.2369 -0.8840 -1.1293
   7623SM   C11 9977   0.207   6.000  16.142  0.0809  0.6841  0.5147
   7623SM  H11A 9978   0.318   5.992  16.135  0.0759 -2.7106  2.1167
   7623SM  H11B 9979   0.174   6.045  16.046  0.7661  0.2595  0.0593
   7623SM     P 9980   0.008   5.844  16.110 -0.1469 -0.0178  0.2559
   7623SM   O13 9981  -0.025   5.695  16.129  0.3689 -0.5202 -0.5353
   7623SM   O14 9982  -0.088   5.944  16.156 -0.2750  0.1932  0.3715
   7623SM   O11 9983   0.028   5.857  15.951 -0.1385  0.1121  0.2420
   7623SM   O12 9984   0.151   5.871  16.167 -0.1452  0.0696 -0.0052
   7623SM   C1S 9985   0.114   5.766  15.884  0.3620  0.0553  0.4437
   7623SM   H1S 9986   0.144   5.671  15.934 -2.9162 -0.3723  1.8611
   7623SM   H1T 9987   0.210   5.820  15.866  1.2087 -0.8344  2.0981
   7623SM    NF 9988   0.145   5.616  15.688  0.8204 -0.3099  0.5509
   7623SM   HNF 9989   0.176   5.646  15.599  1.7054  1.5993  1.4560
   7623SM   C2S 9990   0.059   5.714  15.752  0.2242 -0.1993  0.1476
   7623SM   H2S 9991  -0.045   5.682  15.773  0.0897  0.3431  0.3513
   7623SM   C3S 9992   0.030   5.843  15.655  0.6333 -0.2826 -0.1201
   7623SM   H3S 9993   0.129   5.881  15.619  0.8312 -1.8373 -1.3184
   7623SM    O3 9994  -0.021   5.951  15.726  0.7823 -0.1043 -0.3777
   7623SM   HO3 9995  -0.018   5.922  15.818 -3.8226  2.9122  1.0838
   7623SM   C4S 9996  -0.061   5.811  15.535  0.2504  0.3275 -0.1080
   7623SM   H4S 9997  -0.003   5.801  15.442  0.3190  3.0636 -0.4158
   7623SM   C5S 9998  -0.193   5.815  15.524  0.5477 -0.3206  0.2092
   7623SM   H5S 9999  -0.258   5.852  15.605 -1.6854  1.3565 -2.1669
   7623SM   C6S10000  -0.271   5.794  15.400 -0.2535  0.0892  0.1143
   7623SM   H6S10001  -0.350   5.867  15.376 -0.9832 -0.8280 -0.3480
   7623SM   H6T10002  -0.316   5.693  15.409 -1.6747  0.7023  0.0679
   7623SM   C7S10003  -0.194   5.768  15.262 -0.4868  0.3141 -0.2039
   7623SM   H7S10004  -0.125   5.681  15.259 -2.5762 -1.6478  2.7176
   7623SM   H7T10005  -0.138   5.861  15.237 -1.9299  1.7731  1.6841
   7623SM   C8S10006  -0.292   5.757  15.142 -0.0055  0.0846 -0.4948
   7623SM   H8S10007  -0.222   5.746  15.057 -0.9528  0.1294 -1.2975
   7623SM   H8T10008  -0.349   5.851  15.131  1.3383  1.1060  0.9006
   7623SM   C9S10009  -0.386   5.633  15.147  0.3942  0.2856 -0.4352
   7623SM   H9S10010  -0.457   5.651  15.230  1.3937 -1.2587  0.8036
   7623SM   H9T10011  -0.324   5.546  15.180  0.8282  1.7336  2.9241
   7623SM  C10S10012  -0.436   5.596  15.004 -0.3186  0.1173 -0.3712
   7623SM  H10S10013  -0.461   5.488  15.005 -0.9188  0.2493  0.5958
   7623SM  H10T10014  -0.346   5.614  14.941  0.8531  1.2740  1.5417
   7623SM  C11S10015  -0.548   5.678  14.956 -0.8490 -0.6041 -0.0324
   7623SM  H11S10016  -0.514   5.784  14.960  1.1533 -1.2375  1.8980
   7623SM  H11T10017  -0.645   5.660  15.007 -1.1400 -1.0095 -0.7116
   7623SM  C12S10018  -0.573   5.645  14.804 -0.9067 -0.1722 -0.1546
   7623SM  H12S10019  -0.597   5.536  14.802 -3.9691  0.2076  3.5828
   7623SM  H12T10020  -0.476   5.675  14.760 -0.2325 -0.5317  1.0463
   7623SM  C13S10021  -0.677   5.735  14.736 -0.5515  0.0755  0.6567
   7623SM  H13S10022  -0.628   5.833  14.756  2.4596 -1.0957 -0.5481
   7623SM  H13T10023  -0.772   5.731  14.794 -0.0750  0.2002  1.4599
   7623SM  C14S10024  -0.673   5.709  14.582  0.2331 -0.6716 -0.1543
   7623SM  H14S10025  -0.573   5.712  14.534  0.4051  0.5471  0.2345
   7623SM  H14T10026  -0.722   5.793  14.527 -0.6966 -0.8959  0.3011
   7623SM  C15S10027  -0.757   5.588  14.540  0.5745  0.3519 -0.1140
   7623SM  H15S10028  -0.862   5.600  14.575  0.1777  0.0611 -1.1614
   7623SM  H15T10029  -0.720   5.502  14.600  2.2319  1.5512  0.6675
   7623SM  C16S10030  -0.750   5.560  14.388 -0.2432  0.1964  0.3073
   7623SM  H16S10031  -0.645   5.565  14.353 -0.4467 -2.4800 -0.8887
   7623SM  H16T10032  -0.829   5.618  14.334 -1.7263 -2.9582 -1.1945
   7623SM  C17S10033  -0.783   5.412  14.346 -0.0243  0.2403  0.1887
   7623SM  H17S10034  -0.816   5.415  14.240 -0.8878  1.0602  0.4642
   7623SM  H17T10035  -0.866   5.376  14.411  0.2562  0.0879  0.4622
   7623SM  C18S10036  -0.662   5.319  14.361  0.5072  0.0240  0.1273
   7623SM  H18S10037  -0.572   5.352  14.306  0.5611 -2.6898 -1.6358
   7623SM  H18T10038  -0.684   5.215  14.327  0.3339 -0.4084  1.4929
   7623SM  H18U10039  -0.638   5.307  14.469 -0.8449  2.0193  0.7065
   7623SM   C1F10040   0.188   5.495  15.732 -0.0809 -0.3371 -0.5106
   7623SM    OF10041   0.163   5.459  15.846 -0.2706  0.4530 -0.2341
   7623SM   C2F10042   0.282   5.418  15.642  0.0365  0.2785 -0.4719
   7623SM   H2F10043   0.383   5.408  15.687 -0.3819 -0.4723  0.3371
   7623SM   H2G10044   0.301   5.482  15.553 -1.4372  1.6806  0.1720
   7623SM   C3F10045   0.226   5.273  15.599  0.2564  0.2382 -0.3401
   7623SM   H3F10046   0.224   5.226  15.700  0.7240  2.6564  0.8588
   7623SM   H3G10047   0.295   5.231  15.523 -1.6409  0.6715 -2.3960
   7623SM   C4F10048   0.085   5.272  15.532 -0.0693  0.3126  0.6008
   7623SM   H4F10049   0.008   5.331  15.586 -0.1170  0.3149  0.5301
   7623SM   H4G10050   0.049   5.167  15.531 -1.8020  0.8756 -0.1295
   7623SM   C5F10051   0.091   5.310  15.383 -0.8554 -0.0833 -0.3143
   7623SM   H5F10052   0.159   5.245  15.324 -0.4641  0.6179 -0.6496
   7623SM   H5G10053   0.135   5.408  15.355  0.6872 -0.4040  0.8819
   7623SM   C6F10054  -0.043   5.292  15.323  0.2878 -0.5154  0.3642
   7623SM   H6F10055  -0.101   5.372  15.373  1.8030  1.0863 -0.3134
   7623SM   H6G10056  -0.095   5.196  15.342 -0.4414 -0.3086 -0.4876
   7623SM   C7F10057  -0.032   5.303  15.171 -0.6363  0.2287 -0.4359
   7623SM   H7F10058   0.032   5.217  15.138  0.8440  0.4420  1.7037
   7623SM   H7G10059   0.007   5.402  15.139 -1.0394  0.8516  0.9627
   7623SM   C8F10060  -0.172   5.290  15.113  0.5854  0.2823 -0.9824
   7623SM   H8F10061  -0.244   5.368  15.147  2.9354  1.5819  1.4556
   7623SM   H8G10062  -0.216   5.194  15.145 -1.1980  1.6848  1.0297
   7623SM   C9F10063  -0.175   5.289  14.960 -0.0996  0.3441  0.3491
   7623SM   H9F10064  -0.087   5.237  14.916  0.4225 -0.1520  1.8965
   7623SM   H9G10065  -0.162   5.394  14.928  2.0667  0.5647  1.7147
   7623SM  C10F10066  -0.306   5.225  14.905  0.0816 -0.2625 -0.1991
   7623SM  H10F10067  -0.400   5.263  14.950  0.3833  0.3658 -0.1020
   7623SM  H10G10068  -0.300   5.118  14.934 -0.2545 -0.5720 -1.2159
   7623SM  C11F10069  -0.309   5.223  14.754  0.3707  1.3472  0.2355
   7623SM  H11F10070  -0.406   5.173  14.733  0.3447  1.0588  1.0136
   7623SM  H11G10071  -0.222   5.164  14.720 -0.8161  1.0590 -2.6436
   7623SM  C12F10072  -0.317   5.352  14.680  0.3022  0.0111 -0.8208
   7623SM  H12F10073  -0.386   5.423  14.730 -1.0430 -0.3624 -2.0702
   7623SM  H12G10074  -0.373   5.333  14.586  0.5049 -1.9542 -0.5776
   7623SM  C13F10075  -0.187   5.422  14.654  0.3266 -0.5168  0.2446
   7623SM  H13F10076  -0.105   5.351  14.677  2.2748  1.6109  0.2062
   7623SM  H13G10077  -0.169   5.502  14.728  1.2479 -0.5271  0.0348
   7623SM  C14F10078  -0.189   5.500  14.517  0.2814 -0.3002 -0.1086
   7623SM  H14F10079  -0.176   5.440  14.425  0.4052  1.0033 -0.9582
   7623SM  H14G10080  -0.101   5.566  14.507 -0.5124  0.9275  0.7694
   7623SM  C15F10081  -0.314   5.589  14.498 -0.0629  1.2445 -0.6448
   7623SM  H15F10082  -0.326   5.665  14.578 -0.4724 -0.4727  1.0320
   7623SM  H15G10083  -0.404   5.525  14.512  1.3347 -0.7861 -0.4328
   7623SM  C16F10084  -0.330   5.654  14.357 -0.7872 -0.3790  0.6523
   7623SM  H16F10085  -0.434   5.694  14.361  0.0853  2.6947 -2.3435
   7623SM  H16G10086  -0.325   5.568  14.286 -0.6124 -0.2373  0.4901
   7623SM  C17F10087  -0.224   5.767  14.326  0.2971  0.3547  0.2098
   7623SM  H17F10088  -0.244   5.800  14.222 -3.3582 -0.1932  0.6151
   7623SM  H17G10089  -0.120   5.727  14.326 -0.4379 -1.6544 -0.2312
   7623SM  C18F10090  -0.237   5.878  14.432  0.0949 -0.6960 -0.4493
   7623SM  H18F10091  -0.215   5.830  14.530 -0.0509  0.4233  0.1494
   7623SM  H18G10092  -0.343   5.909  14.442  0.7554  1.7733 -0.4707
   7623SM  C19F10093  -0.156   6.005  14.405 -0.3716  0.4935  0.1279
   7623SM  H19F10094  -0.189   6.061  14.315 -1.2714  1.3565  0.9589
   7623SM  H19G10095  -0.051   5.975  14.384 -0.5518  0.6993 -1.1502
   7623SM  C20F10096  -0.137   6.114  14.523  0.5316 -0.7906 -0.1882
   7623SM  H20F10097  -0.190   6.076  14.613  0.1362 -4.6088 -1.8194
   7623SM  H20G10098  -0.198   6.199  14.483 -2.4504 -1.4475  2.5141
   7623SM  C21F10099   0.004   6.156  14.545 -0.5853  0.5254 -0.0280
   7623SM  H21F10100   0.034   6.220  14.459 -0.1276  0.5049  0.1161
   7623SM  H21G10101   0.066   6.064  14.543 -1.1930  0.1202 -1.2524
   7623SM  C22F10102   0.030   6.238  14.675  0.3104 -0.1371  0.2875
   7623SM  H22F10103  -0.042   6.323  14.677 -0.3286 -0.6051 -1.2650
   7623SM  H22G10104   0.134   6.276  14.680  0.2683 -0.1074  1.0136
   7623SM  C23F10105   0.020   6.155  14.801 -0.1687 -0.3643  1.1437
   7623SM  H23F10106   0.010   6.222  14.889 -0.8082 -0.0353  0.8301
   7623SM  H23G10107   0.113   6.094  14.803 -1.2621 -2.1524 -0.0947
   7623SM  H23H10108  -0.074   6.097  14.789 -0.2312 -0.3725  1.6691
   7723SM     N10109   8.065   2.289  16.629  0.6894  0.2246 -0.0181
   7723SM   C1510110   7.918   2.290  16.670  0.0383  0.3057  0.3312
   7723SM  H15A10111   7.901   2.320  16.772 -1.7244 -0.0089  0.1749
   7723SM  H15B10112   7.865   2.197  16.656 -0.4875  0.5685  0.5292
   7723SM  H15C10113   7.859   2.362  16.614  1.0159  1.6083  0.9472
   7723SM   C1410114   8.113   2.425  16.652 -0.8807 -0.4163  0.2149
   7723SM  H14A10115   8.052   2.502  16.606 -0.5312 -0.2266  0.0633
   7723SM  H14B10116   8.208   2.432  16.602 -0.1013 -1.6867  1.4552
   7723SM  H14C10117   8.136   2.449  16.755 -0.7318  2.6808 -0.4292
   7723SM   C1310118   8.137   2.193  16.721  0.2357  0.3111 -1.1952
   7723SM  H13A10119   8.244   2.192  16.708  0.5859 -1.1715  1.1246
   7723SM  H13B10120   8.100   2.093  16.702 -0.6594  0.2147  0.7866
   7723SM  H13C10121   8.123   2.211  16.827  1.0570 -1.1678 -0.7975
   7723SM   C1210122   8.078   2.252  16.483 -0.3485 -0.4909  0.3158
   7723SM  H12A10123   8.036   2.153  16.471  0.5420 -0.9630  0.9269
   7723SM  H12B10124   8.182   2.238  16.457  0.2970  2.5322  0.8716
   7723SM   C1110125   8.009   2.334  16.375 -0.6899 -0.5181 -0.4441
   7723SM  H11A10126   7.898   2.328  16.383 -0.8913  0.2777 -2.0814
   7723SM  H11B10127   8.039   2.275  16.286  1.2404  2.4170 -1.9242
   7723SM     P10128   8.196   2.505  16.286  0.0778  0.1086 -0.0831
   7723SM   O1310129   8.193   2.649  16.261 -0.7337  0.0188 -0.1971
   7723SM   O1410130   8.310   2.452  16.360  0.2530 -0.3213 -0.9895
   7723SM   O1110131   8.188   2.425  16.152  0.1167  0.1584  0.1776
   7723SM   O1210132   8.063   2.463  16.361 -0.2855 -0.0570  0.2079
   7723SM   C1S10133   8.070   2.443  16.066 -0.6357 -0.9331 -0.0485
   7723SM   H1S10134   8.044   2.550  16.053  1.6487 -0.4442 -1.0050
   7723SM   H1T10135   7.975   2.394  16.094 -0.7335 -0.3522  0.6875
   7723SM    NF10136   8.016   2.459  15.816  0.5620 -0.4756  0.6280
   7723SM   HNF10137   7.945   2.395  15.789  1.8448 -1.2254 -1.1325
   7723SM   C2S10138   8.100   2.397  15.916  0.2002  0.0736 -0.3043
   7723SM   H2S10139   8.207   2.422  15.905  0.3386 -0.2374  0.3107
   7723SM   C3S10140   8.093   2.245  15.917 -0.3649 -0.1840 -1.2724
   7723SM   H3S10141   7.989   2.227  15.951 -0.3446  1.4080 -0.2524
   7723SM    O310142   8.161   2.178  16.027 -0.1259 -0.6079 -0.2775
   7723SM   HO310143   8.162   2.256  16.083 -0.8209 -0.5775 -0.2924
   7723SM   C4S10144   8.130   2.180  15.782  0.1717 -0.6653 -0.2550
   7723SM   H4S10145   8.239   2.171  15.768  0.1384 -0.9060 -0.3717
   7723SM   C5S10146   8.048   2.103  15.708  0.3985 -1.0206 -0.3728
   7723SM   H5S10147   7.944   2.096  15.742  0.4011 -0.9649 -0.3515
   7723SM   C6S10148   8.083   2.020  15.588 -0.8272  0.1740 -1.2153
   7723SM   H6S10149   8.083   2.087  15.499  0.1211  1.3116 -0.3835
   7723SM   H6T10150   8.017   1.931  15.575  1.9326 -2.1615 -0.2981
   7723SM   C7S10151   8.227   1.963  15.573  0.4798 -0.5968 -0.0896
   7723SM   H7S10152   8.238   1.905  15.667  1.5285  0.0336  0.1898
   7723SM   H7T10153   8.299   2.045  15.591  0.5813 -0.5079 -0.8499
   7723SM   C8S10154   8.251   1.899  15.437  0.2234  0.3714 -0.2710
   7723SM   H8S10155   8.201   1.971  15.368 -0.6208  1.5514  1.4934
   7723SM   H8T10156   8.198   1.802  15.440  0.4406  0.2409 -0.6272
   7723SM   C9S10157   8.397   1.870  15.401 -0.0855  0.6952 -0.3410
   7723SM   H9S10158   8.441   1.821  15.490 -2.7275  0.0787  0.7096
   7723SM   H9T10159   8.436   1.974  15.395 -1.3287  1.1027 -1.8518
   7723SM  C10S10160   8.422   1.791  15.269  0.1358 -1.1776  0.6515
   7723SM  H10S10161   8.374   1.691  15.264  0.5133 -1.3490  0.3159
   7723SM  H10T10162   8.532   1.779  15.260  0.1771  0.0210 -0.7740
   7723SM  C11S10163   8.372   1.872  15.146 -0.2183  0.4685 -0.0416
   7723SM  H11S10164   8.412   1.975  15.144  2.6559 -0.5768 -0.0655
   7723SM  H11T10165   8.261   1.877  15.146 -0.2911  0.5389  3.0229
   7723SM  C12S10166   8.412   1.789  15.023 -0.1387 -0.4024  0.2436
   7723SM  H12S10167   8.381   1.684  15.039 -0.5488 -0.1642  1.0576
   7723SM  H12T10168   8.522   1.803  15.009 -0.2107  0.8805  0.7970
   7723SM  C13S10169   8.343   1.856  14.897  0.4264  1.5534  0.0809
   7723SM  H13S10170   8.237   1.862  14.930  0.2899  2.0300 -0.4208
   7723SM  H13T10171   8.350   1.785  14.812 -0.8632 -0.9088  1.8933
   7723SM  C14S10172   8.391   1.997  14.854  0.6515  0.3113  0.0423
   7723SM  H14S10173   8.410   2.054  14.947 -0.7806  1.7849 -0.5104
   7723SM  H14T10174   8.330   2.055  14.781  0.8024 -0.5043 -0.7649
   7723SM  C15S10175   8.535   2.006  14.803  0.0855  0.2898 -0.5280
   7723SM  H15S10176   8.610   1.957  14.869  2.0886  0.8074 -2.2718
   7723SM  H15T10177   8.563   2.113  14.808 -0.0226  0.3045 -0.2497
   7723SM  C16S10178   8.553   1.951  14.657 -0.1812  0.0903  0.2990
   7723SM  H16S10179   8.534   1.842  14.652  1.0631 -0.1622  0.7930
   7723SM  H16T10180   8.658   1.975  14.629 -0.4336 -1.6147 -2.5174
   7723SM  C17S10181   8.473   2.033  14.553 -0.0339  0.0634  0.7774
   7723SM  H17S10182   8.364   2.030  14.576 -0.3564 -2.3653 -0.7143
   7723SM  H17T10183   8.506   1.999  14.453  0.2771  0.0898  0.8691
   7723SM  C18S10184   8.513   2.180  14.566  0.3155  0.3837 -0.1347
   7723SM  H18S10185   8.623   2.196  14.568  0.1931  1.1893  1.4980
   7723SM  H18T10186   8.465   2.231  14.652  0.6832  1.9212 -0.7858
   7723SM  H18U10187   8.470   2.235  14.479  2.1317  0.0799 -1.2757
   7723SM   C1F10188   8.018   2.591  15.783  0.4691  0.2381  0.1104
   7723SM    OF10189   8.102   2.663  15.830  0.1784 -0.0710  0.2512
   7723SM   C2F10190   7.917   2.639  15.690  0.6613 -0.6642  0.0290
   7723SM   H2F10191   7.831   2.673  15.752  1.5607 -1.5142  1.8240
   7723SM   H2G10192   7.883   2.548  15.636  0.3826  0.5647 -1.9218
   7723SM   C3F10193   7.966   2.742  15.588  0.6661 -0.2845  0.2738
   7723SM   H3F10194   8.060   2.711  15.536  1.0404  2.3823 -0.7939
   7723SM   H3G10195   7.981   2.838  15.641 -0.8924  1.0727 -1.6249
   7723SM   C4F10196   7.872   2.772  15.466 -0.3428  0.4224  0.4861
   7723SM   H4F10197   7.913   2.856  15.406 -0.4633  0.6113  0.6658
   7723SM   H4G10198   7.766   2.792  15.494  0.0392  0.5097  1.9548
   7723SM   C5F10199   7.871   2.657  15.360 -0.5810 -0.2523  0.0078
   7723SM   H5F10200   7.862   2.560  15.413  3.6642  0.1729  1.9321
   7723SM   H5G10201   7.967   2.657  15.303  0.1965 -0.5638  1.2860
   7723SM   C6F10202   7.756   2.670  15.258 -0.5691 -0.0178 -0.0066
   7723SM   H6F10203   7.764   2.770  15.209  3.3005 -0.3853 -0.4687
   7723SM   H6G10204   7.656   2.649  15.302 -0.8766 -0.9111 -1.0806
   7723SM   C7F10205   7.790   2.563  15.150  0.0546  0.4778 -0.0594
   7723SM   H7F10206   7.782   2.459  15.188  0.3293  0.0072 -1.2487
   7723SM   H7G10207   7.890   2.575  15.103 -0.9660  1.0476 -2.2087
   7723SM   C8F10208   7.689   2.567  15.035 -0.8526  0.6192  0.0834
   7723SM   H8F10209   7.671   2.675  15.017 -1.5219  0.4775 -0.1099
   7723SM   H8G10210   7.598   2.514  15.070  0.1940  1.0989  3.9610
   7723SM   C9F10211   7.743   2.513  14.896 -0.2189 -0.8227 -0.4397
   7723SM   H9F10212   7.761   2.404  14.907 -0.1934 -1.2940 -3.9352
   7723SM   H9G10213   7.835   2.567  14.864 -0.7799  0.4487 -0.0113
   7723SM  C10F10214   7.633   2.543  14.793 -0.0408  0.4104 -0.2096
   7723SM  H10F10215   7.642   2.646  14.752  4.8906 -0.3996 -1.7911
   7723SM  H10G10216   7.532   2.520  14.834 -0.1193 -0.7373 -0.9853
   7723SM  C11F10217   7.638   2.455  14.668 -0.7711  0.3780  0.1633
   7723SM  H11F10218   7.542   2.483  14.620  0.7937  2.4230 -2.0400
   7723SM  H11G10219   7.630   2.347  14.689  0.9205  0.3373  0.8379
   7723SM  C12F10220   7.761   2.474  14.574  0.6361  0.3818  0.5365
   7723SM  H12F10221   7.851   2.440  14.629  1.9841 -1.9295 -2.7551
   7723SM  H12G10222   7.770   2.583  14.559  0.9190  0.1984 -0.8038
   7723SM  C13F10223   7.752   2.394  14.441  0.1203 -0.0635  0.3343
   7723SM  H13F10224   7.664   2.327  14.448 -0.8886  0.9886 -1.6039
   7723SM  H13G10225   7.847   2.339  14.427  1.7914  2.2187  1.8827
   7723SM  C14F10226   7.739   2.481  14.315  0.0543 -0.1547 -0.3538
   7723SM  H14F10227   7.833   2.532  14.284  0.7041 -0.2572  1.3328
   7723SM  H14G10228   7.653   2.551  14.325  0.8199  1.2415 -2.7161
   7723SM  C15F10229   7.702   2.398  14.194 -0.4951  0.0734  0.1208
   7723SM  H15F10230   7.641   2.457  14.122  0.6802  1.6110  0.3225
   7723SM  H15G10231   7.648   2.305  14.220 -0.0403 -0.0040  0.8396
   7723SM  C16F10232   7.831   2.340  14.129 -0.0004  0.5918  0.3334
   7723SM  H16F10233   7.894   2.274  14.192 -0.4625 -2.9720 -2.5980
   7723SM  H16G10234   7.898   2.425  14.101  0.5536 -0.2489 -1.0217
   7723SM  C17F10235   7.792   2.264  13.996  0.4298  0.6351 -0.1525
   7723SM  H17F10236   7.707   2.321  13.953 -0.8490 -0.1595  1.1995
   7723SM  H17G10237   7.757   2.160  14.015 -0.0474  0.3421 -2.3879
   7723SM  C18F10238   7.906   2.260  13.894 -0.0294 -0.3544 -0.2868
   7723SM  H18F10239   7.959   2.357  13.888 -1.0160  0.1767 -0.6229
   7723SM  H18G10240   7.870   2.243  13.790  0.4121 -1.3643 -0.2859
   7723SM  C19F10241   8.015   2.161  13.934 -0.1784  0.2401 -0.1178
   7723SM  H19F10242   7.969   2.059  13.935 -0.8204  0.5264  0.4448
   7723SM  H19G10243   8.061   2.184  14.032  1.3175  1.7883 -1.1309
   7723SM  C20F10244   8.130   2.166  13.829 -0.5204  0.0472 -0.3295
   7723SM  H20F10245   8.185   2.262  13.834 -0.2778 -0.1045 -0.0516
   7723SM  H20G10246   8.092   2.149  13.726 -1.2508 -1.0076  0.0894
   7723SM  C21F10247   8.239   2.065  13.854  0.7163  0.0937  0.4705
   7723SM  H21F10248   8.276   2.080  13.958  2.3642 -0.5403  0.0008
   7723SM  H21G10249   8.334   2.086  13.800  0.4633 -0.8532 -0.3760
   7723SM  C22F10250   8.191   1.919  13.826 -0.1394 -0.4379 -0.8671
   7723SM  H22F10251   8.185   1.900  13.716  0.4700 -2.3794 -0.5999
   7723SM  H22G10252   8.095   1.899  13.877  1.4483 -2.4606  1.5682
   7723SM  C23F10253   8.284   1.813  13.887  0.3326  0.1525  0.3109
   7723SM  H23F10254   8.310   1.826  13.994  2.1259  2.0801 -0.2910
   7723SM  H23G10255   8.377   1.798  13.827 -0.5537  0.2423 -1.1508
   7723SM  H23H10256   8.233   1.714  13.882 -0.2890  0.5235 -2.0201
   7823SM     N10257   2.528   0.503  16.116  1.0346  0.1358 -0.1318
   7823SM   C1510258   2.676   0.503  16.129  1.0620 -0.3184  0.3695
   7823SM  H15A10259   2.702   0.491  16.234 -1.2623  1.9405  1.3062
   7823SM  H15B10260   2.712   0.604  16.113 -2.1460  0.8926  0.0216
   7823SM  H15C10261   2.725   0.425  16.073 -3.2208 -2.6905 -0.4828
   7823SM   C1410262   2.487   0.373  16.179 -0.4102  0.9993 -0.2402
   7823SM  H14A10263   2.520   0.376  16.281  1.1150  0.2479 -0.6812
   7823SM  H14B10264   2.539   0.291  16.132 -1.4431  0.4864 -0.5139
   7823SM  H14C10265   2.381   0.353  16.172  0.1962 -2.3574 -1.9369
   7823SM   C1310266   2.462   0.613  16.189 -0.0192  0.4362 -0.3729
   7823SM  H13A10267   2.355   0.620  16.178 -0.3019 -1.9913  0.3291
   7823SM  H13B10268   2.504   0.708  16.159  2.0992  0.2938  1.7719
   7823SM  H13C10269   2.487   0.612  16.294 -1.2200  0.4824 -0.0780
   7823SM   C1210270   2.494   0.513  15.970 -0.6729 -0.1667 -0.5391
   7823SM  H12A10271   2.532   0.429  15.914 -1.8910 -2.3559  1.6943
   7823SM  H12B10272   2.556   0.592  15.931 -2.1299  1.3482  0.1020
   7823SM   C1110273   2.347   0.536  15.928 -0.0809 -0.3525 -0.4903
   7823SM  H11A10274   2.355   0.541  15.817  2.8512  0.8566 -0.2956
   7823SM  H11B10275   2.311   0.636  15.962  0.3915 -0.2588 -0.2628
   7823SM     P10276   2.112   0.436  15.927 -0.1145 -0.0176 -0.3346
   7823SM   O1310277   2.049   0.306  15.953 -0.6237 -0.3878 -0.7635
   7823SM   O1410278   2.062   0.560  15.991 -0.2816  0.3697 -0.0133
   7823SM   O1110279   2.120   0.460  15.767 -0.5618 -0.4808  0.1160
   7823SM   O1210280   2.264   0.430  15.972  0.0450  0.3392  0.2033
   7823SM   C1S10281   2.165   0.359  15.678 -0.1963  0.0871 -0.6024
   7823SM   H1S10282   2.131   0.259  15.713 -1.9740  0.0413 -2.2824
   7823SM   H1T10283   2.276   0.356  15.673 -0.1875 -2.6026  0.1119
   7823SM    NF10284   2.142   0.276  15.457 -0.3900 -0.0151  0.1304
   7823SM   HNF10285   2.215   0.280  15.390  0.9534  0.0206  1.5468
   7823SM   C2S10286   2.110   0.388  15.539 -0.8362 -0.2957  0.1268
   7823SM   H2S10287   2.000   0.394  15.547 -0.8073 -0.5435  0.7494
   7823SM   C3S10288   2.173   0.515  15.478  0.8100  0.3688 -0.0293
   7823SM   H3S10289   2.283   0.499  15.473  0.7817 -0.7060  1.8104
   7823SM    O310290   2.145   0.629  15.563 -0.0911  0.0341 -0.4421
   7823SM   HO310291   2.116   0.588  15.645 -1.8325  0.0197 -1.0384
   7823SM   C4S10292   2.114   0.546  15.343  0.1843  0.5660  0.3739
   7823SM   H4S10293   2.005   0.537  15.351  0.1987 -0.6604 -0.4875
   7823SM   C5S10294   2.180   0.543  15.228 -0.7721  0.0369  0.7387
   7823SM   H5S10295   2.289   0.523  15.226 -0.5899  1.0260 -0.1821
   7823SM   C6S10296   2.121   0.548  15.092  0.2891 -0.1722  0.4658
   7823SM   H6S10297   2.136   0.647  15.042  0.9773 -0.5355 -0.0758
   7823SM   H6T10298   2.014   0.520  15.092  0.5835 -1.4453 -0.7560
   7823SM   C7S10299   2.195   0.459  14.987  0.2241  0.0135  1.0034
   7823SM   H7S10300   2.291   0.510  14.965  1.2006 -1.5941  1.4067
   7823SM   H7T10301   2.140   0.461  14.890  0.3466 -0.0053  0.9332
   7823SM   C8S10302   2.226   0.323  15.037  0.6453  1.1129  0.6558
   7823SM   H8S10303   2.142   0.267  15.083 -0.2928  1.4309 -0.6080
   7823SM   H8T10304   2.297   0.331  15.122  1.0719  1.5435  0.2670
   7823SM   C9S10305   2.300   0.224  14.934  0.2464 -0.0947 -0.0115
   7823SM   H9S10306   2.242   0.197  14.843  0.4061  1.7526 -0.7057
   7823SM   H9T10307   2.328   0.137  14.998  0.0012  0.3055  0.6490
   7823SM  C10S10308   2.443   0.273  14.899  0.4037 -0.1992 -0.3300
   7823SM  H10S10309   2.503   0.270  14.992  0.5789  0.5704 -0.4114
   7823SM  H10T10310   2.434   0.377  14.862 -2.6670 -0.8880 -1.8873
   7823SM  C11S10311   2.517   0.206  14.782 -0.8382  0.7044 -0.2435
   7823SM  H11S10312   2.514   0.095  14.786  1.3574  0.5955 -0.5798
   7823SM  H11T10313   2.625   0.230  14.779 -0.6054 -0.3891 -0.9047
   7823SM  C12S10314   2.465   0.242  14.640  0.2212 -0.3443 -0.2044
   7823SM  H12S10315   2.506   0.342  14.617  1.8275 -1.1115 -0.8368
   7823SM  H12T10316   2.356   0.255  14.623  0.1163 -1.3372 -0.3481
   7823SM  C13S10317   2.528   0.156  14.528  0.0590 -0.0034 -0.7676
   7823SM  H13S10318   2.508   0.054  14.568 -0.0743  0.9909  1.9200
   7823SM  H13T10319   2.639   0.167  14.525  0.1154  0.4973  1.4755
   7823SM  C14S10320   2.460   0.184  14.398  0.1899 -0.4356 -0.0649
   7823SM  H14S10321   2.467   0.292  14.373 -0.6555  0.1600  2.0620
   7823SM  H14T10322   2.356   0.146  14.400  1.1295 -3.2917  1.2169
   7823SM  C15S10323   2.525   0.136  14.269  0.0941  0.4032  0.2442
   7823SM  H15S10324   2.631   0.168  14.259  0.6410 -1.6855 -1.0904
   7823SM  H15T10325   2.475   0.167  14.175  0.4531 -0.0661 -0.1010
   7823SM  C16S10326   2.540  -0.021  14.273 -0.6153 -0.6520  0.3908
   7823SM  H16S10327   2.435  -0.057  14.264 -0.5591 -0.9735  0.9570
   7823SM  H16T10328   2.594  -0.063  14.360 -0.2935 -2.4672 -0.6472
   7823SM  C17S10329   2.620  -0.076  14.148  0.0229  0.1404  0.0921
   7823SM  H17S10330   2.690  -0.156  14.181  0.4366  0.6054  0.3550
   7823SM  H17T10331   2.682   0.004  14.104  1.3349  0.1641  1.8555
   7823SM  C18S10332   2.549  -0.145  14.030 -0.1029 -0.2680  0.1137
   7823SM  H18S10333   2.515  -0.243  14.071  2.4717 -1.6612 -0.8861
   7823SM  H18T10334   2.611  -0.156  13.938 -2.2012 -0.1029 -1.3876
   7823SM  H18U10335   2.458  -0.083  14.015 -0.5516 -0.6972  0.9550
   7823SM   C1F10336   2.074   0.160  15.465 -0.5043 -0.4542  0.0270
   7823SM    OF10337   1.982   0.150  15.543 -0.1120  0.1032  0.0714
   7823SM   C2F10338   2.113   0.054  15.369 -0.2277 -0.1985 -0.4999
   7823SM   H2F10339   2.212   0.015  15.398  1.5891  1.1969 -4.1901
   7823SM   H2G10340   2.135   0.106  15.273  2.7882  2.2696  1.3169
   7823SM   C3F10341   2.011  -0.059  15.360 -0.1699  0.1548  0.0215
   7823SM   H3F10342   1.915  -0.025  15.316 -0.0857 -1.5816 -1.6121
   7823SM   H3G10343   2.002  -0.101  15.463 -1.1648  2.5971  1.0076
   7823SM   C4F10344   2.053  -0.168  15.263 -0.2979  0.3155 -0.2777
   7823SM   H4F10345   2.160  -0.197  15.276 -1.0602 -2.8151 -0.2714
   7823SM   H4G10346   2.055  -0.119  15.163 -1.2038  0.3688 -0.2739
   7823SM   C5F10347   1.966  -0.294  15.275 -0.5971  0.1213  0.1232
   7823SM   H5F10348   1.993  -0.347  15.369  0.4165  3.1812  1.6931
   7823SM   H5G10349   2.009  -0.352  15.190  0.9171 -0.9305  1.5359
   7823SM   C6F10350   1.815  -0.288  15.255  0.2219  0.3619  0.6266
   7823SM   H6F10351   1.755  -0.255  15.342 -1.9538 -1.7255 -0.0006
   7823SM   H6G10352   1.786  -0.394  15.239 -0.6283  0.6609  0.1154
   7823SM   C7F10353   1.771  -0.198  15.133  0.6492 -0.2590  0.7662
   7823SM   H7F10354   1.814  -0.236  15.038  1.3816  0.6923  0.7044
   7823SM   H7G10355   1.796  -0.091  15.147 -3.2002  1.0822 -1.2563
   7823SM   C8F10356   1.613  -0.178  15.130 -0.2603  0.2243  0.3836
   7823SM   H8F10357   1.585  -0.156  15.235 -0.9359  0.2702  0.1964
   7823SM   H8G10358   1.562  -0.269  15.092 -0.5093  0.5736 -0.1241
   7823SM   C9F10359   1.570  -0.064  15.033 -0.7767  0.0811 -0.0950
   7823SM   H9F10360   1.590   0.037  15.075 -0.6393 -0.9355  2.4923
   7823SM   H9G10361   1.460  -0.068  15.020 -0.8858  2.2915 -0.2343
   7823SM  C10F10362   1.625  -0.066  14.882  0.3030  0.2219 -0.5180
   7823SM  H10F10363   1.618  -0.170  14.843  1.3342 -0.0246 -0.0602
   7823SM  H10G10364   1.731  -0.035  14.892 -0.0806  1.0869  1.2980
   7823SM  C11F10365   1.537   0.021  14.805  0.7397 -0.8629  0.4671
   7823SM  H11F10366   1.591   0.059  14.715  2.5685 -0.3704  1.7121
   7823SM  H11G10367   1.502   0.109  14.863 -0.8071 -1.3816  0.3610
   7823SM  C12F10368   1.407  -0.048  14.760 -0.4173  0.3581 -0.2439
   7823SM  H12F10369   1.349  -0.062  14.853  2.3749 -0.3441  1.5369
   7823SM  H12G10370   1.428  -0.148  14.717 -1.1948 -0.7433  1.8010
   7823SM  C13F10371   1.319   0.027  14.659 -0.4395  0.4809 -0.0563
   7823SM  H13F10372   1.375   0.064  14.570  1.2146 -1.9866 -0.1184
   7823SM  H13G10373   1.290   0.121  14.711 -0.1000  0.4737  0.1460
   7823SM  C14F10374   1.195  -0.054  14.607  0.2559 -0.2241  0.4041
   7823SM  H14F10375   1.119  -0.069  14.687 -0.3593  0.6320 -0.0009
   7823SM  H14G10376   1.236  -0.154  14.583 -0.7520 -0.2102 -1.5107
   7823SM  C15F10377   1.127   0.026  14.499  0.0162  0.0975  0.7723
   7823SM  H15F10378   1.200   0.037  14.416  0.1375 -0.6627  0.7704
   7823SM  H15G10379   1.100   0.123  14.545 -2.4963 -0.6429  1.0252
   7823SM  C16F10380   1.002  -0.045  14.445  0.2157  0.1278  0.2979
   7823SM  H16F10381   0.914  -0.028  14.511  0.2156 -0.7967  0.5467
   7823SM  H16G10382   1.032  -0.152  14.439 -2.5592 -0.7940  1.3716
   7823SM  C17F10383   0.973  -0.009  14.297 -0.5187 -0.0897  0.5285
   7823SM  H17F10384   0.891  -0.073  14.257 -1.3931  1.9975 -1.2202
   7823SM  H17G10385   1.057  -0.034  14.229 -1.2390  0.1413 -0.4665
   7823SM  C18F10386   0.946   0.141  14.279 -0.0421 -0.7167  0.1283
   7823SM  H18F10387   1.025   0.210  14.317 -0.8989 -0.7298  2.0874
   7823SM  H18G10388   0.861   0.176  14.342  1.2308  1.3513  0.7736
   7823SM  C19F10389   0.918   0.171  14.129 -0.8105  0.0448 -0.2077
   7823SM  H19F10390   0.849   0.096  14.085  1.1647 -1.9100 -0.1777
   7823SM  H19G10391   1.012   0.145  14.075 -1.2365 -0.2894 -0.8019
   7823SM  C20F10392   0.883   0.317  14.090  0.2547  0.0474 -0.4878
   7823SM  H20F10393   0.890   0.329  13.980 -1.8719  1.3861 -0.5557
   7823SM  H20G10394   0.964   0.381  14.132  0.7470 -1.7190  1.4120
   7823SM  C21F10395   0.752   0.368  14.154  0.2774  0.2539 -0.4201
   7823SM  H21F10396   0.770   0.375  14.263  2.9494  2.1288 -0.8809
   7823SM  H21G10397   0.675   0.290  14.138  0.7186 -0.2758  0.0105
   7823SM  C22F10398   0.702   0.502  14.100 -0.2022  0.3690  0.1043
   7823SM  H22F10399   0.697   0.492  13.990 -0.8085 -1.6936  0.2639
   7823SM  H22G10400   0.776   0.582  14.121 -0.8808  0.1712  4.2529
   7823SM  C23F10401   0.565   0.540  14.156 -0.3519  0.2209  0.3058
   7823SM  H23F10402   0.558   0.534  14.267 -0.3187 -1.2645  0.2466
   7823SM  H23G10403   0.495   0.469  14.106 -0.1417  0.7103 -0.7076
   7823SM  H23H10404   0.535   0.644  14.135  0.6719  0.6068  0.6942
   7923SM     N10405   6.855   8.359  15.823  0.2334 -0.1149 -0.2329
   7923SM   C1510406   6.728   8.306  15.876 -0.0986  0.4166 -0.5482
   7923SM  H15A10407   6.677   8.237  15.811 -1.0151 -0.8732  1.4401
   7923SM  H15B10408   6.652   8.379  15.898 -3.3083 -0.7089 -5.9761
   7923SM  H15C10409   6.732   8.255  15.971 -0.7594  1.2199 -0.0732
   7923SM   C1410410   6.966   8.255  15.810 -0.1485  0.0529  0.0964
   7923SM  H14A10411   7.003   8.241  15.910 -0.0632  1.1756  0.2319
   7923SM  H14B10412   7.052   8.277  15.750 -0.3288 -2.3397 -1.1859
   7923SM  H14C10413   6.925   8.164  15.769 -2.8622  0.5268  1.5077
   7923SM   C1310414   6.821   8.413  15.686 -0.0229  0.5271 -0.1953
   7923SM  H13A10415   6.782   8.335  15.622  1.6013 -0.4613 -0.0312
   7923SM  H13B10416   6.907   8.466  15.646  1.6446 -1.1754  0.9708
   7923SM  H13C10417   6.746   8.490  15.697  0.1142  0.7203 -0.5716
   7923SM   C1210418   6.910   8.467  15.911  0.0799 -0.4817 -0.2153
   7923SM  H12A10419   6.843   8.551  15.920  0.5196 -0.1382 -0.1349
   7923SM  H12B10420   7.004   8.510  15.880 -0.2708  1.2451  0.9482
   7923SM   C1110421   6.939   8.434  16.061  0.3603  0.1452 -0.2095
   7923SM  H11A10422   6.855   8.368  16.092  0.7766 -0.9482 -1.3214
   7923SM  H11B10423   6.928   8.525  16.123  5.0314  0.6360  0.2341
   7923SM     P10424   7.201   8.429  16.066 -0.0587 -0.3159  0.1456
   7923SM   O1310425   7.222   8.522  16.177 -0.1106  0.0409 -0.1241
   7923SM   O1410426   7.300   8.314  16.043  0.5488 -0.4728 -0.0100
   7923SM   O1110427   7.186   8.520  15.931  0.1778  0.0975 -0.1843
   7923SM   O1210428   7.059   8.371  16.074  0.2499  0.6124  0.4352
   7923SM   C1S10429   7.284   8.514  15.827 -0.3813 -0.0435 -0.5760
   7923SM   H1S10430   7.252   8.433  15.757 -1.0314 -2.8610  2.6968
   7923SM   H1T10431   7.383   8.478  15.864 -0.1839 -0.7379 -1.7244
   7923SM    NF10432   7.346   8.627  15.610  0.7839  0.0710 -0.1517
   7923SM   HNF10433   7.442   8.637  15.586  0.9718 -1.3873 -0.1079
   7923SM   C2S10434   7.303   8.645  15.750 -0.3019  0.1961  0.2641
   7923SM   H2S10435   7.205   8.698  15.752  0.3884  1.7752 -2.2685
   7923SM   C3S10436   7.396   8.740  15.833  0.8832 -0.5263 -0.2963
   7923SM   H3S10437   7.496   8.694  15.849  1.1865  0.2262  0.0164
   7923SM    O310438   7.339   8.767  15.959 -0.2022  0.5362  0.0180
   7923SM   HO310439   7.275   8.698  15.977  2.6806 -1.5495  3.9382
   7923SM   C4S10440   7.424   8.871  15.762  0.2098  0.3257 -0.6420
   7923SM   H4S10441   7.530   8.870  15.730  0.1356 -1.9039 -0.9958
   7923SM   C5S10442   7.352   8.980  15.745 -0.3063 -0.1255  0.1926
   7923SM   H5S10443   7.252   8.984  15.793  0.0997  2.0551  0.9996
   7923SM   C6S10444   7.395   9.102  15.670  0.5858  0.2603  0.2905
   7923SM   H6S10445   7.485   9.090  15.606  1.4141 -0.2109  1.5015
   7923SM   H6T10446   7.444   9.171  15.743  1.8573  0.4034 -0.6627
   7923SM   C7S10447   7.283   9.182  15.600 -0.8807  0.5748  0.5319
   7923SM   H7S10448   7.326   9.268  15.545  0.4058  0.2612  1.0188
   7923SM   H7T10449   7.218   9.223  15.681  0.6328  2.4811  0.8582
   7923SM   C8S10450   7.194   9.099  15.507 -0.4648 -0.3971  0.2405
   7923SM   H8S10451   7.089   9.133  15.499 -0.4466  0.1321  1.8812
   7923SM   H8T10452   7.182   8.997  15.549  0.2264 -0.7513 -0.3934
   7923SM   C9S10453   7.265   9.091  15.365  0.1226 -0.4766 -1.1236
   7923SM   H9S10454   7.372   9.067  15.385 -0.1306  0.6677  2.3979
   7923SM   H9T10455   7.248   9.191  15.319  0.7153  0.9744  1.5523
   7923SM  C10S10456   7.210   8.968  15.286  0.0521 -0.4235 -0.2122
   7923SM  H10S10457   7.242   8.879  15.346  1.6239  0.3182  0.1002
   7923SM  H10T10458   7.251   8.959  15.183  1.4395 -1.7597  0.4106
   7923SM  C11S10459   7.062   8.976  15.274  0.3851 -0.2828 -0.4174
   7923SM  H11S10460   7.043   9.079  15.238 -0.8858 -0.7458 -1.1488
   7923SM  H11T10461   7.016   8.957  15.374 -0.8313 -2.1655 -1.2812
   7923SM  C12S10462   7.011   8.861  15.184 -0.3256 -0.1863 -0.0215
   7923SM  H12S10463   6.910   8.835  15.223 -0.6799  1.0058 -0.1139
   7923SM  H12T10464   7.070   8.771  15.210 -0.7002 -0.3103  0.4067
   7923SM  C13S10465   7.018   8.880  15.032 -0.0281  0.0552 -0.4606
   7923SM  H13S10466   7.023   8.780  14.982 -1.1117 -1.3909  2.1506
   7923SM  H13T10467   7.118   8.926  15.018 -0.2786  0.2586 -1.6843
   7923SM  C14S10468   6.900   8.965  14.981 -0.1639  0.2485 -0.2755
   7923SM  H14S10469   6.927   8.996  14.877  0.6099 -1.5984 -0.6638
   7923SM  H14T10470   6.881   9.054  15.045  0.0830 -0.3620  0.6515
   7923SM  C15S10471   6.770   8.883  14.970 -1.0818 -0.1400  1.0901
   7923SM  H15S10472   6.735   8.853  15.071 -1.7723 -1.0019  0.6036
   7923SM  H15T10473   6.791   8.791  14.912  2.1079  1.7446 -1.1094
   7923SM  C16S10474   6.661   8.962  14.900  0.1056  0.5611  0.5882
   7923SM  H16S10475   6.690   8.982  14.795  0.9658 -1.8369  0.3131
   7923SM  H16T10476   6.650   9.060  14.952 -1.1964  1.5004 -1.3201
   7923SM  C17S10477   6.520   8.904  14.900  0.5372  0.0632  0.1132
   7923SM  H17S10478   6.491   8.902  15.007 -0.1934 -1.3922 -0.0716
   7923SM  H17T10479   6.536   8.798  14.868 -0.0165  0.0391 -0.0883
   7923SM  C18S10480   6.425   8.971  14.800  0.0366  0.0081 -0.4873
   7923SM  H18S10481   6.408   9.077  14.828  2.0776  0.1814  0.2583
   7923SM  H18T10482   6.329   8.916  14.793 -0.4312  0.5825  1.0283
   7923SM  H18U10483   6.468   8.982  14.698  1.5577  1.0936  0.2305
   7923SM   C1F10484   7.261   8.581  15.524  0.2659 -0.3913 -0.2143
   7923SM    OF10485   7.145   8.577  15.562 -0.3157  0.5302  0.0960
   7923SM   C2F10486   7.312   8.546  15.396 -0.1349 -0.4705  1.0963
   7923SM   H2F10487   7.403   8.483  15.407 -0.4904 -0.9085  1.6069
   7923SM   H2G10488   7.354   8.631  15.339 -2.7072  0.5681  0.6254
   7923SM   C3F10489   7.204   8.484  15.295 -0.5940 -0.2359  0.0299
   7923SM   H3F10490   7.120   8.555  15.279 -1.8477 -1.5179  0.7168
   7923SM   H3G10491   7.161   8.394  15.343 -1.5180  0.6735  0.9650
   7923SM   C4F10492   7.272   8.442  15.168 -0.3760  0.0871  0.0468
   7923SM   H4F10493   7.349   8.368  15.202 -1.6876 -0.7679  1.2443
   7923SM   H4G10494   7.332   8.531  15.140  0.0540 -0.1584  0.1625
   7923SM   C5F10495   7.193   8.396  15.047  0.5451 -0.3547  0.5083
   7923SM   H5F10496   7.092   8.443  15.050  0.4745 -0.3657 -0.8542
   7923SM   H5G10497   7.160   8.290  15.057 -0.1967 -0.2230 -0.4552
   7923SM   C6F10498   7.249   8.433  14.907  0.3114 -0.4500  0.4308
   7923SM   H6F10499   7.344   8.380  14.882 -0.1794 -0.9215 -0.5014
   7923SM   H6G10500   7.280   8.539  14.916 -1.1923 -0.1607  3.2227
   7923SM   C7F10501   7.145   8.408  14.791 -0.2121  0.1077 -0.0802
   7923SM   H7F10502   7.192   8.436  14.695 -0.9188 -1.9347 -1.0813
   7923SM   H7G10503   7.066   8.485  14.805  0.0253  0.1975  0.8871
   7923SM   C8F10504   7.077   8.269  14.783  0.8816  0.4974  0.1983
   7923SM   H8F10505   6.998   8.264  14.705  1.2511 -2.9513 -0.1205
   7923SM   H8G10506   7.023   8.245  14.877 -0.4321 -0.9038 -0.8528
   7923SM   C9F10507   7.168   8.153  14.756  0.6871  0.4048  0.1953
   7923SM   H9F10508   7.243   8.133  14.835  2.4731  0.6432 -1.3627
   7923SM   H9G10509   7.237   8.176  14.671  0.4737 -1.1411 -0.4155
   7923SM  C10F10510   7.073   8.038  14.711 -0.9110 -0.0514 -0.1890
   7923SM  H10F10511   7.130   7.957  14.661 -2.0835 -0.5114 -0.8158
   7923SM  H10G10512   7.005   8.069  14.628  2.6484  1.7506 -2.6769
   7923SM  C11F10513   7.005   7.966  14.829  0.6855 -0.6979 -0.4215
   7923SM  H11F10514   6.981   8.040  14.909 -2.0087 -2.3602  0.4232
   7923SM  H11G10515   7.071   7.892  14.879  1.5828 -1.4955 -2.6652
   7923SM  C12F10516   6.886   7.879  14.777 -0.0529 -0.0228  0.1258
   7923SM  H12F10517   6.923   7.811  14.698  0.5106  0.8678 -0.3919
   7923SM  H12G10518   6.810   7.953  14.744  0.6170  1.1857  1.1967
   7923SM  C13F10519   6.822   7.801  14.890  0.8289  0.9489  0.1080
   7923SM  H13F10520   6.765   7.869  14.956 -1.2720 -0.3316 -0.3107
   7923SM  H13G10521   6.898   7.741  14.944  1.6727  2.5743  0.8213
   7923SM  C14F10522   6.721   7.703  14.831  0.6273 -0.3274 -0.3426
   7923SM  H14F10523   6.760   7.620  14.770  1.2458  0.0949 -0.5376
   7923SM  H14G10524   6.651   7.759  14.764  1.6013  0.5894 -0.6315
   7923SM  C15F10525   6.629   7.644  14.941 -0.0802  0.4913  0.4980
   7923SM  H15F10526   6.589   7.725  15.006  1.2764 -0.4471  2.6240
   7923SM  H15G10527   6.700   7.581  14.999  1.1859 -2.5965 -3.9048
   7923SM  C16F10528   6.514   7.567  14.882  0.6168  0.5434  0.1297
   7923SM  H16F10529   6.546   7.513  14.790  1.8996 -0.5754  1.1828
   7923SM  H16G10530   6.431   7.637  14.858  1.1667  0.9016 -0.7694
   7923SM  C17F10531   6.458   7.462  14.977  0.4852  0.2366  0.2814
   7923SM  H17F10532   6.451   7.513  15.075  1.0355  1.9605 -0.5421
   7923SM  H17G10533   6.515   7.367  14.982 -1.4622 -1.0918 -1.2460
   7923SM  C18F10534   6.315   7.415  14.922  0.4033  0.0036  0.5664
   7923SM  H18F10535   6.275   7.326  14.975  0.1672 -0.2242  0.0165
   7923SM  H18G10536   6.329   7.383  14.816 -0.5218 -4.1990  1.5213
   7923SM  C19F10537   6.204   7.529  14.929 -0.2497  0.2058 -0.7113
   7923SM  H19F10538   6.216   7.602  14.845  0.6209  0.3522 -0.4666
   7923SM  H19G10539   6.225   7.592  15.018  1.3206 -0.9066 -0.2526
   7923SM  C20F10540   6.060   7.466  14.935 -0.7460  0.2187  0.7380
   7923SM  H20F10541   6.032   7.445  15.041 -0.5134 -0.7735  0.6113
   7923SM  H20G10542   6.071   7.374  14.875  1.7446  1.1860 -0.4219
   7923SM  C21F10543   5.947   7.562  14.892  0.2372  0.1505 -0.2447
   7923SM  H21F10544   5.860   7.495  14.875  1.2847 -1.3854  0.2942
   7923SM  H21G10545   5.961   7.621  14.798  0.7415 -0.3283 -0.4730
   7923SM  C22F10546   5.910   7.653  15.005 -0.0285  0.0493  0.1064
   7923SM  H22F10547   6.001   7.685  15.059 -1.4819  0.4834  2.4258
   7923SM  H22G10548   5.847   7.608  15.085 -0.9591  2.1339  0.6261
   7923SM  C23F10549   5.833   7.774  14.952  0.3037  0.4553 -0.5599
   7923SM  H23F10550   5.742   7.734  14.903  0.4961 -0.1909 -0.4096
   7923SM  H23G10551   5.903   7.819  14.879 -0.2901  2.8171  0.2401
   7923SM  H23H10552   5.811   7.845  15.035 -0.5227  0.8788 -1.1313
   8023SM     N10553   0.991   0.594  16.014 -0.5818 -0.1491 -1.2749
   8023SM   C1510554   1.087   0.557  15.911  0.2604  0.2447  0.1287
   8023SM  H15A10555   1.145   0.646  15.891  0.2986 -0.3199 -2.6127
   8023SM  H15B10556   1.042   0.522  15.820 -1.0449  0.0523  0.8185
   8023SM  H15C10557   1.159   0.483  15.943  0.1394  0.0600 -0.0241
   8023SM   C1410558   0.931   0.463  16.058 -0.4713 -0.5767 -0.5033
   8023SM  H14A10559   1.018   0.403  16.083  0.9298  1.2694 -0.6772
   8023SM  H14B10560   0.872   0.417  15.981 -0.5147  1.2910 -1.6448
   8023SM  H14C10561   0.877   0.470  16.151  2.0111 -1.4931  1.1407
   8023SM   C1310562   1.061   0.655  16.130 -0.2997  0.2948 -0.8006
   8023SM  H13A10563   0.996   0.673  16.214 -0.9376 -3.5024 -0.3171
   8023SM  H13B10564   1.088   0.757  16.106 -0.7456  0.2998 -1.2951
   8023SM  H13C10565   1.144   0.596  16.165 -1.2905 -1.7557 -1.7511
   8023SM   C1210566   0.887   0.692  15.956 -0.1797  0.7252 -0.4402
   8023SM  H12A10567   0.811   0.714  16.029 -1.7061  0.0666 -1.7575
   8023SM  H12B10568   0.835   0.648  15.872  1.9097 -0.1419 -1.3542
   8023SM   C1110569   0.929   0.826  15.896  0.5721 -0.3490 -0.3045
   8023SM  H11A10570   0.972   0.888  15.977  0.4044 -1.0828  0.3589
   8023SM  H11B10571   0.842   0.888  15.867  0.6168 -0.0576  0.1849
   8023SM     P10572   1.095   0.923  15.724 -0.0865  0.3502  0.0576
   8023SM   O1310573   0.999   1.030  15.695  0.5644  0.1179 -0.1845
   8023SM   O1410574   1.210   0.954  15.812  0.4750  0.1103 -0.2128
   8023SM   O1110575   1.148   0.856  15.591 -0.5748  0.1298  0.0894
   8023SM   O1210576   1.017   0.806  15.784  0.2440  0.5917  0.0817
   8023SM   C1S10577   1.203   0.722  15.589 -0.3790  0.0711  0.1968
   8023SM   H1S10578   1.143   0.650  15.650  0.2725 -1.2147 -0.6391
   8023SM   H1T10579   1.302   0.722  15.640  1.0245  0.1004 -2.3593
   8023SM    NF10580   1.273   0.523  15.464 -0.0911  0.6566  0.0363
   8023SM   HNF10581   1.373   0.519  15.455 -0.2248 -1.2944 -1.1702
   8023SM   C2S10582   1.227   0.657  15.443  0.2522 -0.4439 -0.8885
   8023SM   H2S10583   1.125   0.660  15.400 -0.8130 -0.7643  1.4714
   8023SM   C3S10584   1.317   0.747  15.355  0.2203  0.4208  0.0623
   8023SM   H3S10585   1.415   0.741  15.406  0.2914 -0.5542 -0.1676
   8023SM    O310586   1.272   0.883  15.362  0.8063 -0.1161 -0.3677
   8023SM   HO310587   1.194   0.872  15.415  0.6410 -0.8826 -0.7556
   8023SM   C4S10588   1.326   0.704  15.213  0.0270  0.4086 -0.0719
   8023SM   H4S10589   1.386   0.614  15.196  0.5893  0.8382 -0.3838
   8023SM   C5S10590   1.246   0.730  15.104 -0.1781 -0.2704 -0.0985
   8023SM   H5S10591   1.155   0.792  15.111 -1.4788 -2.0969 -0.0933
   8023SM   C6S10592   1.246   0.656  14.972 -0.4321  0.0259  0.0373
   8023SM   H6S10593   1.253   0.721  14.882 -0.4289 -1.5811 -1.1521
   8023SM   H6T10594   1.145   0.612  14.959  0.2266 -1.3882 -0.4919
   8023SM   C7S10595   1.339   0.540  14.952  0.1858 -0.2228 -0.3162
   8023SM   H7S10596   1.304   0.464  15.025 -0.0783  0.1273 -0.0726
   8023SM   H7T10597   1.441   0.567  14.985 -0.3919 -0.9446  2.3091
   8023SM   C8S10598   1.356   0.462  14.823 -0.3528  0.3838 -0.1087
   8023SM   H8S10599   1.258   0.444  14.775 -0.7218  1.8120  0.0853
   8023SM   H8T10600   1.407   0.363  14.833 -1.8466 -0.8584 -3.3925
   8023SM   C9S10601   1.439   0.554  14.731 -0.1458 -0.8569  0.3504
   8023SM   H9S10602   1.517   0.607  14.790  0.1689  0.6012 -1.2831
   8023SM   H9T10603   1.391   0.640  14.679 -0.0176 -2.5264 -2.7547
   8023SM  C10S10604   1.499   0.468  14.623 -0.1356  0.4061 -0.3523
   8023SM  H10S10605   1.528   0.370  14.666 -1.1348  0.2653  0.0113
   8023SM  H10T10606   1.590   0.521  14.588 -0.1405  0.8002  0.2152
   8023SM  C11S10607   1.408   0.436  14.505  0.2947 -0.0978  0.5334
   8023SM  H11S10608   1.372   0.530  14.458 -1.6116 -1.3326 -0.6155
   8023SM  H11T10609   1.318   0.379  14.539  0.4485 -0.0935  0.9458
   8023SM  C12S10610   1.468   0.349  14.394  0.8934 -0.3941  0.5329
   8023SM  H12S10611   1.460   0.244  14.429 -0.6248  0.1142  1.7979
   8023SM  H12T10612   1.574   0.384  14.394  0.2467  1.7279  1.9694
   8023SM  C13S10613   1.417   0.375  14.248  0.3738 -0.2215  0.0091
   8023SM  H13S10614   1.444   0.477  14.213  1.4581 -0.8275 -1.0305
   8023SM  H13T10615   1.306   0.373  14.249  0.3558  0.4523 -0.1740
   8023SM  C14S10616   1.460   0.263  14.147  0.6810  0.1494 -0.1785
   8023SM  H14S10617   1.419   0.166  14.181 -1.5771  0.7353 -0.9934
   8023SM  H14T10618   1.570   0.252  14.149  0.8591  1.3379 -1.4623
   8023SM  C15S10619   1.420   0.283  14.002  0.7890  0.4134 -0.4841
   8023SM  H15S10620   1.461   0.205  13.936  1.3056 -0.5173  0.8844
   8023SM  H15T10621   1.452   0.383  13.963  1.2602  0.5016  0.1083
   8023SM  C16S10622   1.269   0.269  13.974 -0.7643 -0.0275  0.4581
   8023SM  H16S10623   1.210   0.335  14.041 -1.4222 -1.5467  1.4305
   8023SM  H16T10624   1.220   0.169  13.975 -2.0510  0.5696 -0.0784
   8023SM  C17S10625   1.229   0.310  13.835  0.7363  0.2069  0.5635
   8023SM  H17S10626   1.119   0.304  13.822  0.2898  3.7234  1.7132
   8023SM  H17T10627   1.272   0.245  13.755  0.0992 -1.9683  1.8974
   8023SM  C18S10628   1.263   0.459  13.797 -0.2075  0.0987 -0.2476
   8023SM  H18S10629   1.371   0.471  13.775 -0.1801 -0.1193 -0.2323
   8023SM  H18T10630   1.234   0.524  13.882  0.8390 -1.9142  1.7556
   8023SM  H18U10631   1.207   0.482  13.704 -1.4757 -1.7251  0.0061
   8023SM   C1F10632   1.191   0.427  15.518 -0.7124  0.0342  0.9319
   8023SM    OF10633   1.082   0.455  15.550 -0.4906  0.1225 -0.2347
   8023SM   C2F10634   1.260   0.298  15.532 -0.0662  0.1663 -0.0916
   8023SM   H2F10635   1.225   0.261  15.631 -0.6030  2.7300  0.7630
   8023SM   H2G10636   1.370   0.307  15.541  0.1111 -2.5903  1.8933
   8023SM   C3F10637   1.228   0.192  15.429  0.6000 -0.8058  0.1504
   8023SM   H3F10638   1.123   0.164  15.452  0.3473  0.2114  0.2708
   8023SM   H3G10639   1.297   0.105  15.436 -1.1189 -2.1760  0.6852
   8023SM   C4F10640   1.234   0.238  15.279 -0.1543  0.5071  0.9169
   8023SM   H4F10641   1.338   0.263  15.248 -1.0842  3.1468 -0.4450
   8023SM   H4G10642   1.182   0.337  15.276 -1.0668  0.0287 -0.9912
   8023SM   C5F10643   1.162   0.144  15.186  0.0497 -0.1567  0.6087
   8023SM   H5F10644   1.062   0.126  15.229  1.4433 -1.9136  3.3955
   8023SM   H5G10645   1.222   0.052  15.171  2.0724  1.3281 -1.0432
   8023SM   C6F10646   1.143   0.228  15.052 -0.0302 -0.0208 -0.0993
   8023SM   H6F10647   1.102   0.146  14.989  0.1754 -1.1901  1.2222
   8023SM   H6G10648   1.237   0.261  15.003  0.5181 -1.1681  0.1319
   8023SM   C7F10649   1.042   0.336  15.067 -0.2180 -0.7628  0.1172
   8023SM   H7F10650   1.085   0.425  15.117 -1.0552 -1.7009  2.6841
   8023SM   H7G10651   0.961   0.301  15.135 -0.0384 -0.7270  0.3484
   8023SM   C8F10652   0.979   0.390  14.932  0.1114 -0.1248  0.1112
   8023SM   H8F10653   1.052   0.446  14.870 -0.4689  1.8920  1.1787
   8023SM   H8G10654   0.896   0.457  14.964 -0.1894 -0.4639  0.0583
   8023SM   C9F10655   0.920   0.285  14.835 -0.6742  0.5877  0.1779
   8023SM   H9F10656   0.881   0.205  14.902 -2.4622 -0.2668 -1.7817
   8023SM   H9G10657   0.998   0.227  14.780  0.4878  0.9053  1.4373
   8023SM  C10F10658   0.812   0.328  14.742 -0.0458  0.3533 -0.4080
   8023SM  H10F10659   0.825   0.278  14.644 -1.2237  1.8062 -1.3593
   8023SM  H10G10660   0.824   0.438  14.727  3.1175  0.3462  1.2932
   8023SM  C11F10661   0.670   0.320  14.806 -0.1666 -0.0450  0.2120
   8023SM  H11F10662   0.675   0.390  14.892  1.1267  0.3632 -0.1695
   8023SM  H11G10663   0.658   0.218  14.848  1.8166 -1.3100 -2.0266
   8023SM  C12F10664   0.556   0.340  14.706  0.3170 -0.2391  0.2768
   8023SM  H12F10665   0.587   0.420  14.635  1.3404 -0.1393  0.8179
   8023SM  H12G10666   0.459   0.369  14.751 -0.7066 -1.6584 -0.9222
   8023SM  C13F10667   0.535   0.212  14.620  0.8387  1.0010 -0.6466
   8023SM  H13F10668   0.501   0.126  14.681  2.0977 -0.1102 -1.4644
   8023SM  H13G10669   0.642   0.194  14.592  0.8411  2.3320 -1.6182
   8023SM  C14F10670   0.453   0.221  14.490 -0.3979  0.4655 -0.6122
   8023SM  H14F10671   0.504   0.294  14.424 -0.4429  3.3616  2.3540
   8023SM  H14G10672   0.349   0.254  14.514 -0.7466  0.1680 -1.6400
   8023SM  C15F10673   0.436   0.084  14.419 -0.1890 -0.7380  0.4462
   8023SM  H15F10674   0.363   0.104  14.338  0.8252  0.1971 -0.2723
   8023SM  H15G10675   0.410   0.007  14.495 -0.0311 -1.2761 -0.0406
   8023SM  C16F10676   0.559   0.034  14.344 -0.1006  0.3872  0.3216
   8023SM  H16F10677   0.637   0.009  14.419 -1.3009  1.7119  2.0822
   8023SM  H16G10678   0.599   0.115  14.281 -0.3467 -0.7851 -1.4094
   8023SM  C17F10679   0.526  -0.071  14.242 -0.0709  0.0350 -0.0546
   8023SM  H17F10680   0.612  -0.100  14.178  0.6832 -1.5704  1.5734
   8023SM  H17G10681   0.442  -0.043  14.175 -1.5421 -1.9696  0.8543
   8023SM  C18F10682   0.479  -0.203  14.316 -0.7986 -0.1793 -0.4201
   8023SM  H18F10683   0.401  -0.171  14.388 -0.5103 -2.4500  0.9980
   8023SM  H18G10684   0.565  -0.225  14.383 -0.9765 -1.5268 -0.6060
   8023SM  C19F10685   0.445  -0.323  14.229  0.2988  0.2801  0.0045
   8023SM  H19F10686   0.536  -0.381  14.203  0.1928  0.2088 -0.2088
   8023SM  H19G10687   0.388  -0.280  14.144 -1.7934  1.7405  2.0273
   8023SM  C20F10688   0.354  -0.430  14.305  0.5975  0.0408 -0.2392
   8023SM  H20F10689   0.275  -0.475  14.242  1.0806  0.0753 -0.8757
   8023SM  H20G10690   0.309  -0.365  14.383  0.3017 -0.3210 -0.1074
   8023SM  C21F10691   0.449  -0.545  14.360 -0.5935 -0.5673  0.0089
   8023SM  H21F10692   0.396  -0.594  14.444 -1.3032  1.1736  0.6402
   8023SM  H21G10693   0.548  -0.503  14.389 -0.7989 -0.2468  0.2550
   8023SM  C22F10694   0.470  -0.637  14.240 -0.5226 -0.0927 -0.0421
   8023SM  H22F10695   0.469  -0.587  14.141 -2.7716  1.6700  0.7645
   8023SM  H22G10696   0.386  -0.710  14.243 -1.0110  0.4250 -0.8231
   8023SM  C23F10697   0.598  -0.719  14.258 -0.6088 -0.0341  0.1916
   8023SM  H23F10698   0.586  -0.779  14.350  0.0669 -1.8495 -0.8458
   8023SM  H23G10699   0.685  -0.652  14.268 -0.0182 -0.8406  0.6199
   8023SM  H23H10700   0.612  -0.782  14.167  0.7386  0.0091  0.3467
   8123SM     N10701   3.699   3.894  12.099  0.2335 -0.0677 -0.3908
   8123SM   C1510702   3.719   3.761  12.169  0.4982 -0.0862  0.1466
   8123SM  H15A10703   3.636   3.728  12.231  1.1609 -2.2745 -0.0586
   8123SM  H15B10704   3.803   3.756  12.236  0.6915 -2.3820 -0.1774
   8123SM  H15C10705   3.736   3.683  12.096  2.2547 -1.1352  1.5818
   8123SM   C1410706   3.838   3.928  12.054 -0.3972 -0.1057 -0.4307
   8123SM  H14A10707   3.874   3.840  12.004  0.7846 -1.9624  3.3184
   8123SM  H14B10708   3.910   3.947  12.132  0.1201 -0.5966 -0.7863
   8123SM  H14C10709   3.837   4.018  11.993 -0.2610  1.5916  1.9311
   8123SM   C1310710   3.614   3.894  11.976 -0.4269  0.2637  0.0067
   8123SM  H13A10711   3.635   3.821  11.899 -0.0066  0.4238 -0.0340
   8123SM  H13B10712   3.623   3.994  11.935  1.4680  0.2859  0.4103
   8123SM  H13C10713   3.512   3.875  12.006 -0.0412  0.3104  1.3963
   8123SM   C1210714   3.648   3.999  12.203  0.4289  0.2951 -0.5168
   8123SM  H12A10715   3.668   4.091  12.149 -0.3043  0.5776 -0.3163
   8123SM  H12B10716   3.697   4.001  12.299  0.2840  3.0303 -0.4244
   8123SM   C1110717   3.494   3.985  12.237  0.0983  0.1334  0.7306
   8123SM  H11A10718   3.438   3.984  12.141  3.0491  1.6735 -1.1414
   8123SM  H11B10719   3.472   4.081  12.288  1.1127  1.5686 -1.3873
   8123SM     P10720   3.481   3.844  12.457 -0.1311  0.0394  0.1947
   8123SM   O1310721   3.366   3.899  12.527  0.1713  0.3150 -0.0282
   8123SM   O1410722   3.504   3.699  12.485 -0.3158 -0.2956  0.4414
   8123SM   O1110723   3.613   3.928  12.483  0.2314  0.3311 -0.2288
   8123SM   O1210724   3.452   3.863  12.307 -0.3955 -0.3381 -0.3522
   8123SM   C1S10725   3.614   4.020  12.582  0.0587 -0.1246 -0.2572
   8123SM   H1S10726   3.539   4.008  12.663 -2.0424  0.4543 -2.0290
   8123SM   H1T10727   3.594   4.119  12.537  1.3344  0.0800 -0.4080
   8123SM    NF10728   3.744   4.081  12.780 -0.4364  0.0094 -0.0962
   8123SM   HNF10729   3.783   4.172  12.775 -2.2963  0.8689  0.4416
   8123SM   C2S10730   3.751   4.018  12.649 -0.7995 -0.2649 -0.2300
   8123SM   H2S10731   3.782   3.915  12.677  0.1073 -0.1888 -0.9008
   8123SM   C3S10732   3.863   4.066  12.554  0.3721  0.7509  0.7776
   8123SM   H3S10733   3.831   4.162  12.506  1.1135  0.8703  0.5146
   8123SM    O310734   3.889   3.978  12.442  0.2230 -0.1436 -0.0499
   8123SM   HO310735   3.821   3.911  12.433  0.2128  0.1697 -3.2699
   8123SM   C4S10736   3.983   4.097  12.631 -1.1323  0.3295 -0.1131
   8123SM   H4S10737   4.007   4.203  12.643  1.3114 -0.1906  0.1650
   8123SM   C5S10738   4.064   4.008  12.692 -1.0751  0.0303  0.2687
   8123SM   H5S10739   4.025   3.906  12.696 -1.1523  0.0730  0.6487
   8123SM   C6S10740   4.185   4.034  12.779  0.2978 -0.2229  0.9776
   8123SM   H6S10741   4.230   4.134  12.762 -1.8799  0.4096 -1.9746
   8123SM   H6T10742   4.269   3.971  12.742  0.7234 -0.4832  2.3364
   8123SM   C7S10743   4.158   4.003  12.925 -0.6573  0.8822  0.1048
   8123SM   H7S10744   4.151   3.892  12.919 -0.4000  0.8994 -0.5590
   8123SM   H7T10745   4.058   4.037  12.958 -0.7141  0.3216  0.5436
   8123SM   C8S10746   4.274   4.035  13.021 -0.0607 -0.1492 -0.1034
   8123SM   H8S10747   4.368   4.005  12.970 -0.3238 -1.0881 -0.0569
   8123SM   H8T10748   4.269   3.980  13.117  1.9690  0.6194  0.4763
   8123SM   C9S10749   4.264   4.181  13.064  0.0161  0.1832 -0.4721
   8123SM   H9S10750   4.169   4.202  13.118 -0.1042 -1.8947  0.2023
   8123SM   H9T10751   4.275   4.245  12.973  1.4276 -0.7469 -0.9887
   8123SM  C10S10752   4.386   4.223  13.139 -0.3237 -0.5861  1.0989
   8123SM  H10S10753   4.467   4.163  13.094  0.2790 -0.5290  2.0805
   8123SM  H10T10754   4.358   4.180  13.238 -2.2489 -0.1950  0.7688
   8123SM  C11S10755   4.402   4.370  13.148 -0.3677  0.1040  0.4208
   8123SM  H11S10756   4.310   4.411  13.194 -0.0635 -0.2583  1.3732
   8123SM  H11T10757   4.403   4.415  13.046 -1.8238 -1.1699 -0.1820
   8123SM  C12S10758   4.535   4.433  13.221  0.1611  0.2553 -0.5666
   8123SM  H12S10759   4.538   4.540  13.192 -0.3024  0.4740  0.1624
   8123SM  H12T10760   4.614   4.367  13.180  1.4234  0.6057  1.2003
   8123SM  C13S10761   4.534   4.419  13.372  0.2039  0.7930  1.0830
   8123SM  H13S10762   4.490   4.319  13.394 -3.4762  2.0011  0.0234
   8123SM  H13T10763   4.461   4.492  13.413 -1.6920 -0.3177 -0.1497
   8123SM  C14S10764   4.679   4.424  13.428 -0.1614  0.6676  0.3495
   8123SM  H14S10765   4.708   4.531  13.421 -1.5275  1.0392 -0.0069
   8123SM  H14T10766   4.740   4.362  13.359 -2.3677 -2.2017  0.7550
   8123SM  C15S10767   4.683   4.377  13.574  0.0670 -0.1640 -0.3890
   8123SM  H15S10768   4.600   4.410  13.640  1.7649  2.0135  0.7660
   8123SM  H15T10769   4.773   4.429  13.612 -0.6629 -1.1865  3.0228
   8123SM  C16S10770   4.695   4.222  13.600  0.0292 -0.3512  0.1813
   8123SM  H16S10771   4.753   4.187  13.512 -1.7658 -0.6409 -0.9369
   8123SM  H16T10772   4.602   4.161  13.599  0.8924 -1.7341 -1.1552
   8123SM  C17S10773   4.767   4.190  13.726  0.3920 -0.0601 -0.3418
   8123SM  H17S10774   4.875   4.216  13.728 -0.0149  1.7644 -0.3535
   8123SM  H17T10775   4.783   4.080  13.728  1.0821  0.0392 -0.0089
   8123SM  C18S10776   4.707   4.242  13.856 -0.1320 -0.0005 -0.3645
   8123SM  H18S10777   4.759   4.201  13.945 -0.3453 -1.0768 -0.7201
   8123SM  H18T10778   4.601   4.207  13.860 -0.5266  1.1247 -0.6122
   8123SM  H18U10779   4.709   4.353  13.860  1.3692  0.0094 -0.7193
   8123SM   C1F10780   3.687   4.024  12.891 -0.6049 -0.3112  0.8646
   8123SM    OF10781   3.631   3.915  12.886 -0.3800 -0.3313  0.4698
   8123SM   C2F10782   3.683   4.111  13.018 -0.2724  0.0677 -0.6596
   8123SM   H2F10783   3.583   4.160  13.012 -0.1747  0.2020 -1.2046
   8123SM   H2G10784   3.772   4.176  13.009  0.1239 -0.1744  1.1088
   8123SM   C3F10785   3.691   4.023  13.145  0.3072  0.0688  0.2606
   8123SM   H3F10786   3.793   3.978  13.150 -0.1767 -1.5545 -2.4771
   8123SM   H3G10787   3.623   3.936  13.157 -0.9942  1.1716  1.1510
   8123SM   C4F10788   3.673   4.112  13.269 -0.5125 -0.2732 -0.5626
   8123SM   H4F10789   3.680   4.042  13.356 -0.1481  0.1023 -0.2824
   8123SM   H4G10790   3.578   4.167  13.279  0.0192  0.5070  0.4854
   8123SM   C5F10791   3.796   4.206  13.288  0.4878  0.3590 -0.1165
   8123SM   H5F10792   3.797   4.267  13.195  0.6136  0.3073 -0.1485
   8123SM   H5G10793   3.901   4.169  13.288  1.3012  2.4336 -1.4136
   8123SM   C6F10794   3.779   4.299  13.415  0.5063  0.4922 -0.1151
   8123SM   H6F10795   3.670   4.316  13.422 -0.3706 -2.2036 -4.1966
   8123SM   H6G10796   3.833   4.395  13.401  0.8973  0.6696  2.1559
   8123SM   C7F10797   3.802   4.242  13.558 -0.6963 -0.5246  0.2104
   8123SM   H7F10798   3.903   4.197  13.565 -1.4218 -2.0110  1.9271
   8123SM   H7G10799   3.747   4.146  13.567  0.0311 -1.1337 -1.4185
   8123SM   C8F10800   3.780   4.349  13.664  0.1774  0.3904  0.2250
   8123SM   H8F10801   3.671   4.367  13.677  0.0546  1.5811 -2.0519
   8123SM   H8G10802   3.823   4.443  13.623  0.8822  0.3334  0.8053
   8123SM   C9F10803   3.858   4.334  13.797 -0.1109  0.4831  0.2611
   8123SM   H9F10804   3.874   4.436  13.837 -0.2099  1.5752 -2.2372
   8123SM   H9G10805   3.956   4.284  13.780 -1.3377 -1.7557 -0.7849
   8123SM  C10F10806   3.784   4.250  13.902 -0.4080  0.3786  0.1169
   8123SM  H10F10807   3.756   4.152  13.858  3.4860 -0.4277 -0.9421
   8123SM  H10G10808   3.697   4.306  13.943 -0.2610 -0.0588  1.0553
   8123SM  C11F10809   3.861   4.228  14.030 -0.9207 -0.4872  0.9570
   8123SM  H11F10810   3.916   4.320  14.058  0.2801 -1.5085  2.0762
   8123SM  H11G10811   3.941   4.153  14.011 -0.1104  0.4616  0.5099
   8123SM  C12F10812   3.772   4.187  14.158  0.1954  0.1362  0.2204
   8123SM  H12F10813   3.691   4.125  14.114  0.7830 -0.3426 -0.2082
   8123SM  H12G10814   3.726   4.277  14.203 -0.4048 -1.1606  2.3699
   8123SM  C13F10815   3.860   4.111  14.256 -0.1737 -0.1143 -0.3752
   8123SM  H13F10816   3.952   4.075  14.204 -0.2941  0.0400 -0.6974
   8123SM  H13G10817   3.797   4.030  14.298 -0.1220  1.2929  2.6843
   8123SM  C14F10818   3.910   4.203  14.374 -0.1569  0.5137  0.1661
   8123SM  H14F10819   3.940   4.302  14.336 -1.4794 -0.0152 -2.5092
   8123SM  H14G10820   3.999   4.152  14.419 -1.5955 -1.2569  1.1582
   8123SM  C15F10821   3.805   4.209  14.483  0.1502  0.4192  0.4365
   8123SM  H15F10822   3.785   4.105  14.517 -1.0379 -0.1704 -1.8441
   8123SM  H15G10823   3.715   4.259  14.440 -0.1284 -0.7874 -0.4470
   8123SM  C16F10824   3.841   4.282  14.609 -0.4167 -0.1511 -0.0527
   8123SM  H16F10825   3.747   4.281  14.667  0.1011 -1.6094  0.8140
   8123SM  H16G10826   3.856   4.391  14.591 -0.3810  0.5693  3.4687
   8123SM  C17F10827   3.954   4.211  14.682  0.5359 -0.7879  0.0995
   8123SM  H17F10828   4.041   4.211  14.613  0.1265 -2.1036 -0.4403
   8123SM  H17G10829   3.937   4.103  14.699 -2.5733 -0.2303  1.0873
   8123SM  C18F10830   3.985   4.283  14.812 -0.0437  0.0282 -0.1542
   8123SM  H18F10831   3.903   4.267  14.885  1.3794  3.3683  2.4579
   8123SM  H18G10832   3.979   4.390  14.782  1.9271  0.6788  1.5042
   8123SM  C19F10833   4.120   4.258  14.882  0.3313 -0.3795  0.7401
   8123SM  H19F10834   4.119   4.318  14.976 -0.0143 -0.5794  0.8653
   8123SM  H19G10835   4.199   4.302  14.817 -2.6856  1.6284 -1.8913
   8123SM  C20F10836   4.145   4.114  14.910 -0.1583  0.1435 -0.8251
   8123SM  H20F10837   4.134   4.057  14.816 -2.6187  2.5391 -2.1022
   8123SM  H20G10838   4.067   4.066  14.972  0.5691  0.7609  0.6345
   8123SM  C21F10839   4.287   4.089  14.979  0.1702 -0.2587  0.6981
   8123SM  H21F10840   4.358   4.162  14.935 -1.7554 -0.4637 -3.1838
   8123SM  H21G10841   4.310   3.990  14.936  0.2926  0.0738 -0.0059
   8123SM  C22F10842   4.282   4.101  15.129 -0.2457  0.0234  0.3193
   8123SM  H22F10843   4.212   4.024  15.168  0.8922 -1.0744  0.2649
   8123SM  H22G10844   4.243   4.200  15.161  2.6851  0.2431  3.9685
   8123SM  C23F10845   4.423   4.084  15.187 -0.7641  0.3968 -0.0313
   8123SM  H23F10846   4.437   3.977  15.211  0.8158  0.9245  1.6568
   8123SM  H23G10847   4.431   4.140  15.283 -2.1731 -0.5022  0.6428
   8123SM  H23H10848   4.503   4.115  15.117  0.6131 -2.0614  0.3444
   8223SM     N10849   4.982   5.485  12.338 -0.6468  0.0995  0.5252
   8223SM   C1510850   5.092   5.587  12.305 -0.3089  0.2823  0.2019
   8223SM  H15A10851   5.038   5.663  12.251 -0.0208 -0.7959 -1.7033
   8223SM  H15B10852   5.173   5.545  12.247 -0.7123  0.5744 -0.5979
   8223SM  H15C10853   5.130   5.637  12.392 -1.0574  3.5297 -1.1747
   8223SM   C1410854   4.860   5.554  12.378  0.4871  0.2072  0.2159
   8223SM  H14A10855   4.784   5.487  12.418 -1.3219  1.9730 -0.1106
   8223SM  H14B10856   4.809   5.608  12.300 -3.1794  0.7086  2.6723
   8223SM  H14C10857   4.879   5.627  12.455  0.1645  0.1683  0.3372
   8223SM   C1310858   4.966   5.403  12.211 -0.4392 -0.0422  0.2307
   8223SM  H13A10859   5.055   5.352  12.181 -1.0369 -1.0963  0.2090
   8223SM  H13B10860   4.928   5.460  12.128 -1.0037  1.5003  1.4770
   8223SM  H13C10861   4.892   5.327  12.229  0.7401 -1.0566  0.9251
   8223SM   C1210862   5.026   5.389  12.449  0.0080 -0.5452  0.2531
   8223SM  H12A10863   5.033   5.452  12.537 -0.5000  0.5872 -0.4943
   8223SM  H12B10864   5.131   5.364  12.439 -0.0367 -0.5506 -0.1750
   8223SM   C1110865   4.946   5.257  12.484  0.0530  0.6319  0.2792
   8223SM  H11A10866   5.007   5.186  12.544 -2.5815 -0.7992  1.4373
   8223SM  H11B10867   4.936   5.197  12.391 -1.2262 -1.4614  1.7115
   8223SM     P10868   4.793   5.288  12.692  0.2462  0.1041  0.1473
   8223SM   O1310869   4.678   5.377  12.710 -0.5282 -0.3099  0.6027
   8223SM   O1410870   4.783   5.149  12.742  0.4007  0.3958  0.0057
   8223SM   O1110871   4.921   5.358  12.747 -0.0130  0.7056 -0.4101
   8223SM   O1210872   4.817   5.284  12.536 -0.1517 -1.0387 -0.0807
   8223SM   C1S10873   4.974   5.317  12.877 -0.6655  0.0838  0.2502
   8223SM   H1S10874   5.040   5.229  12.862  0.6724  1.0123  0.5064
   8223SM   H1T10875   4.902   5.270  12.947 -1.7362  0.3475 -0.6517
   8223SM    NF10876   5.110   5.365  13.064 -0.2239 -0.0315 -0.2291
   8223SM   HNF10877   5.063   5.383  13.151 -1.3555  0.7132 -0.9729
   8223SM   C2S10878   5.064   5.425  12.943 -0.2923  0.2399 -0.1246
   8223SM   H2S10879   5.152   5.444  12.878 -0.2363  2.6437  0.5698
   8223SM   C3S10880   4.990   5.560  12.965  0.6864 -0.5954  0.7502
   8223SM   H3S10881   4.893   5.550  13.018  0.4296  2.0589  0.9259
   8223SM    O310882   4.940   5.615  12.842 -0.2791  0.1490 -0.5430
   8223SM   HO310883   4.941   5.541  12.780 -2.0226 -1.1544  0.8660
   8223SM   C4S10884   5.071   5.661  13.031  0.4605 -0.8338 -0.0766
   8223SM   H4S10885   5.151   5.696  12.963 -2.2630  1.9209 -2.1485
   8223SM   C5S10886   5.052   5.706  13.159  0.1484  0.6987 -0.5735
   8223SM   H5S10887   4.970   5.662  13.217 -0.2432 -0.0256 -1.6366
   8223SM   C6S10888   5.143   5.789  13.245 -0.3693  0.2558  0.4237
   8223SM   H6S10889   5.108   5.770  13.348 -0.6798  1.4615  0.5517
   8223SM   H6T10890   5.124   5.893  13.212  1.6789  0.9345  1.1902
   8223SM   C7S10891   5.289   5.746  13.232  0.1775 -0.2083  0.5837
   8223SM   H7S10892   5.345   5.797  13.151 -1.7464 -0.9806 -1.3406
   8223SM   H7T10893   5.297   5.640  13.199 -1.4021  0.4136 -2.0296
   8223SM   C8S10894   5.364   5.782  13.357  0.1375  0.2963  0.7064
   8223SM   H8S10895   5.318   5.715  13.433 -0.0501 -1.9202 -1.2644
   8223SM   H8T10896   5.343   5.888  13.383 -1.1736  0.0265  0.7811
   8223SM   C9S10897   5.518   5.768  13.351  0.2730  0.3275  0.1838
   8223SM   H9S10898   5.565   5.854  13.297 -1.4929  0.7172 -0.8052
   8223SM   H9T10899   5.543   5.681  13.287 -0.7756  0.5284 -0.5243
   8223SM  C10S10900   5.574   5.744  13.492  0.6175 -0.0597  0.0258
   8223SM  H10S10901   5.519   5.823  13.547  1.4745  0.8197 -0.3402
   8223SM  H10T10902   5.681   5.766  13.472  0.8865  0.5829  2.0211
   8223SM  C11S10903   5.564   5.598  13.531 -0.3952 -0.1859  0.1499
   8223SM  H11S10904   5.665   5.566  13.563  0.2581  1.8360  0.2126
   8223SM  H11T10905   5.552   5.540  13.436  0.7592 -0.7896  0.3483
   8223SM  C12S10906   5.452   5.586  13.630 -0.8188 -0.2143  0.3626
   8223SM  H12S10907   5.407   5.485  13.626 -1.1467 -0.0875  0.7227
   8223SM  H12T10908   5.361   5.650  13.620  0.6181  1.6292 -1.7980
   8223SM  C13S10909   5.508   5.612  13.778 -0.0045 -0.0759  0.4483
   8223SM  H13S10910   5.420   5.584  13.840  0.2620 -0.0958  0.8180
   8223SM  H13T10911   5.525   5.721  13.786 -1.0563  0.3215 -1.9073
   8223SM  C14S10912   5.624   5.529  13.818  0.0217 -0.1604 -0.2836
   8223SM  H14S10913   5.710   5.583  13.773 -0.9200  2.8499  1.2132
   8223SM  H14T10914   5.607   5.423  13.791 -1.6125 -0.5277  1.8886
   8223SM  C15S10915   5.660   5.535  13.968  0.7497  0.5044 -0.2765
   8223SM  H15S10916   5.597   5.468  14.031 -0.8674 -0.1411 -2.4353
   8223SM  H15T10917   5.646   5.635  14.013  2.3913  0.7895 -0.3287
   8223SM  C16S10918   5.806   5.499  14.002  0.3655  0.0489  0.3555
   8223SM  H16S10919   5.836   5.550  14.096  0.8700  0.3048  0.0582
   8223SM  H16T10920   5.867   5.549  13.924  1.7239 -1.7866  0.1684
   8223SM  C17S10921   5.841   5.356  14.019  0.0239 -0.0144 -0.2620
   8223SM  H17S10922   5.861   5.319  13.916  1.5958  0.0715 -0.0060
   8223SM  H17T10923   5.754   5.304  14.066  1.1056  0.0430  1.9507
   8223SM  C18S10924   5.970   5.340  14.102  0.0344 -0.1715 -0.1948
   8223SM  H18S10925   6.059   5.378  14.048 -0.7412 -0.6100 -1.8513
   8223SM  H18T10926   5.990   5.230  14.103 -0.4808 -0.3054 -1.7388
   8223SM  H18U10927   5.970   5.394  14.199 -0.1008  0.4074 -0.5123
   8223SM   C1F10928   5.206   5.279  13.063  0.7270 -0.4536  0.6154
   8223SM    OF10929   5.291   5.264  12.973  0.4482 -0.7089  0.0860
   8223SM   C2F10930   5.210   5.196  13.187  0.9485  0.2660 -0.5160
   8223SM   H2F10931   5.215   5.090  13.154 -2.3964 -0.2358  0.1512
   8223SM   H2G10932   5.115   5.196  13.246 -0.0213 -0.8842 -2.0135
   8223SM   C3F10933   5.327   5.233  13.285  0.5437 -0.4277  0.0697
   8223SM   H3F10934   5.330   5.341  13.311  0.9423 -0.5193  0.4150
   8223SM   H3G10935   5.418   5.207  13.225 -0.4572 -2.3391 -0.7084
   8223SM   C4F10936   5.334   5.161  13.421  0.1492  0.4764  0.1887
   8223SM   H4F10937   5.289   5.062  13.399 -0.1600  1.0009 -1.7249
   8223SM   H4G10938   5.268   5.225  13.483  0.7247  1.6399 -0.3607
   8223SM   C5F10939   5.469   5.158  13.495  0.4678 -0.0982 -0.1647
   8223SM   H5F10940   5.511   5.261  13.485  0.2883  0.0743  0.7717
   8223SM   H5G10941   5.535   5.083  13.446 -0.9533 -2.4287  1.3001
   8223SM   C6F10942   5.441   5.121  13.641 -0.4030  0.4264  0.1130
   8223SM   H6F10943   5.373   5.033  13.641 -1.1202  0.9104 -2.3658
   8223SM   H6G10944   5.383   5.204  13.686  0.5371  1.6448 -0.8596
   8223SM   C7F10945   5.572   5.116  13.719  0.2439  1.1330 -0.1727
   8223SM   H7F10946   5.633   5.205  13.691  1.0168  0.9960  0.9745
   8223SM   H7G10947   5.624   5.030  13.673 -0.7584 -0.4882  1.6235
   8223SM   C8F10948   5.562   5.092  13.873 -0.4952  0.0794 -0.3734
   8223SM   H8F10949   5.534   5.191  13.913 -0.4037 -0.5702  1.3758
   8223SM   H8G10950   5.659   5.078  13.925 -1.7379 -0.5949  1.9012
   8223SM   C9F10951   5.457   4.978  13.914 -0.2707 -0.0575  0.1488
   8223SM   H9F10952   5.483   4.882  13.865 -1.1412 -0.5403  0.5942
   8223SM   H9G10953   5.356   5.003  13.876  0.7060 -1.1981 -3.5849
   8223SM  C10F10954   5.453   4.945  14.069  0.9706  0.2298  0.2983
   8223SM  H10F10955   5.471   5.040  14.125  0.1651  0.8039 -0.3829
   8223SM  H10G10956   5.546   4.893  14.100  1.2895  2.5423  3.8767
   8223SM  C11F10957   5.321   4.875  14.126  0.3467 -0.0077  0.2704
   8223SM  H11F10958   5.306   4.780  14.071  0.5739  0.4715 -0.6309
   8223SM  H11G10959   5.232   4.940  14.110  0.2597 -0.0725  0.4744
   8223SM  C12F10960   5.325   4.854  14.280  0.5278 -0.0335  0.5609
   8223SM  H12F10961   5.428   4.821  14.305  1.3282  1.9670  0.1154
   8223SM  H12G10962   5.252   4.774  14.304  0.0304 -0.2584 -1.5128
   8223SM  C13F10963   5.285   4.992  14.352  0.1900  0.3112  0.2277
   8223SM  H13F10964   5.175   5.001  14.367  0.3070  1.9780  0.2343
   8223SM  H13G10965   5.332   5.079  14.302  2.3859 -0.5065  0.7283
   8223SM  C14F10966   5.327   4.990  14.497 -0.0670 -0.0872  0.3892
   8223SM  H14F10967   5.437   4.976  14.503 -0.1201 -0.8992 -0.3794
   8223SM  H14G10968   5.276   4.908  14.552 -1.2312 -0.1200 -0.6854
   8223SM  C15F10969   5.311   5.128  14.575 -0.5061  0.1331 -0.2095
   8223SM  H15F10970   5.386   5.198  14.534 -2.1756  1.1585 -1.6311
   8223SM  H15G10971   5.336   5.102  14.681 -0.8828  1.5514  0.2438
   8223SM  C16F10972   5.167   5.194  14.554 -0.3966  0.0951  0.2027
   8223SM  H16F10973   5.093   5.118  14.587 -0.9634 -1.1139 -3.4086
   8223SM  H16G10974   5.156   5.214  14.445  0.9966  1.1190  0.2225
   8223SM  C17F10975   5.140   5.320  14.635  0.3361  0.1782 -0.9036
   8223SM  H17F10976   5.043   5.361  14.598 -0.6030 -1.8314 -0.8050
   8223SM  H17G10977   5.223   5.392  14.623  1.4892 -0.5046  2.0092
   8223SM  C18F10978   5.124   5.280  14.783 -0.6988 -1.2405  0.2440
   8223SM  H18F10979   5.217   5.230  14.819  0.8749  1.9653  0.9827
   8223SM  H18G10980   5.040   5.210  14.803 -0.4063 -1.3818  1.0216
   8223SM  C19F10981   5.098   5.401  14.879  0.3862 -0.1037 -0.3733
   8223SM  H19F10982   5.182   5.473  14.882  2.0082 -1.8654 -1.1967
   8223SM  H19G10983   5.088   5.362  14.983 -3.9285 -0.3380 -0.7100
   8223SM  C20F10984   4.971   5.481  14.832 -0.2144 -0.3024  0.0165
   8223SM  H20F10985   4.894   5.404  14.811 -0.4482  0.0720 -0.5277
   8223SM  H20G10986   4.996   5.546  14.746  0.6811  0.0437  0.5303
   8223SM  C21F10987   4.911   5.574  14.931 -0.1781 -0.5454  0.1653
   8223SM  H21F10988   4.838   5.645  14.886 -0.8673 -0.3076  1.6101
   8223SM  H21G10989   4.984   5.646  14.973  0.0375  0.6276 -2.0542
   8223SM  C22F10990   4.854   5.512  15.057  0.1243 -0.0301 -0.1807
   8223SM  H22F10991   4.932   5.458  15.113 -2.2949 -1.0745  2.4321
   8223SM  H22G10992   4.769   5.446  15.029 -0.1905 -0.6417  2.0598
   8223SM  C23F10993   4.799   5.608  15.157  0.0367 -0.2691 -0.1801
   8223SM  H23F10994   4.744   5.686  15.099 -1.2349 -2.6425 -2.4117
   8223SM  H23G10995   4.886   5.650  15.212 -0.1029 -0.9046  0.5383
   8223SM  H23H10996   4.732   5.556  15.228  0.5250  1.4048  1.6084
   8323SM     N10997   5.710   4.715  12.323  0.6898 -0.3088  0.2235
   8323SM   C1510998   5.837   4.783  12.289 -0.1368  0.5879  0.0292
   8323SM  H15A10999   5.865   4.851  12.368 -1.2609  1.6441 -0.4390
   8323SM  H15B11000   5.838   4.838  12.195 -1.9771  0.3519 -0.1728
   8323SM  H15C11001   5.916   4.711  12.273  0.1140  0.8753 -0.0442
   8323SM   C1411002   5.672   4.638  12.201  0.2848  0.0930 -0.1675
   8323SM  H14A11003   5.668   4.708  12.119  0.4944 -1.6744 -1.7514
   8323SM  H14B11004   5.574   4.595  12.218  1.7199 -2.2869  3.0472
   8323SM  H14C11005   5.741   4.563  12.166 -0.7811  0.2817 -2.9053
   8323SM   C1311006   5.747   4.618  12.435  0.7638  0.3141  0.6226
   8323SM  H13A11007   5.830   4.550  12.422  0.7291  0.6644 -1.9569
   8323SM  H13B11008   5.660   4.556  12.448  0.0457  1.5773  2.2253
   8323SM  H13C11009   5.744   4.672  12.529 -4.0846  1.8587 -0.1620
   8323SM   C1211010   5.600   4.806  12.368 -0.0104 -0.3197  0.4630
   8323SM  H12A11011   5.628   4.856  12.459 -1.1609  1.1449  0.0439
   8323SM  H12B11012   5.515   4.743  12.388 -0.2504  0.3636  1.6511
   8323SM   C1111013   5.559   4.921  12.278  0.2258  0.3008 -1.0385
   8323SM  H11A11014   5.465   4.972  12.307 -2.1069 -3.9875 -0.2278
   8323SM  H11B11015   5.540   4.885  12.174 -0.3513 -0.7387 -0.5969
   8323SM     P11016   5.659   5.167  12.305  0.2089 -0.1675 -0.0638
   8323SM   O1311017   5.772   5.204  12.394 -0.0028 -0.6988  0.2691
   8323SM   O1411018   5.656   5.232  12.177  0.0008  0.4163  0.2097
   8323SM   O1111019   5.519   5.188  12.382 -0.1849  0.1732  0.3717
   8323SM   O1211020   5.666   5.016  12.275 -0.1484  0.1326  0.2546
   8323SM   C1S11021   5.501   5.142  12.514 -0.0248  0.1470 -1.1381
   8323SM   H1S11022   5.568   5.056  12.529 -1.2449 -1.0515 -2.3232
   8323SM   H1T11023   5.401   5.095  12.526  0.6321 -0.9783  0.0699
   8323SM    NF11024   5.505   5.203  12.763  0.5022 -0.4732  0.3247
   8323SM   HNF11025   5.426   5.208  12.824  1.3072  0.9488  1.2938
   8323SM   C2S11026   5.505   5.256  12.625  0.1205  0.1747 -0.6765
   8323SM   H2S11027   5.600   5.309  12.604  1.4896 -0.9228  2.1502
   8323SM   C3S11028   5.390   5.355  12.615  0.2108 -0.2093 -0.8050
   8323SM   H3S11029   5.304   5.302  12.659  0.6830 -0.8279 -0.6229
   8323SM    O311030   5.353   5.399  12.486 -0.0553  1.2549 -0.5973
   8323SM   HO311031   5.406   5.345  12.427  1.0015  0.6836  0.8129
   8323SM   C4S11032   5.413   5.482  12.704 -0.5709  0.0213 -0.0961
   8323SM   H4S11033   5.381   5.461  12.807 -0.4762  0.7682  0.0884
   8323SM   C5S11034   5.470   5.602  12.673 -0.3968  0.4482 -0.3180
   8323SM   H5S11035   5.500   5.625  12.570  1.0062  1.7431  0.3558
   8323SM   C6S11036   5.497   5.717  12.774  0.1730 -0.0470  0.1879
   8323SM   H6S11037   5.420   5.796  12.757  0.4931  0.2460  0.0820
   8323SM   H6T11038   5.593   5.767  12.748 -0.5241  1.7879  0.9793
   8323SM   C7S11039   5.509   5.674  12.922 -0.0400 -0.0720  0.4887
   8323SM   H7S11040   5.413   5.625  12.950 -0.9449  0.9619 -0.6558
   8323SM   H7T11041   5.520   5.767  12.982  1.4030 -0.9578  1.6630
   8323SM   C8S11042   5.620   5.572  12.949 -0.3309 -0.0763 -0.8515
   8323SM   H8S11043   5.702   5.638  12.985 -1.9393  1.8522 -0.5853
   8323SM   H8T11044   5.651   5.520  12.856  0.1511 -0.8171 -0.2962
   8323SM   C9S11045   5.589   5.464  13.056  0.3258 -0.0199 -0.7406
   8323SM   H9S11046   5.503   5.404  13.019 -0.0121 -1.0781  1.5701
   8323SM   H9T11047   5.549   5.517  13.145 -0.1603 -0.5606 -0.6340
   8323SM  C10S11048   5.716   5.389  13.094 -0.3785  0.0960 -0.1845
   8323SM  H10S11049   5.807   5.452  13.086 -0.7702  0.7332  0.2623
   8323SM  H10T11050   5.731   5.309  13.018 -0.1499 -0.2127  0.1824
   8323SM  C11S11051   5.709   5.335  13.239  0.0606  0.0484 -0.1565
   8323SM  H11S11052   5.621   5.269  13.252  0.0586  0.0464 -0.1782
   8323SM  H11T11053   5.685   5.417  13.309  0.1363 -0.7557  0.8291
   8323SM  C12S11054   5.827   5.248  13.278 -0.0039 -0.0336 -0.1098
   8323SM  H12S11055   5.921   5.304  13.256  1.3707 -1.7542  1.1030
   8323SM  H12T11056   5.822   5.157  13.216 -1.3929 -1.1306  1.5146
   8323SM  C13S11057   5.825   5.200  13.416 -0.0503  0.6558 -0.1237
   8323SM  H13S11058   5.718   5.174  13.430  0.2678  0.0888  1.4480
   8323SM  H13T11059   5.844   5.285  13.486  2.1703  0.3400 -0.2807
   8323SM  C14S11060   5.918   5.080  13.440 -0.3061 -0.5117  0.2850
   8323SM  H14S11061   6.015   5.113  13.396  0.3685 -1.3293  1.1254
   8323SM  H14T11062   5.895   4.993  13.376 -1.4632 -0.0954  0.1025
   8323SM  C15S11063   5.927   5.040  13.587 -0.4160 -0.2104 -0.1109
   8323SM  H15S11064   5.998   4.957  13.605 -1.9020 -1.1731  1.5962
   8323SM  H15T11065   5.823   5.006  13.606 -1.1526  2.1354  0.3930
   8323SM  C16S11066   5.949   5.154  13.688 -0.4046  0.1166 -0.6615
   8323SM  H16S11067   5.957   5.102  13.786 -1.4053  0.0954 -0.5746
   8323SM  H16T11068   5.853   5.211  13.683 -0.3611  0.1956 -0.6099
   8323SM  C17S11069   6.068   5.244  13.665 -0.4745 -0.6298  0.3067
   8323SM  H17S11070   6.075   5.320  13.745  1.3642  0.0628 -0.4640
   8323SM  H17T11071   6.057   5.293  13.566 -2.2449  0.9861  1.2200
   8323SM  C18S11072   6.203   5.176  13.670 -0.4588  0.1822  0.6711
   8323SM  H18S11073   6.235   5.131  13.766  2.8840  0.2870 -0.2806
   8323SM  H18T11074   6.282   5.245  13.633 -1.5362  0.2021 -1.7778
   8323SM  H18U11075   6.203   5.090  13.599 -1.7128 -1.7071  2.8423
   8323SM   C1F11076   5.605   5.121  12.789  0.5946  0.4915  0.1004
   8323SM    OF11077   5.713   5.126  12.731 -0.6505 -0.4305  1.0360
   8323SM   C2F11078   5.578   5.018  12.897 -0.3356 -0.2157  0.5581
   8323SM   H2F11079   5.519   4.926  12.876  2.7298 -2.2663  0.2301
   8323SM   H2G11080   5.526   5.072  12.978  0.7679  3.1089 -0.7735
   8323SM   C3F11081   5.721   4.975  12.956  0.1824  0.1913 -0.2993
   8323SM   H3F11082   5.775   5.057  13.006  1.7681 -0.0579 -1.5047
   8323SM   H3G11083   5.788   4.936  12.876 -0.2045 -0.4699 -0.3162
   8323SM   C4F11084   5.710   4.853  13.048  0.1632  0.8535  0.1513
   8323SM   H4F11085   5.806   4.819  13.091 -0.0564 -0.2739 -0.1983
   8323SM   H4G11086   5.671   4.758  13.003 -1.3203  1.1916  0.6579
   8323SM   C5F11087   5.615   4.875  13.172 -0.3086  0.3623  0.3962
   8323SM   H5F11088   5.511   4.886  13.134 -0.2549  0.9999  0.4199
   8323SM   H5G11089   5.641   4.968  13.227 -0.2261 -1.6305  4.0437
   8323SM   C6F11090   5.628   4.756  13.269 -0.3851 -0.0697  0.3292
   8323SM   H6F11091   5.736   4.734  13.283 -0.3243 -0.1169 -0.1731
   8323SM   H6G11092   5.599   4.670  13.204 -0.2772  0.0054  0.1808
   8323SM   C7F11093   5.550   4.775  13.397 -0.2220  0.3226 -0.4500
   8323SM   H7F11094   5.439   4.785  13.391 -0.1226  2.0887 -0.0790
   8323SM   H7G11095   5.571   4.870  13.451  0.3810  0.1546 -0.3873
   8323SM   C8F11096   5.579   4.680  13.518 -0.0069 -0.8070 -0.2995
   8323SM   H8F11097   5.520   4.586  13.505  0.5060 -1.4058  1.3854
   8323SM   H8G11098   5.535   4.729  13.608 -1.1213 -1.7132 -0.3292
   8323SM   C9F11099   5.728   4.654  13.538  0.3969 -0.1437 -0.1986
   8323SM   H9F11100   5.771   4.749  13.500 -0.4738  0.8727  1.2582
   8323SM   H9G11101   5.772   4.587  13.462  0.6678 -1.3903  1.0125
   8323SM  C10F11102   5.786   4.633  13.680  0.4970  0.0631 -0.2164
   8323SM  H10F11103   5.885   4.583  13.672 -0.3345 -1.3388 -3.2188
   8323SM  H10G11104   5.724   4.554  13.727 -2.2456  1.3603 -1.4545
   8323SM  C11F11105   5.786   4.757  13.776 -0.2119  0.3511 -0.0011
   8323SM  H11F11106   5.690   4.813  13.787  0.5386  1.2357  2.8661
   8323SM  H11G11107   5.855   4.832  13.733 -0.2507  0.0463 -0.6025
   8323SM  C12F11108   5.840   4.720  13.917  0.7355 -0.1028 -0.1597
   8323SM  H12F11109   5.942   4.679  13.933  0.0754 -1.3945  0.8798
   8323SM  H12G11110   5.775   4.643  13.963  0.3992  0.0543 -0.3681
   8323SM  C13F11111   5.834   4.844  14.010 -0.5260  0.0535 -0.3042
   8323SM  H13F11112   5.727   4.871  14.020 -0.0621  1.3789  1.7438
   8323SM  H13G11113   5.897   4.920  13.958  2.4440 -1.3240  0.9959
   8323SM  C14F11114   5.898   4.818  14.147  0.5146 -0.4409 -0.9786
   8323SM  H14F11115   6.008   4.803  14.145  0.5224 -1.9597  2.3368
   8323SM  H14G11116   5.859   4.723  14.190  0.2563  0.2587  0.3913
   8323SM  C15F11117   5.888   4.939  14.249  0.0158 -0.4979 -0.0024
   8323SM  H15F11118   5.964   5.011  14.214 -0.8298  0.3233 -0.2007
   8323SM  H15G11119   5.913   4.913  14.354 -1.9769  3.8133  1.7746
   8323SM  C16F11120   5.753   5.007  14.262  0.7459  0.5214  0.3829
   8323SM  H16F11121   5.675   4.940  14.306  0.6380 -0.2874 -0.9621
   8323SM  H16G11122   5.715   5.040  14.163  0.5999 -0.2085  0.1891
   8323SM  C17F11123   5.767   5.137  14.346  0.3907 -0.5891  0.0821
   8323SM  H17F11124   5.842   5.197  14.289 -0.3095 -0.7725 -1.0463
   8323SM  H17G11125   5.806   5.107  14.446 -2.9488 -3.1435  0.8059
   8323SM  C18F11126   5.632   5.203  14.356 -0.2765  0.2208 -0.4973
   8323SM  H18F11127   5.561   5.130  14.400  1.5488 -0.3340  1.7180
   8323SM  H18G11128   5.605   5.223  14.250  1.0413  0.1161 -0.8781
   8323SM  C19F11129   5.626   5.327  14.449  0.1450  0.5034 -0.5778
   8323SM  H19F11130   5.647   5.306  14.556 -1.3286  3.4526  0.3891
   8323SM  H19G11131   5.523   5.370  14.448 -0.2814 -0.3202  1.7241
   8323SM  C20F11132   5.733   5.436  14.418  0.5140 -0.1487 -0.8770
   8323SM  H20F11133   5.732   5.454  14.309 -0.0168  1.4555 -0.6289
   8323SM  H20G11134   5.834   5.399  14.448 -0.3863 -0.8562  1.4998
   8323SM  C21F11135   5.695   5.566  14.499  0.4975  0.0232  0.1598
   8323SM  H21F11136   5.667   5.539  14.603 -0.4057  0.0938 -0.0561
   8323SM  H21G11137   5.603   5.612  14.456  0.5385 -0.6850 -0.7102
   8323SM  C22F11138   5.797   5.681  14.492  0.0230  0.0829  1.0411
   8323SM  H22F11139   5.891   5.634  14.528 -0.0712 -1.5576 -0.6710
   8323SM  H22G11140   5.780   5.760  14.568  3.0325  1.5361  0.4028
   8323SM  C23F11141   5.833   5.734  14.352 -0.5611 -0.1423 -0.3622
   8323SM  H23F11142   5.881   5.655  14.289  2.2778  2.7538 -2.1844
   8323SM  H23G11143   5.914   5.810  14.356 -0.5576 -0.1146 -0.8666
   8323SM  H23H11144   5.754   5.766  14.281  0.9253 -2.7270 -3.4846
   8423SM     N11145   4.804   3.022  12.310 -0.0396 -0.0973  0.0426
   8423SM   C1511146   4.922   2.948  12.251 -0.2712  0.1716  0.2442
   8423SM  H15A11147   5.003   3.012  12.218 -0.2013 -0.3640 -0.6587
   8423SM  H15B11148   4.900   2.891  12.162  0.2619 -0.4201  0.4821
   8423SM  H15C11149   4.952   2.875  12.325  0.8514  1.0910  0.7255
   8423SM   C1411150   4.854   3.090  12.431  0.1650 -0.0909  0.2428
   8423SM  H14A11151   4.912   3.019  12.489  0.1817  0.4662  0.9160
   8423SM  H14B11152   4.771   3.132  12.486 -1.7314 -0.3729 -2.2194
   8423SM  H14C11153   4.903   3.180  12.398 -3.0434  1.7821  0.1775
   8423SM   C1311154   4.748   3.118  12.214  0.0491  0.4605  0.1669
   8423SM  H13A11155   4.692   3.074  12.133  0.2154  1.0795 -0.2946
   8423SM  H13B11156   4.820   3.184  12.166  1.6921 -2.0619 -1.0503
   8423SM  H13C11157   4.675   3.170  12.274 -1.6510 -1.7893  0.1518
   8423SM   C1211158   4.696   2.924  12.354  0.2305 -0.8312  0.1949
   8423SM  H12A11159   4.678   2.856  12.272  1.7986 -1.3171  0.2231
   8423SM  H12B11160   4.610   2.988  12.371 -0.4733 -1.2170 -1.6616
   8423SM   C1111161   4.711   2.840  12.484 -0.2069  0.1199  0.5470
   8423SM  H11A11162   4.610   2.796  12.497 -0.9157  1.9083  1.4298
   8423SM  H11B11163   4.721   2.913  12.568  1.8098 -0.6401  1.0282
   8423SM     P11164   4.823   2.630  12.393 -0.2146 -0.1697  0.0567
   8423SM   O1311165   4.706   2.639  12.308  0.7411  0.5134 -0.0484
   8423SM   O1411166   4.956   2.618  12.328  0.7279 -0.0099 -0.1601
   8423SM   O1111167   4.809   2.500  12.484  0.0215 -0.1704 -0.6662
   8423SM   O1211168   4.822   2.750  12.497  0.0640  0.4142  0.3969
   8423SM   C1S11169   4.896   2.462  12.591  0.1531  0.1517 -0.3524
   8423SM   H1S11170   5.000   2.481  12.558  0.6802 -2.4772 -0.4398
   8423SM   H1T11171   4.901   2.352  12.607  2.3698  0.4122  1.3617
   8423SM    NF11172   4.977   2.511  12.819 -0.2410 -0.3571 -0.0071
   8423SM   HNF11173   4.974   2.430  12.877 -0.7263 -0.8974 -0.7653
   8423SM   C2S11174   4.866   2.532  12.731  0.2050 -0.4411  0.0395
   8423SM   H2S11175   4.870   2.642  12.722  1.4482 -0.3017  1.6810
   8423SM   C3S11176   4.729   2.484  12.781  0.3075 -0.6062  1.1688
   8423SM   H3S11177   4.728   2.375  12.803  0.3895 -1.0416 -0.7682
   8423SM    O311178   4.620   2.514  12.693  0.0982 -0.1006 -0.0487
   8423SM   HO311179   4.655   2.559  12.616  1.0244  1.3959  1.1806
   8423SM   C4S11180   4.713   2.557  12.915 -0.4195  0.4296 -0.1004
   8423SM   H4S11181   4.751   2.496  12.999 -1.9273  0.2905  0.5175
   8423SM   C5S11182   4.656   2.673  12.943  0.4928 -0.4443  0.1563
   8423SM   H5S11183   4.599   2.722  12.862  1.1624  0.3194  0.1373
   8423SM   C6S11184   4.652   2.737  13.075 -0.4763  0.2797 -0.2315
   8423SM   H6S11185   4.550   2.730  13.118  0.2393 -0.0619  1.5340
   8423SM   H6T11186   4.665   2.843  13.044 -0.1003 -0.3291 -2.2864
   8423SM   C7S11187   4.757   2.696  13.180 -0.3257 -0.4472 -0.0224
   8423SM   H7S11188   4.861   2.689  13.141 -1.6538 -1.2411 -3.8325
   8423SM   H7T11189   4.747   2.591  13.214  0.2789 -1.5284 -2.9326
   8423SM   C8S11190   4.770   2.792  13.300  0.2773  0.3045  0.2964
   8423SM   H8S11191   4.672   2.838  13.323  0.6060  0.8169  0.6841
   8423SM   H8T11192   4.839   2.874  13.273 -0.2901 -0.2658 -3.4728
   8423SM   C9S11193   4.833   2.719  13.423 -0.6991  0.3546  0.1950
   8423SM   H9S11194   4.936   2.682  13.406 -0.9563 -0.6375  0.7151
   8423SM   H9T11195   4.776   2.627  13.448 -1.9178  0.5373 -1.7142
   8423SM  C10S11196   4.852   2.804  13.545  0.0009  0.1127  0.4577
   8423SM  H10S11197   4.752   2.846  13.568 -0.5737 -1.3134  0.6527
   8423SM  H10T11198   4.927   2.883  13.524  0.5320 -0.7796 -1.1700
   8423SM  C11S11199   4.899   2.746  13.680  0.2172 -0.5280  0.7027
   8423SM  H11S11200   5.010   2.738  13.680  0.2286 -1.3374 -1.9206
   8423SM  H11T11201   4.853   2.647  13.702 -1.7665  0.2752  0.3020
   8423SM  C12S11202   4.863   2.839  13.795 -1.1253 -0.0413  0.1547
   8423SM  H12S11203   4.755   2.859  13.814 -0.8235  3.1200 -0.8618
   8423SM  H12T11204   4.911   2.933  13.761 -1.1836  0.1588  0.6193
   8423SM  C13S11205   4.939   2.788  13.924  0.2465 -0.0341 -1.0044
   8423SM  H13S11206   5.048   2.806  13.912  0.4847 -0.1891  0.5826
   8423SM  H13T11207   4.940   2.677  13.929 -0.4878 -0.0106  0.0990
   8423SM  C14S11208   4.882   2.848  14.059  0.1128 -0.9284  0.0964
   8423SM  H14S11209   4.775   2.831  14.083  0.0081  0.0258  0.3497
   8423SM  H14T11210   4.871   2.954  14.027  2.1286 -0.7095  0.0079
   8423SM  C15S11211   4.964   2.818  14.180 -0.3862 -0.4071 -0.1183
   8423SM  H15S11212   5.069   2.852  14.166 -0.7711  0.9912  0.1678
   8423SM  H15T11213   4.971   2.708  14.192  0.9817 -0.3154  0.1412
   8423SM  C16S11214   4.913   2.876  14.317 -0.3548  0.1674 -0.4036
   8423SM  H16S11215   4.850   2.966  14.307  0.5738  0.9901  0.8486
   8423SM  H16T11216   5.007   2.897  14.373 -0.3715 -0.7060 -0.0308
   8423SM  C17S11217   4.834   2.774  14.406  0.5435 -0.5329  0.2729
   8423SM  H17S11218   4.898   2.690  14.441  0.3805 -1.2098 -0.9835
   8423SM  H17T11219   4.754   2.728  14.343 -0.5856  0.7083  0.7491
   8423SM  C18S11220   4.758   2.831  14.523 -0.5631 -0.2618  0.4306
   8423SM  H18S11221   4.720   2.748  14.586  0.3976  0.5915  2.2104
   8423SM  H18T11222   4.669   2.883  14.481  0.8501  1.5059 -0.4968
   8423SM  H18U11223   4.817   2.902  14.584  2.0177 -1.4923 -0.5213
   8423SM   C1F11224   5.094   2.565  12.802 -0.3072 -0.8334  0.0053
   8423SM    OF11225   5.107   2.639  12.703  0.3955 -0.0675  0.2328
   8423SM   C2F11226   5.203   2.520  12.893 -0.5397  0.2584  0.2561
   8423SM   H2F11227   5.265   2.435  12.856  0.6876  1.7652 -1.2857
   8423SM   H2G11228   5.148   2.489  12.984 -2.5275 -0.7705 -1.2215
   8423SM   C3F11229   5.309   2.631  12.931 -0.5088 -0.3701  0.0444
   8423SM   H3F11230   5.264   2.722  12.976 -0.8155 -0.3262 -0.3428
   8423SM   H3G11231   5.360   2.669  12.840  2.3001  0.2816  1.7575
   8423SM   C4F11232   5.424   2.568  13.012  0.4918  0.1730 -0.1177
   8423SM   H4F11233   5.488   2.653  13.045 -3.0237  2.7649  0.6137
   8423SM   H4G11234   5.477   2.493  12.951 -1.5984  0.7167 -2.8046
   8423SM   C5F11235   5.383   2.499  13.143 -0.2808  0.3018 -0.1386
   8423SM   H5F11236   5.331   2.404  13.120  1.4425 -0.4313 -1.2938
   8423SM   H5G11237   5.295   2.549  13.188  0.3009 -0.1960  1.6301
   8423SM   C6F11238   5.500   2.472  13.249  0.5557  0.5438  0.4262
   8423SM   H6F11239   5.545   2.566  13.288  1.6223 -0.6694  2.2481
   8423SM   H6G11240   5.586   2.414  13.208  2.4832  2.6020  1.3240
   8423SM   C7F11241   5.444   2.381  13.359  0.2667 -0.2159  0.5182
   8423SM   H7F11242   5.366   2.321  13.308  1.0059 -0.1698 -0.6933
   8423SM   H7G11243   5.403   2.445  13.441 -1.3009 -1.1437  0.4896
   8423SM   C8F11244   5.556   2.290  13.412  0.2701 -0.2496  0.0612
   8423SM   H8F11245   5.648   2.350  13.427 -1.3754  3.0063 -1.6849
   8423SM   H8G11246   5.566   2.212  13.334 -3.2437  0.3636 -1.1772
   8423SM   C9F11247   5.523   2.221  13.544  0.2443  0.0951 -0.0154
   8423SM   H9F11248   5.417   2.192  13.524  0.3479 -0.4305  0.1659
   8423SM   H9G11249   5.511   2.293  13.628 -2.8332  0.7151 -0.8546
   8423SM  C10F11250   5.611   2.104  13.579  0.2870 -0.1326 -0.0783
   8423SM  H10F11251   5.716   2.132  13.561  0.3311  0.4674  1.0335
   8423SM  H10G11252   5.590   2.031  13.498  0.4078 -0.1809 -0.0659
   8423SM  C11F11253   5.594   2.028  13.715 -0.0114 -0.2474 -0.0545
   8423SM  H11F11254   5.632   2.089  13.800 -0.3331 -0.9271  0.5855
   8423SM  H11G11255   5.644   1.928  13.718  1.0158  0.2524  0.1363
   8423SM  C12F11256   5.450   1.991  13.749  1.1578  0.1385  0.2951
   8423SM  H12F11257   5.400   1.997  13.650  0.8548  0.0435  0.4431
   8423SM  H12G11258   5.416   2.070  13.820 -1.8732 -1.4456  0.7669
   8423SM  C13F11259   5.428   1.855  13.826 -0.0822  0.1576  0.6259
   8423SM  H13F11260   5.460   1.775  13.756 -0.7067 -1.0715  1.7079
   8423SM  H13G11261   5.318   1.842  13.835 -0.4100  1.1779 -1.2581
   8423SM  C14F11262   5.509   1.841  13.955  0.2023  0.0052  0.4124
   8423SM  H14F11263   5.529   1.936  14.008  1.9029 -0.5435  0.8332
   8423SM  H14G11264   5.603   1.784  13.942  0.6019  0.2061  2.1447
   8423SM  C15F11265   5.433   1.753  14.062 -1.8311 -0.3965  0.3985
   8423SM  H15F11266   5.515   1.711  14.123  0.4831  2.5454 -0.4326
   8423SM  H15G11267   5.400   1.656  14.019  1.2954 -1.9478  1.2191
   8423SM  C16F11268   5.326   1.818  14.145 -0.3384  0.2865 -0.1280
   8423SM  H16F11269   5.271   1.743  14.206 -0.0178  1.7434  2.0745
   8423SM  H16G11270   5.254   1.867  14.076  0.9643  2.4291 -0.0403
   8423SM  C17F11271   5.368   1.933  14.246  0.5535  0.8058  0.2109
   8423SM  H17F11272   5.400   2.021  14.187  1.3895  0.6261  0.3946
   8423SM  H17G11273   5.445   1.890  14.314  0.9107  0.1983 -0.5654
   8423SM  C18F11274   5.254   1.968  14.340 -0.3161  0.7221 -0.2550
   8423SM  H18F11275   5.230   1.869  14.385  0.1222  1.2118  1.1368
   8423SM  H18G11276   5.157   2.006  14.303 -0.0957 -0.2969 -1.9667
   8423SM  C19F11277   5.303   2.063  14.459 -0.0248 -0.6423  0.1074
   8423SM  H19F11278   5.226   2.138  14.486  1.5313  0.5188  1.5188
   8423SM  H19G11279   5.378   2.132  14.416 -1.7601  0.8638 -0.6493
   8423SM  C20F11280   5.352   1.991  14.588 -0.2869 -0.0369  0.0940
   8423SM  H20F11281   5.445   1.933  14.571  1.4306  2.6372 -0.3803
   8423SM  H20G11282   5.270   1.921  14.613 -1.0400 -0.2046 -2.5847
   8423SM  C21F11283   5.360   2.097  14.701 -0.3417  0.6878 -0.1462
   8423SM  H21F11284   5.342   2.044  14.797  1.2650 -0.8936 -0.6458
   8423SM  H21G11285   5.287   2.180  14.695  0.2866  1.2788  0.1800
   8423SM  C22F11286   5.503   2.146  14.707 -0.3139  0.1640 -0.4463
   8423SM  H22F11287   5.510   2.214  14.620  1.4264  0.3715 -0.1791
   8423SM  H22G11288   5.559   2.052  14.688 -0.9856 -0.2689 -0.2930
   8423SM  C23F11289   5.558   2.222  14.829  0.0808 -0.1013  0.9116
   8423SM  H23F11290   5.666   2.241  14.813  0.4099 -2.9841 -1.0306
   8423SM  H23G11291   5.539   2.165  14.923  2.6078 -0.1733  1.4464
   8423SM  H23H11292   5.495   2.313  14.841  1.5672  1.2119 -0.7339
   8523SM     N11293   5.799   3.797  12.322  0.2513  0.0702  0.6675
   8523SM   C1511294   5.666   3.727  12.301 -0.5108 -0.0679 -0.5214
   8523SM  H15A11295   5.631   3.671  12.386  1.1770 -0.7856 -0.2644
   8523SM  H15B11296   5.671   3.673  12.208  1.9385 -0.7405 -0.0602
   8523SM  H15C11297   5.587   3.801  12.296  0.3949  0.9956  0.2671
   8523SM   C1411298   5.902   3.695  12.341 -0.6610 -0.1288 -0.0125
   8523SM  H14A11299   5.917   3.629  12.256  0.2268  0.4259 -0.3133
   8523SM  H14B11300   5.885   3.634  12.428  0.2175 -0.9618 -0.3927
   8523SM  H14C11301   5.998   3.745  12.340 -1.3542  1.2596  0.0592
   8523SM   C1311302   5.825   3.876  12.195 -0.5525  0.7080 -0.2198
   8523SM  H13A11303   5.917   3.931  12.194 -0.8882  1.2798  0.0910
   8523SM  H13B11304   5.749   3.949  12.174 -3.0364 -1.6966 -0.2421
   8523SM  H13C11305   5.834   3.805  12.114  0.0831 -1.3468  1.5360
   8523SM   C1211306   5.789   3.894  12.438  0.4228  0.1259  0.7372
   8523SM  H12A11307   5.715   3.968  12.417 -0.3832 -0.8439  0.0751
   8523SM  H12B11308   5.885   3.943  12.445  0.8634 -0.5617 -0.3011
   8523SM   C1111309   5.755   3.823  12.575 -0.4573 -0.5314  0.3044
   8523SM  H11A11310   5.788   3.889  12.658  0.5603 -1.6269  0.8115
   8523SM  H11B11311   5.815   3.730  12.582 -2.4862 -1.9106  0.0762
   8523SM     P11312   5.514   3.907  12.638 -0.3460  0.2775 -0.2876
   8523SM   O1311313   5.527   4.015  12.540  0.2605 -0.3680  0.1505
   8523SM   O1411314   5.380   3.843  12.656 -0.4160  0.0451 -0.4105
   8523SM   O1111315   5.575   3.951  12.779 -0.0161 -0.1513 -0.4856
   8523SM   O1211316   5.618   3.797  12.593  0.1963  0.1331  0.3678
   8523SM   C1S11317   5.605   3.857  12.888 -0.3831  0.4598 -0.3674
   8523SM   H1S11318   5.706   3.814  12.870 -1.5224 -1.2416 -3.4287
   8523SM   H1T11319   5.533   3.773  12.882 -1.1309  1.1019 -0.4969
   8523SM    NF11320   5.699   3.899  13.115  1.0069 -0.5860  0.6613
   8523SM   HNF11321   5.676   3.837  13.190  1.3827  1.6365  2.7200
   8523SM   C2S11322   5.590   3.926  13.024  0.5675 -0.2275 -0.4013
   8523SM   H2S11323   5.594   4.037  13.012  1.8793 -0.0871  0.9487
   8523SM   C3S11324   5.442   3.903  13.064 -0.2795  0.6215 -0.1914
   8523SM   H3S11325   5.422   3.794  13.070  0.3817  0.5185  0.2067
   8523SM    O311326   5.347   3.971  12.979  0.4257 -0.2490 -0.5919
   8523SM   HO311327   5.394   3.993  12.898 -2.1449  1.1931 -1.8100
   8523SM   C4S11328   5.426   3.962  13.203 -0.5154  0.1542  0.5164
   8523SM   H4S11329   5.437   3.883  13.279 -1.5150 -1.6811 -1.1514
   8523SM   C5S11330   5.402   4.088  13.234 -0.0308 -0.2411 -0.1084
   8523SM   H5S11331   5.386   4.165  13.157 -0.0634 -0.0360  0.1017
   8523SM   C6S11332   5.378   4.125  13.379 -0.3921  0.3710 -0.5378
   8523SM   H6S11333   5.381   4.039  13.449 -0.6338  0.4824 -0.3882
   8523SM   H6T11334   5.283   4.181  13.394  0.4815  1.9340 -0.6111
   8523SM   C7S11335   5.493   4.218  13.403 -0.4814 -0.1130  0.4327
   8523SM   H7S11336   5.493   4.302  13.330 -0.6679 -1.9083 -1.7336
   8523SM   H7T11337   5.592   4.174  13.382  0.1547  1.3203  0.2639
   8523SM   C8S11338   5.512   4.282  13.539  0.0457  0.4369  0.6569
   8523SM   H8S11339   5.424   4.348  13.553 -0.3789 -0.5850  3.5274
   8523SM   H8T11340   5.605   4.342  13.537  2.1963 -2.6802 -1.1155
   8523SM   C9S11341   5.530   4.179  13.652 -1.1468 -0.0455 -0.8147
   8523SM   H9S11342   5.435   4.121  13.659 -1.9954  1.4193  1.2717
   8523SM   H9T11343   5.540   4.230  13.751  2.4540 -4.1037  1.2238
   8523SM  C10S11344   5.640   4.075  13.635  0.1014  0.1650  0.3480
   8523SM  H10S11345   5.734   4.130  13.612 -0.7522  1.6021  0.1240
   8523SM  H10T11346   5.605   4.021  13.544 -3.3540  0.3745  1.4099
   8523SM  C11S11347   5.649   3.979  13.751  0.1958 -0.3182 -0.1498
   8523SM  H11S11348   5.547   3.952  13.786  1.2023  0.0524  3.5024
   8523SM  H11T11349   5.693   4.018  13.846  1.2484 -1.8219  0.0069
   8523SM  C12S11350   5.730   3.846  13.708 -0.5169  0.4436 -0.2306
   8523SM  H12S11351   5.821   3.885  13.657 -1.2622  2.2390 -0.2538
   8523SM  H12T11352   5.666   3.805  13.626 -4.0373  3.0025  1.0398
   8523SM  C13S11353   5.760   3.751  13.825 -0.1331  0.7522 -0.2549
   8523SM  H13S11354   5.753   3.812  13.918 -1.6830  1.9514 -1.1059
   8523SM  H13T11355   5.865   3.715  13.814 -0.6615 -0.2377 -2.2783
   8523SM  C14S11356   5.667   3.628  13.832 -0.1704 -0.1224  0.0168
   8523SM  H14S11357   5.568   3.652  13.788  0.8727  2.8775 -0.9784
   8523SM  H14T11358   5.655   3.602  13.939  0.0544  1.0509  0.3407
   8523SM  C15S11359   5.731   3.511  13.762 -0.2365 -0.2757  0.5826
   8523SM  H15S11360   5.816   3.485  13.829 -0.4922 -0.2479  0.9202
   8523SM  H15T11361   5.765   3.533  13.659  3.4471 -2.1424  1.2460
   8523SM  C16S11362   5.648   3.381  13.760 -0.0044  0.3319 -0.2157
   8523SM  H16S11363   5.541   3.410  13.757  0.2264  1.2591  0.0894
   8523SM  H16T11364   5.660   3.320  13.852 -0.1908 -0.4566 -0.7028
   8523SM  C17S11365   5.667   3.289  13.645 -0.3941  0.2004 -0.7785
   8523SM  H17S11366   5.755   3.223  13.663 -1.4107 -1.7052 -2.4092
   8523SM  H17T11367   5.693   3.344  13.552  1.4010 -0.6926 -0.8436
   8523SM  C18S11368   5.549   3.194  13.625  0.2081 -0.2887 -0.5912
   8523SM  H18S11369   5.529   3.140  13.720  0.2231  0.5362 -0.1121
   8523SM  H18T11370   5.581   3.116  13.553  0.3821  0.9854 -1.9438
   8523SM  H18U11371   5.459   3.240  13.578  0.7439  0.8958 -0.4888
   8523SM   C1F11372   5.822   3.926  13.088  0.4701 -0.0233  0.6153
   8523SM    OF11373   5.860   4.019  13.015  0.0112  0.2438  0.0672
   8523SM   C2F11374   5.922   3.839  13.153  0.4691 -0.2633 -0.3086
   8523SM   H2F11375   5.993   3.802  13.075  0.4185 -0.0121 -0.4764
   8523SM   H2G11376   5.871   3.750  13.195  2.1061 -2.1837 -2.1181
   8523SM   C3F11377   6.000   3.923  13.267 -0.8136 -0.4481 -0.2522
   8523SM   H3F11378   5.928   3.968  13.337  0.9293 -0.3210  1.5543
   8523SM   H3G11379   6.053   4.006  13.215  1.6631 -0.6158  1.8317
   8523SM   C4F11380   6.116   3.847  13.338 -0.4609 -0.3582 -0.2398
   8523SM   H4F11381   6.175   3.800  13.256 -1.5820  0.4690 -1.5699
   8523SM   H4G11382   6.073   3.763  13.396  1.1893 -1.2747 -0.2617
   8523SM   C5F11383   6.205   3.939  13.419  0.7969 -0.2656 -0.2830
   8523SM   H5F11384   6.140   3.979  13.500  1.0738 -0.8908  0.2577
   8523SM   H5G11385   6.254   4.019  13.360  0.5739 -0.5025 -0.7975
   8523SM   C6F11386   6.324   3.854  13.476  0.4554  0.3753  0.6188
   8523SM   H6F11387   6.394   3.817  13.398  1.0845 -0.1261  1.3993
   8523SM   H6G11388   6.285   3.772  13.540  1.5161 -0.6937 -0.0668
   8523SM   C7F11389   6.406   3.938  13.573  1.1420 -0.1769 -0.9018
   8523SM   H7F11390   6.424   4.038  13.527  0.7183 -0.2817 -1.3005
   8523SM   H7G11391   6.505   3.891  13.593  1.0756 -0.4263 -1.1546
   8523SM   C8F11392   6.335   3.948  13.710 -0.4137  0.3176  0.4702
   8523SM   H8F11393   6.329   3.841  13.741  0.0788  0.4474  1.0385
   8523SM   H8G11394   6.236   3.995  13.696  0.5389  1.5275 -3.5351
   8523SM   C9F11395   6.421   4.018  13.816 -0.5362  0.0061 -0.2824
   8523SM   H9F11396   6.420   4.126  13.794 -3.3393 -0.1680 -1.4008
   8523SM   H9G11397   6.523   3.978  13.800 -0.8658 -1.4123  0.8703
   8523SM  C10F11398   6.378   3.992  13.962 -0.4116  0.0851 -0.0615
   8523SM  H10F11399   6.373   3.885  13.991 -0.3367  0.2100  0.4332
   8523SM  H10G11400   6.275   4.031  13.969 -0.1073  0.6797  1.9424
   8523SM  C11F11401   6.456   4.076  14.064  0.5681 -0.2443 -0.1604
   8523SM  H11F11402   6.445   4.182  14.031  0.8681 -0.8486 -2.3268
   8523SM  H11G11403   6.566   4.059  14.053  1.0562  2.2341  0.3230
   8523SM  C12F11404   6.423   4.049  14.209 -1.0456 -0.6909  0.6111
   8523SM  H12F11405   6.440   3.943  14.239  0.7826 -0.5731  0.0626
   8523SM  H12G11406   6.315   4.069  14.226 -0.3280  3.5435  1.3552
   8523SM  C13F11407   6.509   4.149  14.291 -0.1243 -0.2762 -0.4973
   8523SM  H13F11408   6.616   4.160  14.263  0.6828 -0.3215  2.2682
   8523SM  H13G11409   6.521   4.109  14.395 -0.1772  0.1418 -0.3302
   8523SM  C14F11410   6.466   4.304  14.288 -0.5647  0.9422  0.5108
   8523SM  H14F11411   6.376   4.304  14.354  0.2440 -0.1040  1.6627
   8523SM  H14G11412   6.441   4.339  14.186  2.5277  1.7557 -0.0666
   8523SM  C15F11413   6.556   4.408  14.343 -0.5191 -0.3872 -0.6400
   8523SM  H15F11414   6.507   4.507  14.356  2.8320  1.3766 -0.3396
   8523SM  H15G11415   6.637   4.424  14.269  1.0372  1.2506  1.2967
   8523SM  C16F11416   6.641   4.378  14.472 -0.1315 -0.2164  0.5577
   8523SM  H16F11417   6.724   4.450  14.484  0.8068 -1.5189  2.5110
   8523SM  H16G11418   6.698   4.282  14.464  0.7662  0.3473 -0.0118
   8523SM  C17F11419   6.571   4.402  14.607 -0.1067  0.4039  0.4151
   8523SM  H17F11420   6.488   4.329  14.619  0.7430 -0.5332  0.7070
   8523SM  H17G11421   6.521   4.502  14.605  0.5093  0.7234  0.5878
   8523SM  C18F11422   6.666   4.401  14.728 -0.2021  0.2446 -0.6657
   8523SM  H18F11423   6.726   4.494  14.722  1.0286 -0.1463  3.0474
   8523SM  H18G11424   6.726   4.308  14.735  1.7439  1.4965  0.4683
   8523SM  C19F11425   6.597   4.411  14.864 -0.2726 -0.1636  0.7285
   8523SM  H19F11426   6.663   4.368  14.942 -0.3587  0.7475  1.3224
   8523SM  H19G11427   6.495   4.370  14.848 -1.5106  2.9302 -0.0957
   8523SM  C20F11428   6.575   4.559  14.903  0.0024  0.1577 -0.0020
   8523SM  H20F11429   6.523   4.610  14.819 -0.7734 -0.0721  0.3284
   8523SM  H20G11430   6.673   4.610  14.908  1.4245 -2.5527  2.3491
   8523SM  C21F11431   6.480   4.574  15.026  0.0204 -0.2615 -0.8489
   8523SM  H21F11432   6.544   4.554  15.115 -0.7065 -0.2229 -0.3062
   8523SM  H21G11433   6.401   4.498  15.043  2.3501 -2.3770  1.3791
   8523SM  C22F11434   6.422   4.716  15.041 -0.0748  0.8013 -0.7781
   8523SM  H22F11435   6.389   4.752  14.941  0.6398  2.6901 -0.3802
   8523SM  H22G11436   6.504   4.787  15.067 -0.7890  0.4372  3.1074
   8523SM  C23F11437   6.313   4.728  15.144  0.2352 -0.2190  0.2634
   8523SM  H23F11438   6.353   4.728  15.248  1.1737 -0.6718 -0.0928
   8523SM  H23G11439   6.247   4.639  15.136 -0.4231  0.2620  0.2473
   8523SM  H23H11440   6.249   4.817  15.126 -0.0366 -0.5811 -0.5782
   8623SM     N11441   4.539   2.207  12.516 -0.2453  0.0794 -0.4263
   8623SM   C1511442   4.457   2.090  12.461 -0.4324 -0.3793  0.2881
   8623SM  H15A11443   4.450   2.094  12.354  1.1904  2.0637  0.1962
   8623SM  H15B11444   4.355   2.098  12.498 -1.0834 -0.0209 -1.4948
   8623SM  H15C11445   4.496   1.994  12.491  1.6745  0.5363  0.6345
   8623SM   C1411446   4.659   2.234  12.435  0.2196  0.0103 -0.4505
   8623SM  H14A11447   4.649   2.230  12.327  0.7348 -0.9856 -0.4783
   8623SM  H14B11448   4.730   2.154  12.455  0.7955  0.2148 -1.5852
   8623SM  H14C11449   4.709   2.327  12.456 -1.4620  0.7773  0.3035
   8623SM   C1311450   4.463   2.338  12.505 -0.4076 -0.6964 -0.2697
   8623SM  H13A11451   4.520   2.425  12.534 -2.3063  1.0588 -1.4745
   8623SM  H13B11452   4.368   2.339  12.556 -0.7157  2.4442 -0.6939
   8623SM  H13C11453   4.452   2.348  12.398  0.5343 -0.8092 -0.3839
   8623SM   C1211454   4.566   2.177  12.662 -0.1115  0.1236 -0.0267
   8623SM  H12A11455   4.473   2.186  12.715  0.9640  2.4185  1.6630
   8623SM  H12B11456   4.636   2.255  12.691  3.5120 -2.4939 -0.9850
   8623SM   C1111457   4.634   2.046  12.693 -0.1185 -0.6680 -0.2416
   8623SM  H11A11458   4.691   2.055  12.788  0.6881  3.1854 -0.9244
   8623SM  H11B11459   4.716   2.034  12.620  0.1582 -2.4885  0.3116
   8623SM     P11460   4.569   1.794  12.761  0.1304 -0.3869  0.0647
   8623SM   O1311461   4.468   1.697  12.716  0.1410 -0.1117  0.1560
   8623SM   O1411462   4.707   1.760  12.767 -0.7050 -0.2743 -0.5336
   8623SM   O1111463   4.517   1.830  12.905  0.4082  0.1094 -0.0153
   8623SM   O1211464   4.544   1.936  12.691  0.2096  0.9133  0.2509
   8623SM   C1S11465   4.400   1.909  12.928  0.3218  0.4021 -0.2888
   8623SM   H1S11466   4.305   1.850  12.923  0.0469  0.8406 -0.2906
   8623SM   H1T11467   4.396   1.992  12.855  1.8062 -0.1727 -1.0595
   8623SM    NF11468   4.313   2.067  13.100  0.1934  0.6794 -0.6331
   8623SM   HNF11469   4.334   2.163  13.119  2.4598 -0.0235  0.7408
   8623SM   C2S11470   4.424   1.983  13.060 -0.0886 -0.1697 -0.5997
   8623SM   H2S11471   4.431   1.907  13.141 -2.8463 -0.3624 -0.4420
   8623SM   C3S11472   4.559   2.064  13.059  0.0891 -0.3702 -0.3227
   8623SM   H3S11473   4.569   2.134  12.973 -0.5781 -1.2132 -1.1184
   8623SM    O311474   4.668   1.981  13.048  0.3657  0.1197  0.5466
   8623SM   HO311475   4.639   1.904  12.999 -2.9789  2.3722 -1.4922
   8623SM   C4S11476   4.586   2.139  13.187 -0.1223  0.1667  0.3901
   8623SM   H4S11477   4.628   2.081  13.270  0.5128  0.6825  0.4333
   8623SM   C5S11478   4.575   2.271  13.197  0.4916 -0.7467  0.4284
   8623SM   H5S11479   4.560   2.327  13.103 -0.9550 -1.7937  0.0012
   8623SM   C6S11480   4.604   2.347  13.324 -0.8274  0.0359 -1.1187
   8623SM   H6S11481   4.516   2.412  13.344 -0.5541  0.8867 -2.5139
   8623SM   H6T11482   4.692   2.414  13.310 -1.2579  0.8232 -0.1609
   8623SM   C7S11483   4.631   2.263  13.448 -0.4504  0.4876 -0.8582
   8623SM   H7S11484   4.724   2.204  13.433 -2.0882 -2.3246 -0.5863
   8623SM   H7T11485   4.548   2.193  13.470 -1.4979  1.6285 -1.0735
   8623SM   C8S11486   4.655   2.348  13.575 -0.2292  0.3031  0.0648
   8623SM   H8S11487   4.749   2.404  13.558  1.6850 -1.9544  2.3858
   8623SM   H8T11488   4.665   2.276  13.659 -1.9388 -0.0254  0.0322
   8623SM   C9S11489   4.540   2.451  13.590  0.2407  0.1276  0.3644
   8623SM   H9S11490   4.444   2.396  13.593  0.1862  0.2439  0.8622
   8623SM   H9T11491   4.552   2.534  13.517 -2.2889  0.6862  0.4924
   8623SM  C10S11492   4.539   2.513  13.728  0.8598  1.1517 -0.4225
   8623SM  H10S11493   4.626   2.579  13.748  1.0684  1.0839 -1.0956
   8623SM  H10T11494   4.540   2.427  13.799  0.7342  2.5941  1.4078
   8623SM  C11S11495   4.410   2.592  13.750  0.3401 -0.3900 -0.0677
   8623SM  H11S11496   4.400   2.642  13.651  2.5534 -1.0819 -0.7172
   8623SM  H11T11497   4.426   2.654  13.841  2.8662 -0.7390 -0.1869
   8623SM  C12S11498   4.279   2.517  13.783  0.1732 -1.0528  0.8239
   8623SM  H12S11499   4.267   2.446  13.698 -1.3288  3.2989 -3.0486
   8623SM  H12T11500   4.194   2.587  13.768  1.5925  0.3841 -1.0063
   8623SM  C13S11501   4.269   2.458  13.923 -0.0132  0.4046 -0.1931
   8623SM  H13S11502   4.357   2.497  13.979 -0.5904  2.5140 -0.6670
   8623SM  H13T11503   4.270   2.347  13.918 -0.5717  0.3243  1.1072
   8623SM  C14S11504   4.146   2.488  14.007  0.2561  0.2171 -0.0413
   8623SM  H14S11505   4.066   2.427  13.961 -0.2640 -0.4690  1.6915
   8623SM  H14T11506   4.118   2.596  13.999 -1.0080 -0.1503 -0.8238
   8623SM  C15S11507   4.149   2.439  14.150  0.1869 -0.1865 -0.2000
   8623SM  H15S11508   4.215   2.350  14.157 -1.0106 -1.1373 -0.7568
   8623SM  H15T11509   4.046   2.409  14.177  0.0300  0.4191 -0.1168
   8623SM  C16S11510   4.199   2.554  14.235  0.6398 -0.5797 -0.4026
   8623SM  H16S11511   4.139   2.648  14.237 -1.7355 -2.0100 -0.1359
   8623SM  H16T11512   4.298   2.579  14.192  0.3995  1.1804  0.0148
   8623SM  C17S11513   4.196   2.526  14.390  0.2957  0.4911  0.9419
   8623SM  H17S11514   4.249   2.434  14.419  2.9502  1.5771 -0.1565
   8623SM  H17T11515   4.087   2.516  14.412  0.0339  1.5463  0.2265
   8623SM  C18S11516   4.242   2.639  14.483 -0.6432  0.1699 -0.1787
   8623SM  H18S11517   4.349   2.655  14.455  0.0383 -3.0510  0.2093
   8623SM  H18T11518   4.241   2.617  14.592  2.8570  1.7705  0.3194
   8623SM  H18U11519   4.201   2.740  14.463 -1.1349  0.2735  1.2575
   8623SM   C1F11520   4.189   2.016  13.118  0.8600  0.5570 -0.3614
   8623SM    OF11521   4.176   1.896  13.134  0.3414  0.4213  0.6462
   8623SM   C2F11522   4.079   2.119  13.109  0.1188  0.1242  0.0346
   8623SM   H2F11523   4.030   2.104  13.011 -1.4425 -1.7535  1.0295
   8623SM   H2G11524   4.130   2.218  13.110  1.3337 -0.4265 -1.9958
   8623SM   C3F11525   3.974   2.100  13.218  0.1499  0.1662  0.2578
   8623SM   H3F11526   4.024   2.098  13.318 -0.7749 -0.4664  0.7193
   8623SM   H3G11527   3.940   1.997  13.195  0.3979  0.2469 -0.4934
   8623SM   C4F11528   3.849   2.191  13.216 -0.5641  0.0219  0.8273
   8623SM   H4F11529   3.801   2.182  13.116  0.5811  1.6035  0.0907
   8623SM   H4G11530   3.870   2.300  13.230 -0.2902 -0.0145  0.7037
   8623SM   C5F11531   3.738   2.153  13.322 -0.2295 -0.3986 -0.4556
   8623SM   H5F11532   3.790   2.172  13.419  0.8708  0.7265 -1.2218
   8623SM   H5G11533   3.716   2.044  13.323  0.9033 -0.6456 -0.8108
   8623SM   C6F11534   3.611   2.228  13.294  0.3996  0.2329  0.6970
   8623SM   H6F11535   3.587   2.236  13.186  2.7128  1.4112  0.2109
   8623SM   H6G11536   3.625   2.330  13.336  0.0201 -0.7521  3.3977
   8623SM   C7F11537   3.484   2.173  13.370 -0.6499  0.2141  0.3975
   8623SM   H7F11538   3.507   2.177  13.478 -0.4721 -0.3355  0.3835
   8623SM   H7G11539   3.465   2.066  13.345  0.4809  0.6786 -3.0178
   8623SM   C8F11540   3.360   2.246  13.331  1.3125 -0.4345  0.0938
   8623SM   H8F11541   3.351   2.247  13.220  0.6499  1.6071  0.1262
   8623SM   H8G11542   3.384   2.354  13.345 -2.4548  0.6938 -0.9691
   8623SM   C9F11543   3.231   2.202  13.402  0.1752  0.1989  0.0098
   8623SM   H9F11544   3.146   2.273  13.390 -0.4512 -0.6193 -0.5618
   8623SM   H9G11545   3.249   2.206  13.511 -1.7431 -0.5786  0.4063
   8623SM  C10F11546   3.178   2.062  13.355 -0.2521 -0.0099 -0.3535
   8623SM  H10F11547   3.261   1.988  13.350  0.6217  1.0145 -3.3067
   8623SM  H10G11548   3.141   2.061  13.250 -0.9712 -3.5766 -0.1890
   8623SM  C11F11549   3.039   2.035  13.425  0.0879 -0.3653  0.1835
   8623SM  H11F11550   3.004   1.944  13.372 -1.2233  0.9403 -1.2819
   8623SM  H11G11551   2.971   2.117  13.393  0.3174 -0.5483 -0.8073
   8623SM  C12F11552   3.045   2.026  13.572  0.0992  0.1877  0.0280
   8623SM  H12F11553   3.074   2.124  13.616 -0.8993  1.1297 -1.3072
   8623SM  H12G11554   3.113   1.945  13.605 -2.1172 -2.1960 -0.8994
   8623SM  C13F11555   2.904   1.986  13.619  0.3974  0.5567 -0.6603
   8623SM  H13F11556   2.895   1.880  13.588 -0.8998 -0.3180  2.3443
   8623SM  H13G11557   2.831   2.049  13.564  0.0814  0.7205 -0.0573
   8623SM  C14F11558   2.884   1.988  13.773 -0.1133  0.2435 -0.4421
   8623SM  H14F11559   2.965   1.918  13.804 -0.0904 -0.8510 -2.8094
   8623SM  H14G11560   2.784   1.948  13.799  0.3760 -0.8318 -0.1467
   8623SM  C15F11561   2.904   2.129  13.838  0.3693  0.5299  0.6958
   8623SM  H15F11562   2.824   2.196  13.801  0.4659  0.8136  0.9918
   8623SM  H15G11563   3.008   2.156  13.810  0.1066  1.9374  1.0213
   8623SM  C16F11564   2.871   2.130  13.990  0.9739  0.3303 -0.0935
   8623SM  H16F11565   2.943   2.055  14.031 -0.7717 -0.6223  1.4277
   8623SM  H16G11566   2.777   2.073  14.005  3.2262 -3.6683  0.4286
   8623SM  C17F11567   2.882   2.267  14.065  0.1368  0.6295 -0.0258
   8623SM  H17F11568   2.823   2.343  14.010  2.3513  1.8642 -0.8199
   8623SM  H17G11569   2.988   2.297  14.050  0.7694 -0.6778  1.5469
   8623SM  C18F11570   2.839   2.273  14.208  0.5501 -0.2907  0.6750
   8623SM  H18F11571   2.732   2.250  14.186  0.7080 -0.8776  0.5131
   8623SM  H18G11572   2.855   2.369  14.262  0.0873 -1.2311  2.5955
   8623SM  C19F11573   2.882   2.156  14.296 -0.5842 -0.8311  0.2533
   8623SM  H19F11574   2.989   2.178  14.318 -0.7557  0.0031  0.2812
   8623SM  H19G11575   2.878   2.057  14.246  1.9019 -0.5241 -0.6894
   8623SM  C20F11576   2.803   2.154  14.428  0.2021 -0.1729  0.4138
   8623SM  H20F11577   2.697   2.133  14.405  0.3421  0.6811 -1.2150
   8623SM  H20G11578   2.817   2.254  14.474 -0.6511  0.1436  0.0113
   8623SM  C21F11579   2.855   2.054  14.524  0.0014 -0.3306 -0.1741
   8623SM  H21F11580   2.956   2.085  14.559 -0.6566  0.4724  1.0716
   8623SM  H21G11581   2.859   1.954  14.475 -0.9980  0.0313 -1.0320
   8623SM  C22F11582   2.771   2.037  14.653 -0.3564 -0.3525  1.1472
   8623SM  H22F11583   2.795   1.938  14.697  0.0201 -0.3436  0.9660
   8623SM  H22G11584   2.661   2.044  14.636 -0.0745  2.0409 -0.0294
   8623SM  C23F11585   2.798   2.138  14.762 -0.0450  0.6246  0.2922
   8623SM  H23F11586   2.760   2.101  14.859  0.3544 -1.3354 -0.2695
   8623SM  H23G11587   2.764   2.241  14.735  1.5244  1.1702  0.2713
   8623SM  H23H11588   2.909   2.149  14.765 -0.1482  1.6608  1.3451
   8723SM     N11589   5.244   1.887  12.305  0.2255 -0.2935  0.3610
   8723SM   C1511590   5.130   1.825  12.389  0.2287  0.0566 -0.6507
   8723SM  H15A11591   5.151   1.732  12.438 -0.6010  1.1949  2.0592
   8723SM  H15B11592   5.036   1.826  12.335 -0.8833 -1.7050  1.1190
   8723SM  H15C11593   5.128   1.889  12.475  3.3257  0.3167 -0.6609
   8723SM   C1411594   5.293   1.797  12.204 -0.0262 -0.1200  0.9794
   8723SM  H14A11595   5.358   1.849  12.134 -0.7680 -1.6558 -0.9384
   8723SM  H14B11596   5.218   1.747  12.146  1.0133 -1.2747  0.5836
   8723SM  H14C11597   5.371   1.737  12.248  0.1694  0.6023  1.6482
   8723SM   C1311598   5.201   2.003  12.222  0.0935 -0.6281  0.1654
   8723SM  H13A11599   5.139   2.065  12.285  0.4403  1.4591 -1.4578
   8723SM  H13B11600   5.134   1.977  12.143  0.1927  1.8574 -0.8293
   8723SM  H13C11601   5.277   2.068  12.181 -1.0268  1.1187  0.7356
   8723SM   C1211602   5.355   1.939  12.400 -0.6555  1.3332 -0.7267
   8723SM  H12A11603   5.442   1.954  12.339  0.8028  0.5728  1.0723
   8723SM  H12B11604   5.390   1.854  12.457  0.8723  0.8590 -2.3037
   8723SM   C1111605   5.346   2.066  12.494 -0.6233  0.4411  0.4833
   8723SM  H11A11606   5.349   2.157  12.432  0.4952 -1.1488 -1.9376
   8723SM  H11B11607   5.433   2.076  12.563 -0.1973 -2.2173  0.4491
   8723SM     P11608   5.155   2.179  12.616 -0.1907  0.3565 -0.4047
   8723SM   O1311609   5.261   2.281  12.611 -0.4036 -0.0620  0.5232
   8723SM   O1411610   5.042   2.199  12.530 -0.0985 -0.0917 -0.1272
   8723SM   O1111611   5.102   2.163  12.764 -0.1424 -0.0503 -0.2598
   8723SM   O1211612   5.229   2.045  12.576  0.2935  0.1087 -0.8577
   8723SM   C1S11613   5.023   2.045  12.809 -0.2045  0.9281  0.0427
   8723SM   H1S11614   5.057   1.951  12.761  0.3249 -0.0784  2.3035
   8723SM   H1T11615   4.915   2.059  12.787 -0.7755 -2.7628 -0.1285
   8723SM    NF11616   4.954   1.912  12.994 -0.0369  1.0943  0.0156
   8723SM   HNF11617   4.860   1.929  13.022 -0.1145  0.8710 -0.1025
   8723SM   C2S11618   5.029   2.030  12.964  0.3039 -0.0587 -0.0435
   8723SM   H2S11619   5.137   2.022  12.990  0.1766  2.0529  1.3806
   8723SM   C3S11620   4.962   2.156  13.028 -0.4320  0.0911  1.1924
   8723SM   H3S11621   4.852   2.156  13.008 -0.3744 -1.1204  0.7787
   8723SM    O311622   5.020   2.279  12.976  0.1162 -0.1733  0.1002
   8723SM   HO311623   5.080   2.245  12.910 -0.4756  1.9773 -1.6823
   8723SM   C4S11624   4.986   2.145  13.176  0.7433 -0.1558  0.0220
   8723SM   H4S11625   4.899   2.103  13.229  0.7164 -0.9988 -0.6796
   8723SM   C5S11626   5.099   2.182  13.248  0.3434  0.3390 -0.0646
   8723SM   H5S11627   5.190   2.223  13.200  1.0961  0.0585  1.0755
   8723SM   C6S11628   5.101   2.170  13.400 -0.8335  0.3125 -0.2283
   8723SM   H6S11629   5.190   2.109  13.428 -2.0636 -2.2413 -1.5390
   8723SM   H6T11630   5.017   2.107  13.437 -0.2777 -0.3172 -0.0180
   8723SM   C7S11631   5.098   2.299  13.495  0.6686  0.8138 -0.0363
   8723SM   H7S11632   5.022   2.368  13.452  0.8018  1.9906  1.5435
   8723SM   H7T11633   5.194   2.351  13.477  1.0066  0.5829  1.0356
   8723SM   C8S11634   5.070   2.265  13.642 -0.3700 -0.2525  0.0739
   8723SM   H8S11635   5.160   2.212  13.682  0.7474  0.3759 -1.5172
   8723SM   H8T11636   4.976   2.206  13.644 -0.4635 -0.0978  0.2445
   8723SM   C9S11637   5.056   2.398  13.717  0.1114 -0.1756 -0.6690
   8723SM   H9S11638   4.977   2.461  13.672  0.0854 -1.3360 -2.3171
   8723SM   H9T11639   5.150   2.456  13.720 -0.3108  0.5054  1.2600
   8723SM  C10S11640   5.005   2.386  13.860  0.0061 -0.1239 -0.7511
   8723SM  H10S11641   5.001   2.487  13.905 -2.7184 -0.4253 -0.1389
   8723SM  H10T11642   5.082   2.322  13.910  2.1872  3.7542  1.3302
   8723SM  C11S11643   4.868   2.324  13.865 -0.7288  0.6710 -0.3595
   8723SM  H11S11644   4.861   2.224  13.816 -1.0386 -0.3404  1.6340
   8723SM  H11T11645   4.794   2.393  13.818  0.7874  1.8052 -1.1541
   8723SM  C12S11646   4.810   2.302  14.004  0.2464  0.0504 -0.5752
   8723SM  H12S11647   4.878   2.262  14.081 -2.5901 -1.5416  1.2843
   8723SM  H12T11648   4.721   2.236  13.995 -0.5127  1.1461 -1.5332
   8723SM  C13S11649   4.751   2.437  14.053 -0.3998  0.1606  0.0635
   8723SM  H13S11650   4.666   2.468  13.989 -0.4651 -0.0620  0.0428
   8723SM  H13T11651   4.827   2.518  14.047  1.1141 -1.3272 -3.8499
   8723SM  C14S11652   4.710   2.422  14.199 -0.0071 -0.6851 -0.6345
   8723SM  H14S11653   4.695   2.524  14.240  0.5454  0.1278 -2.3954
   8723SM  H14T11654   4.790   2.371  14.258 -1.7986 -0.4154  2.2369
   8723SM  C15S11655   4.569   2.353  14.216  0.1548 -0.3553  0.0414
   8723SM  H15S11656   4.571   2.257  14.160 -1.4589  1.1939 -2.8832
   8723SM  H15T11657   4.497   2.420  14.164  1.0809  0.2202 -0.5189
   8723SM  C16S11658   4.520   2.328  14.360  0.5991  0.3314 -0.1080
   8723SM  H16S11659   4.414   2.299  14.346  0.5582  1.2958 -2.1017
   8723SM  H16T11660   4.509   2.429  14.405 -0.0580  0.1130  0.2311
   8723SM  C17S11661   4.611   2.232  14.439  0.2059 -0.2633 -0.0481
   8723SM  H17S11662   4.716   2.268  14.430 -0.1918  1.2034  0.7871
   8723SM  H17T11663   4.627   2.136  14.384 -0.5299 -1.4510  1.7199
   8723SM  C18S11664   4.561   2.200  14.579 -0.3944 -0.2823 -0.1473
   8723SM  H18S11665   4.502   2.107  14.572  1.1674 -1.5449  2.0816
   8723SM  H18T11666   4.496   2.285  14.609  3.1357  2.3773  0.6513
   8723SM  H18U11667   4.642   2.182  14.653 -0.4026  0.6726  0.1163
   8723SM   C1F11668   5.011   1.792  12.974  0.4498  0.0126  1.0477
   8723SM    OF11669   5.123   1.788  12.922 -0.2204  0.2758 -0.1708
   8723SM   C2F11670   4.922   1.669  12.983  0.2839  0.0603 -0.3517
   8723SM   H2F11671   4.942   1.595  12.902 -2.6658 -0.8064 -0.3733
   8723SM   H2G11672   4.816   1.699  12.974  0.6328  1.7085  0.5727
   8723SM   C3F11673   4.941   1.602  13.124  0.2026  0.4857  0.2840
   8723SM   H3F11674   5.045   1.566  13.137 -1.0359 -4.3471 -1.1037
   8723SM   H3G11675   4.870   1.518  13.138 -0.0184  0.8676  1.6307
   8723SM   C4F11676   4.905   1.695  13.239  0.5101  0.5798 -0.7096
   8723SM   H4F11677   4.794   1.701  13.246  0.5663  0.3224  0.7856
   8723SM   H4G11678   4.950   1.796  13.242  1.1876  0.2701  0.3026
   8723SM   C5F11679   4.942   1.635  13.376  0.0651 -0.0318  0.3969
   8723SM   H5F11680   5.044   1.591  13.381  0.3914  0.3284 -1.9725
   8723SM   H5G11681   4.867   1.554  13.390 -0.5149  0.1567 -1.3377
   8723SM   C6F11682   4.941   1.737  13.492  0.2560 -0.1412  0.0409
   8723SM   H6F11683   5.025   1.809  13.484  0.2351 -0.2429 -1.2699
   8723SM   H6G11684   4.959   1.680  13.586  2.1646 -0.4372 -0.4500
   8723SM   C7F11685   4.808   1.808  13.513 -1.2450  0.7347  0.1763
   8723SM   H7F11686   4.724   1.735  13.515 -1.4905  0.9917  2.6222
   8723SM   H7G11687   4.791   1.865  13.419  1.0650  0.9744 -0.1596
   8723SM   C8F11688   4.805   1.896  13.640 -0.0314  0.9072  0.2817
   8723SM   H8F11689   4.696   1.920  13.645 -1.1562 -3.5485  2.2004
   8723SM   H8G11690   4.857   1.992  13.620 -0.2947  0.9723 -0.0940
   8723SM   C9F11691   4.851   1.830  13.782  0.2691  0.7126  0.8185
   8723SM   H9F11692   4.957   1.798  13.777  0.3303  0.2305  3.4767
   8723SM   H9G11693   4.801   1.732  13.791  0.0237  0.8509  0.9702
   8723SM  C10F11694   4.829   1.917  13.903 -0.5281  0.6177 -0.1510
   8723SM  H10F11695   4.722   1.946  13.892 -0.3799  0.5519 -2.1068
   8723SM  H10G11696   4.894   2.006  13.898  1.6290 -0.7584  1.7067
   8723SM  C11F11697   4.870   1.848  14.031  0.2957 -0.3816 -0.4764
   8723SM  H11F11698   4.976   1.817  14.038  0.7329  1.2956  1.3295
   8723SM  H11G11699   4.817   1.752  14.049  0.3189 -0.8084 -2.4907
   8723SM  C12F11700   4.828   1.933  14.154 -0.1219 -0.6317 -0.0702
   8723SM  H12F11701   4.719   1.940  14.169  0.0516 -1.7793  2.0047
   8723SM  H12G11702   4.874   2.034  14.147  0.1251 -0.7938 -0.9775
   8723SM  C13F11703   4.884   1.860  14.280  0.2901  0.1191 -0.1999
   8723SM  H13F11704   4.992   1.838  14.267  0.7402  0.3691  2.6015
   8723SM  H13G11705   4.825   1.767  14.294  0.3030  0.2409  0.7076
   8723SM  C14F11706   4.872   1.925  14.420 -0.3925 -0.3133 -0.2551
   8723SM  H14F11707   4.767   1.943  14.453  0.8473  2.8913  2.5905
   8723SM  H14G11708   4.927   2.022  14.414 -1.9586  0.6077 -0.5717
   8723SM  C15F11709   4.941   1.852  14.532  0.1936 -0.4694 -0.6057
   8723SM  H15F11710   5.052   1.855  14.524  0.3438 -2.3268  0.1530
   8723SM  H15G11711   4.906   1.747  14.541  1.5059 -0.8170  0.9225
   8723SM  C16F11712   4.902   1.919  14.668  0.3673 -0.2493  0.2251
   8723SM  H16F11713   4.807   1.880  14.709  0.9530 -1.0146  0.8920
   8723SM  H16G11714   4.868   2.022  14.647  2.3298  1.0775  2.9354
   8723SM  C17F11715   5.018   1.929  14.764 -1.0586  0.7832  0.3300
   8723SM  H17F11716   5.096   1.988  14.711  0.6031 -1.0310  0.6549
   8723SM  H17G11717   5.064   1.829  14.778 -1.7265  0.1016 -1.7936
   8723SM  C18F11718   4.988   1.983  14.902 -0.1178  0.5120 -0.2358
   8723SM  H18F11719   4.965   1.899  14.971  1.6219 -0.0561 -0.3039
   8723SM  H18G11720   4.902   2.050  14.878 -0.8035  0.3164  1.5667
   8723SM  C19F11721   5.100   2.071  14.941  0.5605  0.2924  0.6461
   8723SM  H19F11722   5.116   2.132  14.850  0.1270 -2.1067 -1.1323
   8723SM  H19G11723   5.192   2.010  14.959  1.6124  1.4484 -0.6519
   8723SM  C20F11724   5.078   2.151  15.068  0.1114  0.2691  0.2561
   8723SM  H20F11725   5.086   2.079  15.152 -0.2167 -0.6412 -0.4634
   8723SM  H20G11726   4.982   2.207  15.070 -0.9531 -1.4561 -0.4055
   8723SM  C21F11727   5.198   2.253  15.079 -0.6087  0.0841  0.3497
   8723SM  H21F11728   5.163   2.342  15.022 -1.9338 -0.5716  0.1078
   8723SM  H21G11729   5.297   2.226  15.036 -0.4469  0.0218  0.7605
   8723SM  C22F11730   5.233   2.291  15.221  0.1385  0.1933 -0.1081
   8723SM  H22F11731   5.151   2.287  15.296  0.4414  4.6262  0.6882
   8723SM  H22G11732   5.271   2.395  15.221  1.1795 -0.1705 -0.1974
   8723SM  C23F11733   5.353   2.205  15.284  0.4204  0.0371 -0.0665
   8723SM  H23F11734   5.325   2.098  15.298  3.7001 -2.1026 -5.9575
   8723SM  H23G11735   5.388   2.246  15.381 -2.5730 -0.1340  1.1804
   8723SM  H23H11736   5.444   2.199  15.220  1.6590 -2.2302  1.7452
   8823SM     N11737   1.710   2.263  12.249 -0.1931  0.4474 -0.2901
   8823SM   C1511738   1.647   2.169  12.161 -0.3490 -0.0856  0.6921
   8823SM  H15A11739   1.549   2.138  12.193  0.3379  0.0337  3.0586
   8823SM  H15B11740   1.698   2.074  12.153 -0.3939  0.0247 -3.5102
   8823SM  H15C11741   1.642   2.216  12.064 -2.5074 -0.7608  0.4184
   8823SM   C1411742   1.706   2.191  12.387 -0.3973 -0.8915  0.2674
   8823SM  H14A11743   1.763   2.100  12.377 -1.7283 -1.5378 -2.2407
   8823SM  H14B11744   1.603   2.168  12.413 -1.2121 -1.0704 -2.7910
   8823SM  H14C11745   1.756   2.250  12.462 -0.8023 -0.7858  0.4598
   8823SM   C1311746   1.853   2.278  12.207 -0.4919 -0.1215 -0.2014
   8823SM  H13A11747   1.915   2.343  12.267  1.0610 -1.8483  0.1638
   8823SM  H13B11748   1.856   2.316  12.106  0.4648  0.1072 -0.0929
   8823SM  H13C11749   1.901   2.181  12.207 -1.0419 -0.4218  1.0721
   8823SM   C1211750   1.642   2.395  12.260  0.4379 -0.1010  0.5301
   8823SM  H12A11751   1.545   2.379  12.305  0.9090 -2.8924  0.7282
   8823SM  H12B11752   1.610   2.426  12.161  1.4533 -0.7875 -0.0429
   8823SM   C1111753   1.730   2.503  12.330  0.2602  0.1834 -0.1806
   8823SM  H11A11754   1.826   2.512  12.275  0.0068  0.1988 -0.6320
   8823SM  H11B11755   1.753   2.473  12.434 -0.0254 -4.5730 -1.2490
   8823SM     P11756   1.542   2.674  12.418  0.6431  0.3052  0.3247
   8823SM   O1311757   1.519   2.824  12.412 -0.9418  0.2631  0.5532
   8823SM   O1411758   1.427   2.583  12.385  0.1395  0.3254  0.2305
   8823SM   O1111759   1.596   2.641  12.568  0.0525 -0.0222 -0.1565
   8823SM   O1211760   1.667   2.634  12.325 -0.3746  0.1420 -0.4145
   8823SM   C1S11761   1.500   2.633  12.671  0.0243 -0.3677  0.5612
   8823SM   H1S11762   1.449   2.536  12.652 -1.2359  0.5002 -0.6758
   8823SM   H1T11763   1.427   2.716  12.661  0.0976 -0.3659  0.0210
   8823SM    NF11764   1.458   2.623  12.915 -0.3663 -0.4661 -0.2747
   8823SM   HNF11765   1.422   2.703  12.963 -0.5718 -0.4837 -0.3982
   8823SM   C2S11766   1.565   2.640  12.816 -0.7811 -0.1363 -0.1912
   8823SM   H2S11767   1.631   2.553  12.836 -1.5521 -0.2770  2.0271
   8823SM   C3S11768   1.652   2.772  12.826 -0.0174  0.2401  0.4629
   8823SM   H3S11769   1.591   2.858  12.793  1.9095  1.0928 -1.0539
   8823SM    O311770   1.759   2.774  12.729 -0.1149 -0.4952  0.3638
   8823SM   HO311771   1.744   2.694  12.678  0.0655 -0.2487 -0.0854
   8823SM   C4S11772   1.712   2.803  12.960 -0.4580 -0.7180  0.2660
   8823SM   H4S11773   1.772   2.722  13.005 -0.5897  0.5287  2.8184
   8823SM   C5S11774   1.672   2.909  13.034  0.1152 -0.1807  0.4208
   8823SM   H5S11775   1.604   2.978  12.982  0.0278 -1.4729 -1.2520
   8823SM   C6S11776   1.697   2.928  13.185  0.4091 -0.4893  0.9135
   8823SM   H6S11777   1.731   3.033  13.199 -0.4193  0.5711 -3.3529
   8823SM   H6T11778   1.783   2.860  13.203 -0.3212 -1.5884  0.3507
   8823SM   C7S11779   1.586   2.900  13.288 -0.1923  0.5692 -0.4469
   8823SM   H7S11780   1.500   2.968  13.269  0.0392  0.5609 -1.5504
   8823SM   H7T11781   1.627   2.912  13.391  0.2032 -0.5264 -0.4696
   8823SM   C8S11782   1.541   2.754  13.286  0.2757  0.7368  0.1269
   8823SM   H8S11783   1.631   2.693  13.312  0.6867  0.6815 -1.3449
   8823SM   H8T11784   1.518   2.748  13.178 -1.8113  0.8872  0.5316
   8823SM   C9S11785   1.429   2.720  13.375  0.7335 -0.7519 -0.1182
   8823SM   H9S11786   1.468   2.748  13.475  0.6373  0.6994 -0.4599
   8823SM   H9T11787   1.402   2.612  13.371 -0.7921 -0.3815 -0.3524
   8823SM  C10S11788   1.307   2.800  13.339 -0.2166 -0.3478  0.3505
   8823SM  H10S11789   1.288   2.813  13.230  1.0959 -0.2057  0.1191
   8823SM  H10T11790   1.326   2.905  13.371  1.5742 -0.2871 -0.7789
   8823SM  C11S11791   1.174   2.744  13.392  0.3614 -0.0888  0.1089
   8823SM  H11S11792   1.161   2.648  13.338 -0.7082  0.1841 -0.1353
   8823SM  H11T11793   1.090   2.803  13.350 -0.7594 -1.6536  0.0863
   8823SM  C12S11794   1.159   2.733  13.545  0.1484  0.1580  0.4164
   8823SM  H12S11795   1.239   2.666  13.583 -0.4744 -0.5966  0.4179
   8823SM  H12T11796   1.059   2.697  13.575  0.5405  0.2387  1.8977
   8823SM  C13S11797   1.176   2.869  13.621 -0.2951  0.2025  0.0984
   8823SM  H13S11798   1.264   2.915  13.571 -0.1529  0.9986  1.0333
   8823SM  H13T11799   1.190   2.868  13.731  0.2070 -0.1664  0.0340
   8823SM  C14S11800   1.061   2.964  13.599  0.5595 -0.8788  0.0378
   8823SM  H14S11801   0.977   2.937  13.666 -0.7905  1.3483 -0.6414
   8823SM  H14T11802   1.023   2.970  13.495  0.1971  3.5824  0.2227
   8823SM  C15S11803   1.109   3.107  13.632 -0.1197  0.4035  0.7187
   8823SM  H15S11804   1.208   3.109  13.581 -0.7152 -1.4344 -0.6179
   8823SM  H15T11805   1.124   3.116  13.742 -1.1614 -1.3974  1.0532
   8823SM  C16S11806   1.029   3.223  13.577 -0.2279 -0.2119  0.1189
   8823SM  H16S11807   0.921   3.215  13.601 -0.1192 -1.2706  0.3160
   8823SM  H16T11808   1.043   3.231  13.467  1.3467  1.5905  0.4036
   8823SM  C17S11809   1.075   3.354  13.646 -0.0199 -0.0108  0.3856
   8823SM  H17S11810   1.185   3.366  13.634 -0.1647  1.7060  0.5467
   8823SM  H17T11811   1.032   3.352  13.748 -1.7193 -1.6778 -0.2984
   8823SM  C18S11812   1.020   3.485  13.579 -0.7719 -0.1306  0.0965
   8823SM  H18S11813   1.041   3.559  13.659  1.9595  1.0154 -1.5363
   8823SM  H18T11814   0.910   3.480  13.564 -1.1866  1.1337  2.3113
   8823SM  H18U11815   1.069   3.518  13.485 -0.0408  2.8822  1.4233
   8823SM   C1F11816   1.397   2.501  12.935 -0.3517 -0.2616 -0.0823
   8823SM    OF11817   1.435   2.395  12.884 -0.4368  0.7143  0.2889
   8823SM   C2F11818   1.287   2.506  13.043 -1.1072 -0.3584  0.1264
   8823SM   H2F11819   1.232   2.602  13.031 -0.9851 -0.2302  0.5534
   8823SM   H2G11820   1.345   2.501  13.138 -1.8523  0.7562  0.6693
   8823SM   C3F11821   1.196   2.380  13.038  0.3879 -0.1603  1.0494
   8823SM   H3F11822   1.263   2.292  13.052  1.5452  0.4035 -0.7157
   8823SM   H3G11823   1.136   2.370  12.946 -1.9822 -0.1886  2.5071
   8823SM   C4F11824   1.095   2.377  13.152  1.0056 -0.3446  0.3239
   8823SM   H4F11825   1.022   2.294  13.137  0.7661  0.2404 -2.4001
   8823SM   H4G11826   1.038   2.472  13.142  0.5028 -0.7364 -0.7058
   8823SM   C5F11827   1.145   2.372  13.296  0.3279 -0.7638  0.5741
   8823SM   H5F11828   1.220   2.452  13.311 -2.2467  2.2926 -1.6899
   8823SM   H5G11829   1.204   2.285  13.333  3.2159  0.7326 -0.2402
   8823SM   C6F11830   1.024   2.387  13.389  0.2336 -0.6829  0.2073
   8823SM   H6F11831   0.955   2.304  13.362 -1.5530  0.9882 -0.6830
   8823SM   H6G11832   0.968   2.481  13.368  2.4503  0.5222 -0.6458
   8823SM   C7F11833   1.079   2.373  13.535 -0.2037  0.2059  0.1718
   8823SM   H7F11834   1.082   2.474  13.581 -2.2504  0.1749  0.4912
   8823SM   H7G11835   1.182   2.333  13.545 -0.7869 -0.9692  2.0906
   8823SM   C8F11836   0.991   2.284  13.618 -0.6881 -0.1752 -0.2019
   8823SM   H8F11837   0.982   2.188  13.561 -1.2261  0.7623 -1.7756
   8823SM   H8G11838   0.887   2.320  13.630 -0.7249  0.0004 -0.9668
   8823SM   C9F11839   1.060   2.262  13.753  0.1379 -0.1860 -0.0060
   8823SM   H9F11840   1.078   2.362  13.798  1.2735 -0.9626  1.3163
   8823SM   H9G11841   1.159   2.215  13.738 -0.8085 -1.7541 -1.8170
   8823SM  C10F11842   0.967   2.178  13.844  0.2312 -0.0742 -0.2299
   8823SM  H10F11843   0.949   2.079  13.797  0.5779 -0.8992  1.3036
   8823SM  H10G11844   0.864   2.220  13.847  0.4838  0.5270  0.1779
   8823SM  C11F11845   1.031   2.165  13.984  0.0032 -0.3830 -0.7352
   8823SM  H11F11846   1.047   2.271  14.012 -0.0190 -0.1084 -1.7041
   8823SM  H11G11847   1.120   2.099  13.972 -0.3072 -0.6624 -1.5648
   8823SM  C12F11848   0.930   2.104  14.086 -0.3787  1.1509 -0.0869
   8823SM  H12F11849   0.990   2.055  14.165  0.3893 -0.9708 -1.8876
   8823SM  H12G11850   0.874   2.023  14.035 -0.6446  0.7035  0.8920
   8823SM  C13F11851   0.834   2.207  14.149 -0.5113 -0.6947 -0.0282
   8823SM  H13F11852   0.768   2.159  14.223 -0.8088  0.9968  0.8552
   8823SM  H13G11853   0.759   2.247  14.077  0.6407 -0.4372 -1.1223
   8823SM  C14F11854   0.907   2.320  14.229  0.4626  0.5443 -0.2612
   8823SM  H14F11855   0.960   2.392  14.162  0.2374  0.9504 -0.0108
   8823SM  H14G11856   0.978   2.276  14.302 -1.9049  1.3379  2.7249
   8823SM  C15F11857   0.814   2.413  14.308  0.6012  0.1100  0.3275
   8823SM  H15F11858   0.746   2.472  14.242 -0.5556 -0.7765  0.6910
   8823SM  H15G11859   0.877   2.493  14.353 -0.1011  1.2410 -0.6278
   8823SM  C16F11860   0.736   2.351  14.420 -0.3172 -1.2219 -0.6535
   8823SM  H16F11861   0.800   2.284  14.481 -1.0995  0.1167  1.7900
   8823SM  H16G11862   0.647   2.296  14.382 -1.1160  0.7547 -1.7931
   8823SM  C17F11863   0.687   2.451  14.527 -0.1991 -0.1506 -0.8802
   8823SM  H17F11864   0.614   2.523  14.486  1.0655  0.5536 -1.9810
   8823SM  H17G11865   0.776   2.503  14.569 -0.5814  1.0417 -1.5149
   8823SM  C18F11866   0.598   2.390  14.633 -0.1307 -0.3055  0.0750
   8823SM  H18F11867   0.515   2.335  14.584 -2.3268  2.9922 -0.2403
   8823SM  H18G11868   0.549   2.478  14.680  1.7835  0.5287  0.6241
   8823SM  C19F11869   0.664   2.311  14.736 -0.7609 -0.0791 -0.5703
   8823SM  H19F11870   0.722   2.376  14.804 -0.4464  1.0633 -1.8852
   8823SM  H19G11871   0.730   2.235  14.689 -1.5842 -0.5745 -0.9494
   8823SM  C20F11872   0.552   2.234  14.811  0.2782  0.3925  0.0088
   8823SM  H20F11873   0.501   2.180  14.728  1.4378 -0.9625  0.1429
   8823SM  H20G11874   0.483   2.311  14.853 -1.1871 -0.8073 -0.1082
   8823SM  C21F11875   0.587   2.147  14.935  0.7285 -0.4672  0.3894
   8823SM  H21F11876   0.611   2.216  15.019 -2.9350  0.9950  0.3990
   8823SM  H21G11877   0.671   2.080  14.905  1.4060 -0.1391  1.5043
   8823SM  C22F11878   0.469   2.064  14.987 -0.1731  0.2564 -0.2442
   8823SM  H22F11879   0.415   2.013  14.905  1.4964 -0.2501 -1.0695
   8823SM  H22G11880   0.399   2.140  15.028 -0.3180  2.2003 -3.6969
   8823SM  C23F11881   0.515   1.975  15.110 -0.2667 -0.0122 -0.1510
   8823SM  H23F11882   0.421   1.940  15.159 -1.5714  2.5655 -0.5935
   8823SM  H23G11883   0.585   2.030  15.177 -1.6336 -0.4316  1.6933
   8823SM  H23H11884   0.563   1.882  15.074 -2.8770 -1.6154  0.2885
   8923SM     N11885   6.197   2.747  12.203  0.5304  0.2056  0.0340
   8923SM   C1511886   6.083   2.805  12.274  0.5125  0.0510 -0.2083
   8923SM  H15A11887   6.109   2.894  12.330 -0.5157  0.8238 -0.9240
   8923SM  H15B11888   6.039   2.735  12.345 -0.5954  1.3222  0.3920
   8923SM  H15C11889   6.002   2.822  12.205  2.8395  0.0382 -3.1029
   8923SM   C1411890   6.157   2.628  12.124  0.2972 -0.0944  0.3329
   8923SM  H14A11891   6.108   2.550  12.180  1.8920 -1.1514  0.3388
   8923SM  H14B11892   6.237   2.589  12.062 -0.2919 -0.3592 -0.2756
   8923SM  H14C11893   6.082   2.665  12.057  0.8371  1.7549  0.6771
   8923SM   C1311894   6.232   2.851  12.092  0.0929  0.4477 -0.8420
   8923SM  H13A11895   6.156   2.872  12.019  1.5202 -0.3578 -2.6308
   8923SM  H13B11896   6.311   2.821  12.025  0.9199  2.2617 -0.7608
   8923SM  H13C11897   6.265   2.943  12.139  0.3127  0.3745 -0.8533
   8923SM   C1211898   6.310   2.716  12.298  0.3706 -0.2814 -0.0222
   8923SM  H12A11899   6.360   2.805  12.333  1.5686 -0.9238 -0.0275
   8923SM  H12B11900   6.392   2.672  12.242  0.4119  0.2348 -0.3777
   8923SM   C1111901   6.275   2.639  12.428 -0.5207 -0.1487  0.2821
   8923SM  H11A11902   6.201   2.701  12.482  0.5833  3.1372 -1.6548
   8923SM  H11B11903   6.369   2.640  12.486  0.7662  0.0806 -1.6844
   8923SM     P11904   6.121   2.436  12.486  0.0733 -0.3566 -0.1500
   8923SM   O1311905   6.021   2.530  12.536 -0.2920 -0.1167  0.1123
   8923SM   O1411906   6.067   2.331  12.393 -0.0974  0.1888  0.0662
   8923SM   O1111907   6.199   2.372  12.610 -0.6277 -0.4138 -0.8048
   8923SM   O1211908   6.234   2.503  12.404 -0.2137 -0.2588 -0.2308
   8923SM   C1S11909   6.284   2.443  12.703 -0.0702 -0.3829 -0.1496
   8923SM   H1S11910   6.260   2.551  12.704 -1.5293 -0.6929  0.7450
   8923SM   H1T11911   6.391   2.422  12.680  0.1191 -1.1999  1.3004
   8923SM    NF11912   6.339   2.467  12.943  0.1003  0.0695 -0.0124
   8923SM   HNF11913   6.428   2.431  12.971 -0.6698 -1.3007  0.7516
   8923SM   C2S11914   6.268   2.380  12.847  0.3724  0.1865 -0.1121
   8923SM   H2S11915   6.158   2.384  12.860  0.1333  1.0805 -2.0107
   8923SM   C3S11916   6.331   2.241  12.851  0.2696  0.1260 -0.2104
   8923SM   H3S11917   6.442   2.243  12.856  0.3928 -2.8085  0.0543
   8923SM    O311918   6.309   2.162  12.739 -0.0333  0.5203  0.2796
   8923SM   HO311919   6.266   2.226  12.681 -1.9735 -0.9888 -0.0313
   8923SM   C4S11920   6.299   2.158  12.973  1.0549  0.1093  0.1955
   8923SM   H4S11921   6.366   2.170  13.059  0.2864 -0.8099  0.9389
   8923SM   C5S11922   6.191   2.074  12.994  0.8040 -0.0409  0.7215
   8923SM   H5S11923   6.107   2.073  12.923 -0.6901  1.3578  2.3662
   8923SM   C6S11924   6.169   1.995  13.113 -0.1085  0.2752 -0.2192
   8923SM   H6S11925   6.120   2.052  13.194 -0.1310 -1.6416  1.1905
   8923SM   H6T11926   6.266   1.952  13.146  0.7013  0.8451 -1.7322
   8923SM   C7S11927   6.085   1.870  13.089  0.2912 -0.3136  1.3136
   8923SM   H7S11928   6.130   1.804  13.012 -2.9351 -2.3659  1.0105
   8923SM   H7T11929   5.985   1.898  13.051  0.7940  1.1238  0.9822
   8923SM   C8S11930   6.071   1.768  13.191 -0.3152 -0.4010 -0.0346
   8923SM   H8S11931   6.164   1.761  13.251 -0.6705 -2.0652  0.3838
   8923SM   H8T11932   6.044   1.666  13.155 -4.4029  0.7388 -0.7911
   8923SM   C9S11933   5.959   1.805  13.283  0.1470 -0.2950  0.6161
   8923SM   H9S11934   5.860   1.831  13.240  0.9085  1.0518 -0.3986
   8923SM   H9T11935   5.991   1.897  13.336 -2.0001  1.2879 -0.6960
   8923SM  C10S11936   5.938   1.694  13.390  0.2866 -0.1347  0.0690
   8923SM  H10S11937   6.042   1.659  13.405  0.6447 -0.0881 -2.0083
   8923SM  H10T11938   5.878   1.608  13.352  0.7273 -0.4352  0.0471
   8923SM  C11S11939   5.882   1.736  13.526 -0.0167  1.1378 -0.1025
   8923SM  H11S11940   5.780   1.779  13.512 -0.3757 -0.3034 -2.4791
   8923SM  H11T11941   5.934   1.827  13.562 -1.3207  1.6292  0.6297
   8923SM  C12S11942   5.872   1.617  13.626  0.3173  0.3939 -0.2812
   8923SM  H12S11943   5.971   1.569  13.638 -0.1762 -0.5495  0.1367
   8923SM  H12T11944   5.797   1.543  13.592 -0.8367  1.5295 -0.2971
   8923SM  C13S11945   5.807   1.637  13.765 -0.1433 -0.5619 -0.4020
   8923SM  H13S11946   5.697   1.649  13.759  0.0982  2.6607 -0.1017
   8923SM  H13T11947   5.848   1.737  13.791 -0.6480 -0.7618  1.3021
   8923SM  C14S11948   5.846   1.531  13.867 -0.3660  0.2164  0.2082
   8923SM  H14S11949   5.953   1.501  13.866  0.4158  2.7256  1.6119
   8923SM  H14T11950   5.788   1.446  13.823  1.3141 -1.1992  0.6180
   8923SM  C15S11951   5.815   1.562  14.017  0.5032  0.0174 -0.2816
   8923SM  H15S11952   5.826   1.469  14.076 -2.1722 -1.0871 -1.3346
   8923SM  H15T11953   5.710   1.597  14.026  0.9288  0.8823  1.7129
   8923SM  C16S11954   5.907   1.665  14.078 -0.5315  0.4120  0.2876
   8923SM  H16S11955   5.870   1.712  14.171  0.4051 -0.1459  0.9560
   8923SM  H16T11956   5.914   1.749  14.004 -1.6073  0.0106 -0.2971
   8923SM  C17S11957   6.048   1.617  14.101  1.0414 -0.3420 -0.2920
   8923SM  H17S11958   6.082   1.555  14.015  1.0850  0.0819 -0.5801
   8923SM  H17T11959   6.045   1.540  14.181 -1.0446 -0.5645 -0.5509
   8923SM  C18S11960   6.143   1.731  14.137  0.4612 -0.8714  0.1149
   8923SM  H18S11961   6.239   1.686  14.172  0.4293 -1.2751 -0.3086
   8923SM  H18T11962   6.103   1.798  14.216 -1.2913 -3.1738  1.2981
   8923SM  H18U11963   6.172   1.783  14.043 -1.2501 -1.5324 -0.8122
   8923SM   C1F11964   6.288   2.583  12.977 -0.6372 -0.4325  0.3349
   8923SM    OF11965   6.182   2.619  12.936  0.2283  0.4886  0.5016
   8923SM   C2F11966   6.369   2.678  13.066 -0.2839 -0.1304 -0.4801
   8923SM   H2F11967   6.383   2.769  13.005 -0.6242  0.4990  0.3547
   8923SM   H2G11968   6.464   2.633  13.103 -1.6021 -2.7088  0.0497
   8923SM   C3F11969   6.286   2.698  13.197  0.1140 -0.4576  0.0386
   8923SM   H3F11970   6.290   2.602  13.253 -0.6239 -0.7208 -0.3477
   8923SM   H3G11971   6.178   2.710  13.177 -0.0872  0.5391  1.5879
   8923SM   C4F11972   6.353   2.796  13.287 -1.4989 -0.3355  0.1160
   8923SM   H4F11973   6.395   2.881  13.230 -0.3149 -0.6391  0.4866
   8923SM   H4G11974   6.449   2.748  13.317 -0.4118  1.4498 -0.3893
   8923SM   C5F11975   6.288   2.850  13.412 -0.1102  0.2496 -0.4055
   8923SM   H5F11976   6.252   2.755  13.457 -1.8153  0.7706 -0.6334
   8923SM   H5G11977   6.197   2.902  13.377  0.9162  2.4317 -0.0112
   8923SM   C6F11978   6.385   2.939  13.493  0.5804  0.3871 -0.0600
   8923SM   H6F11979   6.400   3.027  13.427 -1.1112 -1.2279 -2.8014
   8923SM   H6G11980   6.482   2.885  13.502  1.3998  1.4896 -1.7711
   8923SM   C7F11981   6.338   2.973  13.634  1.1316  0.5593  0.5733
   8923SM   H7F11982   6.286   2.883  13.674 -1.1133  2.1675  1.4239
   8923SM   H7G11983   6.259   3.050  13.625 -0.9126 -1.4350  0.3024
   8923SM   C8F11984   6.460   2.996  13.728 -0.7102 -0.1201 -0.7191
   8923SM   H8F11985   6.520   2.902  13.734 -2.7737 -1.4409  0.4203
   8923SM   H8G11986   6.422   3.006  13.832  1.5883  1.2968  0.0647
   8923SM   C9F11987   6.537   3.130  13.700  0.0379  0.2722 -0.3176
   8923SM   H9F11988   6.469   3.218  13.706  1.0036  0.9723  0.6562
   8923SM   H9G11989   6.560   3.130  13.591 -0.2002  2.9725 -0.4386
   8923SM  C10F11990   6.673   3.155  13.764  0.6876 -0.6010 -0.1662
   8923SM  H10F11991   6.743   3.081  13.721 -0.0418 -1.7569  0.5653
   8923SM  H10G11992   6.668   3.142  13.874  1.4514  0.2613 -0.0151
   8923SM  C11F11993   6.738   3.299  13.759 -0.1339 -0.4194  0.2564
   8923SM  H11F11994   6.768   3.325  13.654  0.5058 -3.4466 -0.4019
   8923SM  H11G11995   6.828   3.317  13.821 -0.4734  0.4904  0.5029
   8923SM  C12F11996   6.635   3.396  13.818 -0.4973 -0.8329 -0.1049
   8923SM  H12F11997   6.610   3.360  13.920  3.0352  1.2287  1.6795
   8923SM  H12G11998   6.542   3.396  13.756 -0.7673  0.0727  0.2951
   8923SM  C13F11999   6.684   3.541  13.826 -0.5676 -0.9879  0.3876
   8923SM  H13F12000   6.709   3.575  13.723 -0.7723  1.2541  1.0310
   8923SM  H13G12001   6.775   3.532  13.888 -0.4868 -0.0303  0.4187
   8923SM  C14F12002   6.595   3.651  13.879 -0.2110  0.2150  0.8772
   8923SM  H14F12003   6.505   3.647  13.813  0.2978  2.0962 -0.0054
   8923SM  H14G12004   6.637   3.753  13.860 -1.5776  1.2649  3.1117
   8923SM  C15F12005   6.564   3.632  14.032  1.0491 -0.3118  0.2889
   8923SM  H15F12006   6.538   3.527  14.059 -0.6695  0.1896  0.6584
   8923SM  H15G12007   6.476   3.695  14.055  1.0197 -0.0156 -0.5765
   8923SM  C16F12008   6.679   3.673  14.128 -0.2657 -0.2975 -0.3023
   8923SM  H16F12009   6.674   3.782  14.147 -1.9846 -0.5369  0.9192
   8923SM  H16G12010   6.780   3.658  14.086  0.3020  2.4320 -0.0915
   8923SM  C17F12011   6.667   3.604  14.262  0.5603 -0.2161  0.0088
   8923SM  H17F12012   6.714   3.503  14.259 -0.4248 -0.7838  1.9987
   8923SM  H17G12013   6.563   3.577  14.289 -0.1433  1.0868 -1.2762
   8923SM  C18F12014   6.748   3.673  14.372 -0.1165  0.7572 -0.3723
   8923SM  H18F12015   6.842   3.702  14.321 -1.7081  0.2116 -3.9036
   8923SM  H18G12016   6.770   3.609  14.460 -1.1911 -0.6723 -1.1033
   8923SM  C19F12017   6.680   3.792  14.434 -0.1371  0.4807 -0.0351
   8923SM  H19F12018   6.582   3.766  14.480  0.5952  1.1108  2.0004
   8923SM  H19G12019   6.655   3.866  14.355 -2.2105 -0.8028 -0.6903
   8923SM  C20F12020   6.761   3.862  14.547  0.2680  0.6136 -0.3198
   8923SM  H20F12021   6.780   3.796  14.634  0.2687  3.1718  1.7470
   8923SM  H20G12022   6.697   3.949  14.573 -2.3960 -0.9716 -1.0921
   8923SM  C21F12023   6.898   3.921  14.502  0.4420  0.6655  0.6832
   8923SM  H21F12024   6.865   3.986  14.418 -0.0563 -0.4137  0.0258
   8923SM  H21G12025   6.958   3.840  14.456 -0.1157  1.4081 -1.4800
   8923SM  C22F12026   6.966   3.988  14.616 -0.4810 -0.0941  0.5130
   8923SM  H22F12027   6.905   4.055  14.680  0.4176  0.7544  0.5049
   8923SM  H22G12028   7.035   4.064  14.574 -0.6292 -0.2163  0.0462
   8923SM  C23F12029   7.064   3.907  14.697 -0.2532  0.9964  0.8125
   8923SM  H23F12030   7.145   3.868  14.632  1.0930  2.0400  1.8012
   8923SM  H23G12031   7.020   3.820  14.749 -1.0306  1.6113  1.2091
   8923SM  H23H12032   7.104   3.974  14.776 -0.0346  2.1844 -0.2641
   9023SM     N12033   7.330   1.218  12.630 -0.1509  0.0786  0.2764
   9023SM   C1512034   7.478   1.220  12.614 -0.0040 -0.0186  0.5998
   9023SM  H15A12035   7.504   1.229  12.510  2.3811 -2.3617  0.9165
   9023SM  H15B12036   7.521   1.132  12.657  0.3522 -1.0742 -1.7998
   9023SM  H15C12037   7.522   1.302  12.670 -3.1855  1.1532  1.6652
   9023SM   C1412038   7.269   1.106  12.568  0.3010  0.3778 -0.0936
   9023SM  H14A12039   7.297   1.016  12.621  1.9694 -0.6656 -2.5541
   9023SM  H14B12040   7.290   1.095  12.463 -0.2653 -2.0668 -0.0027
   9023SM  H14C12041   7.161   1.113  12.574  0.0794 -0.6991 -1.9326
   9023SM   C1312042   7.290   1.225  12.773  0.0353 -0.0974  0.4157
   9023SM  H13A12043   7.183   1.243  12.771  0.2230  1.0795 -1.5778
   9023SM  H13B12044   7.329   1.316  12.817 -2.9344  0.9950  1.0357
   9023SM  H13C12045   7.308   1.133  12.826 -1.5237  0.9449  2.9236
   9023SM   C1212046   7.276   1.338  12.561 -0.0266 -0.3216 -0.0274
   9023SM  H12A12047   7.169   1.340  12.572  0.2321  0.5618  3.4351
   9023SM  H12B12048   7.300   1.341  12.455 -0.7240 -3.8328 -0.3888
   9023SM   C1112049   7.324   1.481  12.609 -0.1068 -0.0899  0.1822
   9023SM  H11A12050   7.313   1.553  12.525  0.0380 -1.2108 -0.8179
   9023SM  H11B12051   7.433   1.472  12.628 -0.1343 -0.6558  0.0710
   9023SM     P12052   7.139   1.622  12.717 -0.1113  0.0655  0.2664
   9023SM   O1312053   7.175   1.756  12.671  0.5632  0.7075 -0.4412
   9023SM   O1412054   7.022   1.553  12.654  0.0365 -0.0742 -0.4434
   9023SM   O1112055   7.115   1.626  12.877  0.0161  0.2275  0.0891
   9023SM   O1212056   7.264   1.522  12.726  0.5434  0.3137 -0.0760
   9023SM   C1S12057   7.108   1.504  12.960  0.1387 -0.4999 -0.3467
   9023SM   H1S12058   7.165   1.419  12.918  1.2031  0.7478 -1.5292
   9023SM   H1T12059   7.002   1.472  12.958  0.3212 -1.2547  0.8807
   9023SM    NF12060   7.207   1.430  13.184 -0.1738  0.1369 -0.0526
   9023SM   HNF12061   7.179   1.430  13.279 -0.4615 -2.2829 -0.0744
   9023SM   C2S12062   7.167   1.544  13.098 -0.0225  0.8110  0.3189
   9023SM   H2S12063   7.265   1.589  13.069  0.0976 -0.0363 -0.6291
   9023SM   C3S12064   7.089   1.649  13.180  1.1666  0.1445  0.0491
   9023SM   H3S12065   6.999   1.601  13.224  1.5763 -0.5812  0.1053
   9023SM    O312066   7.040   1.758  13.104 -0.4632 -0.9359 -0.6807
   9023SM   HO312067   7.076   1.729  13.020  0.5646 -1.4593 -0.0813
   9023SM   C4S12068   7.179   1.708  13.284 -0.0678 -0.0984  0.6148
   9023SM   H4S12069   7.256   1.771  13.239 -0.2566 -0.7907 -0.7055
   9023SM   C5S12070   7.175   1.696  13.419  0.3457 -0.7385 -0.3060
   9023SM   H5S12071   7.090   1.650  13.471 -0.4761  3.0565  2.0213
   9023SM   C6S12072   7.263   1.763  13.526 -0.6133 -0.1865 -0.4963
   9023SM   H6S12073   7.206   1.838  13.584  2.2157  1.8444 -0.1611
   9023SM   H6T12074   7.342   1.823  13.475  1.3634 -1.0271  1.4245
   9023SM   C7S12075   7.336   1.652  13.604  0.4600  0.0245  0.8056
   9023SM   H7S12076   7.254   1.589  13.645 -0.4566 -0.1292 -1.1569
   9023SM   H7T12077   7.386   1.691  13.695 -0.8843 -1.6621  2.3450
   9023SM   C8S12078   7.424   1.568  13.508  0.4567 -0.2831  0.0377
   9023SM   H8S12079   7.473   1.639  13.439  0.4576  0.9845  1.3029
   9023SM   H8T12080   7.356   1.507  13.445 -0.3714 -0.1897  0.8202
   9023SM   C9S12081   7.522   1.482  13.583 -0.1989 -0.3048  0.9690
   9023SM   H9S12082   7.475   1.417  13.659  1.9198 -3.8882 -0.5568
   9023SM   H9T12083   7.581   1.547  13.651  1.2906 -1.4560  0.8292
   9023SM  C10S12084   7.615   1.403  13.486 -0.2871  0.3401 -0.2898
   9023SM  H10S12085   7.647   1.475  13.408 -0.5005  0.9613  0.1899
   9023SM  H10T12086   7.555   1.322  13.440  2.4700 -0.4963 -2.7129
   9023SM  C11S12087   7.726   1.333  13.560  1.1150  0.1976 -0.0252
   9023SM  H11S12088   7.683   1.271  13.642  2.6785  0.9029  1.3748
   9023SM  H11T12089   7.778   1.414  13.616 -1.6544  1.0013  1.5987
   9023SM  C12S12090   7.820   1.257  13.466  0.7425  0.1131  0.0153
   9023SM  H12S12091   7.875   1.308  13.384 -1.3566 -0.1558 -1.6598
   9023SM  H12T12092   7.762   1.173  13.421 -0.5429  0.8626  0.2264
   9023SM  C13S12093   7.930   1.176  13.540 -0.6106 -0.2336 -0.0037
   9023SM  H13S12094   8.004   1.138  13.467  0.1108  0.5019  0.3257
   9023SM  H13T12095   7.881   1.089  13.588 -1.2098 -0.1505 -0.4546
   9023SM  C14S12096   8.008   1.262  13.639  0.1903  0.0481 -0.1540
   9023SM  H14S12097   7.933   1.326  13.690 -1.3619 -0.3316 -1.8726
   9023SM  H14T12098   8.064   1.344  13.591 -0.7025  0.5024 -0.4333
   9023SM  C15S12099   8.098   1.174  13.731  0.2296 -0.0605 -0.2262
   9023SM  H15S12100   8.163   1.242  13.790 -0.5987 -0.1895  0.8692
   9023SM  H15T12101   8.158   1.105  13.669  0.0288 -0.3825 -0.0629
   9023SM  C16S12102   8.022   1.093  13.842  0.5350 -0.7559  0.3170
   9023SM  H16S12103   7.936   1.038  13.798 -0.8044  0.8623  0.8165
   9023SM  H16T12104   7.970   1.161  13.913  0.1596 -1.1085  0.3863
   9023SM  C17S12105   8.111   0.994  13.918  0.0173  0.1729  0.0596
   9023SM  H17S12106   8.159   0.936  13.837 -1.8983 -0.3542 -0.7706
   9023SM  H17T12107   8.048   0.924  13.977  0.3020 -0.4484 -0.3621
   9023SM  C18S12108   8.217   1.061  14.005  0.3497 -0.4367  0.9214
   9023SM  H18S12109   8.168   1.125  14.081  0.5207 -0.8508  1.3889
   9023SM  H18T12110   8.280   1.134  13.951  1.2075 -1.9418 -0.2105
   9023SM  H18U12111   8.287   0.985  14.046  2.0691 -0.3028 -1.5326
   9023SM   C1F12112   7.294   1.333  13.143 -0.4292  0.2871  0.2706
   9023SM    OF12113   7.349   1.331  13.031 -0.4998 -0.2756 -0.3348
   9023SM   C2F12114   7.322   1.223  13.239  0.2281  0.0918  0.7336
   9023SM   H2F12115   7.227   1.170  13.265  0.3060 -0.5075 -0.1722
   9023SM   H2G12116   7.342   1.268  13.339  1.3651  0.3192  0.4135
   9023SM   C3F12117   7.437   1.137  13.195 -0.5307  0.2060 -0.1759
   9023SM   H3F12118   7.525   1.205  13.194  0.7817 -1.1687  3.5921
   9023SM   H3G12119   7.419   1.097  13.093  0.1015  0.4328 -0.3810
   9023SM   C4F12120   7.460   1.014  13.287 -0.3224  0.1018 -0.6094
   9023SM   H4F12121   7.398   0.925  13.266  0.1108 -0.2562 -0.3837
   9023SM   H4G12122   7.446   1.054  13.390  0.0315 -0.0612 -0.4950
   9023SM   C5F12123   7.606   0.962  13.293  0.4104 -0.6971  0.1186
   9023SM   H5F12124   7.680   1.045  13.284  1.6319 -1.9430 -2.5007
   9023SM   H5G12125   7.614   0.901  13.201 -1.4004 -0.3562 -0.3086
   9023SM   C6F12126   7.629   0.869  13.414 -0.7196 -0.1956  0.4134
   9023SM   H6F12127   7.624   0.944  13.495  1.3548 -1.1271  1.4677
   9023SM   H6G12128   7.730   0.824  13.409 -0.1249  0.8648  1.9705
   9023SM   C7F12129   7.540   0.752  13.440  0.1406 -1.3199 -0.6440
   9023SM   H7F12130   7.580   0.673  13.373 -0.1838 -1.7980 -0.2765
   9023SM   H7G12131   7.433   0.774  13.416  0.0840  0.2474  0.8608
   9023SM   C8F12132   7.542   0.706  13.583  0.1067 -0.3811  0.6164
   9023SM   H8F12133   7.498   0.604  13.584  0.3315 -0.5578 -1.7382
   9023SM   H8G12134   7.468   0.772  13.631  0.0022 -1.0637  1.4123
   9023SM   C9F12135   7.681   0.700  13.648 -0.7295  0.1417  0.2069
   9023SM   H9F12136   7.726   0.801  13.655  2.1559 -1.1286  1.3618
   9023SM   H9G12137   7.735   0.625  13.587 -0.9443  0.9776 -1.0397
   9023SM  C10F12138   7.676   0.633  13.794 -0.0986  0.0261  0.4889
   9023SM  H10F12139   7.668   0.523  13.779  0.4839  0.0623 -0.0988
   9023SM  H10G12140   7.583   0.673  13.841  0.1640 -0.3839  1.3840
   9023SM  C11F12141   7.797   0.655  13.888  0.0370  0.3157  0.1114
   9023SM  H11F12142   7.831   0.761  13.878 -3.5768  1.5153 -0.8810
   9023SM  H11G12143   7.875   0.591  13.841  0.0867  0.2233  0.3202
   9023SM  C12F12144   7.766   0.643  14.043  0.0766  0.2551  0.4220
   9023SM  H12F12145   7.701   0.727  14.077 -0.2298  0.3649 -0.4155
   9023SM  H12G12146   7.868   0.651  14.088 -0.3657 -1.4920  1.8576
   9023SM  C13F12147   7.707   0.511  14.088  0.0856  0.0165 -0.6082
   9023SM  H13F12148   7.769   0.436  14.035 -1.8919 -0.8104 -1.8555
   9023SM  H13G12149   7.604   0.497  14.049 -0.4683 -3.2972  1.6590
   9023SM  C14F12150   7.711   0.486  14.236  0.2735 -0.3600  0.0914
   9023SM  H14F12151   7.813   0.497  14.279  1.3649 -1.1251 -2.1472
   9023SM  H14G12152   7.678   0.381  14.246  0.3442 -0.2671  1.4059
   9023SM  C15F12153   7.613   0.572  14.317 -0.3334  0.4108  0.2476
   9023SM  H15F12154   7.506   0.561  14.285 -0.1594 -1.7707  0.2360
   9023SM  H15G12155   7.654   0.671  14.288 -0.2854  0.7773  1.5061
   9023SM  C16F12156   7.621   0.547  14.466  0.3404 -0.8846 -0.0086
   9023SM  H16F12157   7.722   0.560  14.509  1.7528  1.0753 -3.5159
   9023SM  H16G12158   7.584   0.445  14.489 -0.0030 -1.1922 -1.8192
   9023SM  C17F12159   7.520   0.643  14.526 -0.0857 -0.3065 -0.1250
   9023SM  H17F12160   7.416   0.608  14.510  0.0271 -0.3961 -0.6870
   9023SM  H17G12161   7.530   0.748  14.491  1.4584 -0.3577  0.1168
   9023SM  C18F12162   7.527   0.639  14.681 -0.1149  0.1624  0.4710
   9023SM  H18F12163   7.629   0.675  14.708  1.1648 -0.5895 -2.7882
   9023SM  H18G12164   7.524   0.533  14.713  3.4527 -0.5228 -1.0027
   9023SM  C19F12165   7.420   0.723  14.744  0.5369 -0.0078  0.2948
   9023SM  H19F12166   7.319   0.685  14.716  0.0685  0.5371  1.2153
   9023SM  H19G12167   7.423   0.828  14.709  0.2864  0.5056  1.7862
   9023SM  C20F12168   7.433   0.724  14.899  0.0514 -0.8343 -0.2426
   9023SM  H20F12169   7.519   0.790  14.923 -0.0523  0.0219 -2.0688
   9023SM  H20G12170   7.433   0.627  14.954  0.6087  0.8029  2.8330
   9023SM  C21F12171   7.311   0.804  14.962 -0.3102  0.0324 -0.5533
   9023SM  H21F12172   7.294   0.764  15.064 -0.9115  2.3937  0.3175
   9023SM  H21G12173   7.226   0.776  14.895 -0.5361 -2.8078  0.7624
   9023SM  C22F12174   7.344   0.951  14.982 -0.0655 -0.1948  0.0036
   9023SM  H22F12175   7.258   1.010  15.020 -3.5098 -1.7452 -4.4187
   9023SM  H22G12176   7.390   0.991  14.889  0.2850  2.8992  1.3887
   9023SM  C23F12177   7.451   0.978  15.093  0.0458 -0.3807  0.6044
   9023SM  H23F12178   7.436   1.081  15.133 -2.3191 -0.2579 -0.4070
   9023SM  H23G12179   7.554   0.966  15.055  0.2309  0.5375  0.8058
   9023SM  H23H12180   7.445   0.905  15.176  0.4467 -1.7309 -0.5220
   9123SM     N12181   6.426   4.729  12.531 -0.3662  0.2326 -0.0921
   9123SM   C1512182   6.382   4.660  12.654 -0.3118  0.1811 -0.1591
   9123SM  H15A12183   6.471   4.643  12.713  1.4342 -1.7414 -3.0539
   9123SM  H15B12184   6.340   4.561  12.641 -1.1638  0.0694  2.7891
   9123SM  H15C12185   6.317   4.723  12.712  0.9861  0.9421  0.5307
   9123SM   C1412186   6.522   4.841  12.564 -0.1853 -0.1173  0.7332
   9123SM  H14A12187   6.548   4.897  12.476 -0.6119 -0.7068  0.2238
   9123SM  H14B12188   6.614   4.800  12.606 -0.5802 -2.6463 -0.6739
   9123SM  H14C12189   6.485   4.910  12.638  0.0685 -1.8321  2.5566
   9123SM   C1312190   6.485   4.625  12.443 -0.1761 -0.7161 -0.3048
   9123SM  H13A12191   6.518   4.667  12.349  2.6935 -1.6301  0.1898
   9123SM  H13B12192   6.410   4.548  12.433 -0.1295 -0.8865  0.5641
   9123SM  H13C12193   6.564   4.574  12.497 -0.8184 -1.7589 -0.3272
   9123SM   C1212194   6.300   4.780  12.468  0.1209  0.4363  0.2897
   9123SM  H12A12195   6.320   4.826  12.373 -1.6061 -0.3789 -0.5004
   9123SM  H12B12196   6.274   4.867  12.527  1.7606  1.5285 -0.5255
   9123SM   C1112197   6.180   4.688  12.452 -0.0929  0.3397  0.6287
   9123SM  H11A12198   6.102   4.746  12.398  1.3793  0.8261 -1.0751
   9123SM  H11B12199   6.138   4.660  12.551 -0.5234  1.6587  0.8468
   9123SM     P12200   6.089   4.460  12.359 -0.0049  0.2334 -0.0832
   9123SM   O1312201   6.000   4.505  12.249  0.3876 -0.0566 -0.6792
   9123SM   O1412202   6.154   4.331  12.330  0.1480 -0.2572 -0.1078
   9123SM   O1112203   6.024   4.455  12.502  0.0229  0.0874 -0.1897
   9123SM   O1212204   6.200   4.564  12.377  0.0836 -0.2174  0.5684
   9123SM   C1S12205   6.089   4.393  12.611  0.1786  0.3462  0.0066
   9123SM   H1S12206   6.187   4.439  12.637 -0.9794  2.0098  1.7362
   9123SM   H1T12207   6.104   4.285  12.591 -1.1263  0.1060  0.2029
   9123SM    NF12208   6.078   4.362  12.854  0.3963  0.1617 -0.0860
   9123SM   HNF12209   6.079   4.273  12.898  1.2802  0.9997  1.7153
   9123SM   C2S12210   5.997   4.395  12.734  0.3821  0.9528 -0.4053
   9123SM   H2S12211   5.966   4.501  12.740  0.1406  0.8127  1.4772
   9123SM   C3S12212   5.867   4.308  12.699 -0.5804 -0.6554  0.4208
   9123SM   H3S12213   5.913   4.208  12.685  1.8531  0.3980  0.4054
   9123SM    O312214   5.798   4.339  12.573 -0.0719 -0.1389 -0.1459
   9123SM   HO312215   5.880   4.355  12.526  0.6993 -0.4211  1.0621
   9123SM   C4S12216   5.766   4.294  12.810  0.5365  0.2427  0.3016
   9123SM   H4S12217   5.775   4.198  12.863  0.8932  0.4802  0.6784
   9123SM   C5S12218   5.679   4.383  12.848  0.1840  0.7522 -0.4262
   9123SM   H5S12219   5.663   4.482  12.803 -2.9648  0.9802  0.9447
   9123SM   C6S12220   5.589   4.361  12.969 -0.1451 -0.3929 -0.1605
   9123SM   H6S12221   5.560   4.255  12.988 -1.5112 -0.2553 -1.3568
   9123SM   H6T12222   5.493   4.417  12.964  0.6959  1.0473 -0.7967
   9123SM   C7S12223   5.658   4.424  13.090  0.1064  0.8133 -0.3653
   9123SM   H7S12224   5.585   4.431  13.174 -1.0950  0.2096 -1.3245
   9123SM   H7T12225   5.699   4.526  13.072  0.7642  0.6652  0.2534
   9123SM   C8S12226   5.779   4.337  13.142  0.3619 -0.2791 -0.0983
   9123SM   H8S12227   5.859   4.329  13.066  0.2663 -0.8791 -0.1395
   9123SM   H8T12228   5.736   4.236  13.156 -2.3081  0.5078 -1.9058
   9123SM   C9S12229   5.834   4.383  13.279  1.1748  0.1551 -0.7083
   9123SM   H9S12230   5.748   4.392  13.350  0.9720  0.2875 -0.9688
   9123SM   H9T12231   5.877   4.485  13.270  0.5443  0.3490 -1.7239
   9123SM  C10S12232   5.935   4.290  13.349 -0.5264 -0.0855  0.9282
   9123SM  H10S12233   6.027   4.292  13.286 -0.6474  2.8061  0.6832
   9123SM  H10T12234   5.892   4.189  13.364 -0.8520  0.3450  3.3094
   9123SM  C11S12235   5.966   4.338  13.490 -0.1526  0.1033  0.6479
   9123SM  H11S12236   5.871   4.341  13.547  0.1903 -1.1942  1.3456
   9123SM  H11T12237   6.004   4.442  13.481 -0.5430  0.4782  2.7636
   9123SM  C12S12238   6.065   4.252  13.568 -0.0251  0.2676 -0.0957
   9123SM  H12S12239   6.151   4.236  13.499  0.5275  0.4429  0.5490
   9123SM  H12T12240   6.022   4.154  13.597 -0.1745  0.3054 -0.1896
   9123SM  C13S12241   6.118   4.320  13.696  0.2339  0.8105 -0.2202
   9123SM  H13S12242   6.141   4.427  13.677  2.1724  0.8827  2.0590
   9123SM  H13T12243   6.211   4.264  13.722 -1.3350 -0.5613  2.9410
   9123SM  C14S12244   6.029   4.309  13.814  0.1395  0.7623 -0.9011
   9123SM  H14S12245   6.009   4.202  13.835  2.6422  0.5318  0.6775
   9123SM  H14T12246   5.926   4.349  13.803  0.1678  1.0010 -0.3436
   9123SM  C15S12247   6.091   4.375  13.934 -0.5032 -0.0499  0.0658
   9123SM  H15S12248   6.093   4.480  13.899  0.5200 -0.4571 -1.1740
   9123SM  H15T12249   6.189   4.325  13.943 -0.3088  0.2903 -0.1400
   9123SM  C16S12250   5.999   4.354  14.055 -0.0589  0.4381  1.0107
   9123SM  H16S12251   6.007   4.249  14.091  1.7377 -0.2901 -1.2653
   9123SM  H16T12252   5.894   4.372  14.024  0.0755 -2.2525 -1.4609
   9123SM  C17S12253   6.044   4.442  14.168  0.5106  0.4937 -0.4461
   9123SM  H17S12254   6.006   4.546  14.168  0.9640  0.6615 -0.0409
   9123SM  H17T12255   6.155   4.450  14.174  0.7401 -0.5784 -2.3185
   9123SM  C18S12256   6.001   4.389  14.311  0.1462 -0.6126  0.2837
   9123SM  H18S12257   5.894   4.360  14.310 -0.4181  1.2660  1.1209
   9123SM  H18T12258   5.998   4.481  14.374  0.7519 -2.0841  2.5510
   9123SM  H18U12259   6.059   4.308  14.358 -0.1890 -1.0009  0.0356
   9123SM   C1F12260   6.164   4.444  12.907 -0.3073  0.0242 -0.2120
   9123SM    OF12261   6.195   4.548  12.852 -0.0546  0.4522  0.3765
   9123SM   C2F12262   6.233   4.397  13.031  0.0860 -0.4258 -0.7472
   9123SM   H2F12263   6.228   4.287  13.023  1.6021 -0.5010 -1.1081
   9123SM   H2G12264   6.171   4.439  13.113  0.7072 -1.8176  0.4697
   9123SM   C3F12265   6.383   4.433  13.042  0.5250  0.3107 -0.0527
   9123SM   H3F12266   6.392   4.544  13.032  1.6866  0.0735 -2.6270
   9123SM   H3G12267   6.428   4.401  12.946  0.3035  1.0030 -0.3957
   9123SM   C4F12268   6.477   4.371  13.150  0.4394  0.0209 -0.9418
   9123SM   H4F12269   6.581   4.398  13.125  0.4353  1.2072  0.2374
   9123SM   H4G12270   6.466   4.262  13.169 -0.9970  0.3208  0.1139
   9123SM   C5F12271   6.451   4.425  13.286  0.3033  0.1280  0.1293
   9123SM   H5F12272   6.351   4.384  13.312 -1.3581  1.6518 -3.2429
   9123SM   H5G12273   6.448   4.536  13.282  2.0408  0.2173  0.7909
   9123SM   C6F12274   6.540   4.387  13.406  0.7042  0.2313  0.4029
   9123SM   H6F12275   6.641   4.431  13.395  0.6935  0.8665  2.4023
   9123SM   H6G12276   6.549   4.277  13.419  0.4854  0.4113  2.3978
   9123SM   C7F12277   6.491   4.451  13.536 -0.5628 -0.0079 -0.5367
   9123SM   H7F12278   6.384   4.424  13.540 -0.5913 -0.0708 -1.5901
   9123SM   H7G12279   6.506   4.562  13.532 -0.2281  0.1058  1.9165
   9123SM   C8F12280   6.559   4.391  13.660 -0.4474  0.4496  0.2354
   9123SM   H8F12281   6.667   4.412  13.646 -0.3824 -0.2268 -0.3368
   9123SM   H8G12282   6.541   4.282  13.646 -0.5534  0.4719  0.1926
   9123SM   C9F12283   6.520   4.449  13.796 -0.5956  0.0234 -0.4174
   9123SM   H9F12284   6.424   4.402  13.827 -1.7514  0.9625 -2.3913
   9123SM   H9G12285   6.499   4.557  13.789  1.5484  0.5772  0.8399
   9123SM  C10F12286   6.630   4.432  13.904  0.9787 -0.1111  0.3636
   9123SM  H10F12287   6.658   4.326  13.924 -1.1189 -0.6842  0.5270
   9123SM  H10G12288   6.583   4.464  14.000 -1.3709  0.5166 -0.9302
   9123SM  C11F12289   6.749   4.523  13.880  0.7357 -0.7632  0.1163
   9123SM  H11F12290   6.713   4.627  13.869  0.5004 -1.0928 -3.3469
   9123SM  H11G12291   6.781   4.502  13.776  0.7280  3.3131 -0.8642
   9123SM  C12F12292   6.866   4.506  13.974 -0.7348 -0.3764  0.1016
   9123SM  H12F12293   6.928   4.416  13.950  2.6888  1.8253  0.0037
   9123SM  H12G12294   6.823   4.510  14.076  0.1106  3.0341  0.4349
   9123SM  C13F12295   6.964   4.624  13.956 -0.6981 -0.2228  0.2512
   9123SM  H13F12296   6.928   4.727  13.976 -1.6437 -0.1564 -1.5648
   9123SM  H13G12297   7.008   4.623  13.854  0.6805 -1.1465  0.8339
   9123SM  C14F12298   7.090   4.595  14.052 -1.1038  0.4024  0.2107
   9123SM  H14F12299   7.137   4.499  14.022 -1.0634 -0.9479  4.0482
   9123SM  H14G12300   7.056   4.570  14.155  0.0012  1.7235  0.9220
   9123SM  C15F12301   7.190   4.714  14.046 -0.1665  0.5900 -0.1883
   9123SM  H15F12302   7.129   4.797  14.087 -1.2013 -0.2065 -0.0923
   9123SM  H15G12303   7.209   4.724  13.937  0.1105 -1.2212 -0.3285
   9123SM  C16F12304   7.309   4.684  14.142 -0.3042  0.0559 -0.7247
   9123SM  H16F12305   7.359   4.590  14.110 -0.9817 -1.0006  1.1315
   9123SM  H16G12306   7.269   4.670  14.244  2.3735  0.6892  0.4876
   9123SM  C17F12307   7.394   4.812  14.149  0.1859  0.3713 -0.2073
   9123SM  H17F12308   7.357   4.905  14.197  1.2141  1.6913 -1.8483
   9123SM  H17G12309   7.419   4.851  14.047 -3.0142  0.0047 -1.2449
   9123SM  C18F12310   7.526   4.780  14.226 -0.1480  0.3146  0.3126
   9123SM  H18F12311   7.588   4.710  14.165 -0.0754  1.0493 -0.4901
   9123SM  H18G12312   7.510   4.725  14.320  1.1770 -2.6190 -1.0565
   9123SM  C19F12313   7.613   4.909  14.253 -0.0044 -0.2486  0.5625
   9123SM  H19F12314   7.551   4.982  14.310 -0.4592 -0.8165  0.8076
   9123SM  H19G12315   7.626   4.945  14.149  0.6678 -0.5858  0.5213
   9123SM  C20F12316   7.745   4.885  14.314  0.4456 -0.6741  0.0098
   9123SM  H20F12317   7.802   4.980  14.312  0.7807 -0.7781  2.0983
   9123SM  H20G12318   7.800   4.813  14.251  0.9924 -0.8755  0.7140
   9123SM  C21F12319   7.731   4.849  14.467  0.7613  0.4734  0.3441
   9123SM  H21F12320   7.643   4.789  14.497  0.6504  0.2917 -0.3415
   9123SM  H21G12321   7.716   4.944  14.523 -0.1284  1.1028 -0.9257
   9123SM  C22F12322   7.854   4.791  14.533  0.2695  0.2575 -0.0238
   9123SM  H22F12323   7.873   4.692  14.487  1.4023  0.5909 -0.3228
   9123SM  H22G12324   7.832   4.794  14.641 -2.2654  2.9009 -0.4672
   9123SM  C23F12325   7.989   4.874  14.526  0.3969 -0.1224  0.1488
   9123SM  H23F12326   7.980   4.953  14.604 -2.6022  0.3111 -0.5208
   9123SM  H23G12327   7.998   4.915  14.424  0.0575  0.1203  0.2136
   9123SM  H23H12328   8.084   4.826  14.558  0.3512  1.2517  2.6005
   9223SM     N12329   6.534   2.029  12.457 -0.0874 -0.2273 -0.5292
   9223SM   C1512330   6.489   1.890  12.481 -0.2680  0.3431 -0.0009
   9223SM  H15A12331   6.563   1.836  12.538 -0.1165 -0.1321 -0.6428
   9223SM  H15B12332   6.480   1.842  12.385  2.1456  1.0681 -0.6574
   9223SM  H15C12333   6.400   1.879  12.541 -0.9283 -0.0733 -1.0199
   9223SM   C1412334   6.664   2.021  12.375 -0.2781 -1.1128  0.3843
   9223SM  H14A12335   6.652   1.968  12.282  1.9792  1.7067 -1.6902
   9223SM  H14B12336   6.743   1.970  12.427  1.2018  1.0853  0.4216
   9223SM  H14C12337   6.693   2.123  12.354  0.1957 -1.2025  0.6092
   9223SM   C1312338   6.427   2.089  12.373  0.6673  0.3036 -0.3358
   9223SM  H13A12339   6.332   2.086  12.424  0.3524 -0.9492 -0.9662
   9223SM  H13B12340   6.425   2.035  12.280 -0.2531 -0.6392  0.2116
   9223SM  H13C12341   6.433   2.195  12.350 -1.8790  0.2949 -1.3331
   9223SM   C1212342   6.553   2.109  12.583 -0.5925  0.1653 -0.6277
   9223SM  H12A12343   6.627   2.062  12.647  0.4862  2.3577 -0.1672
   9223SM  H12B12344   6.466   2.112  12.647 -0.0572 -0.6263  0.1713
   9223SM   C1112345   6.618   2.253  12.582  0.0242  0.5104 -0.1893
   9223SM  H11A12346   6.625   2.295  12.684 -0.5104 -0.6174  0.3366
   9223SM  H11B12347   6.558   2.329  12.528  0.7134  1.3590  0.2219
   9223SM     P12348   6.871   2.224  12.599 -0.1063  0.2300 -0.0382
   9223SM   O1312349   6.967   2.169  12.510 -0.2258 -0.4938  0.7379
   9223SM   O1412350   6.915   2.340  12.675 -0.0216  0.5700 -0.1383
   9223SM   O1112351   6.819   2.116  12.702  0.2543 -0.5131 -0.1077
   9223SM   O1212352   6.739   2.265  12.522 -0.3690  0.1146  0.2143
   9223SM   C1S12353   6.877   2.110  12.837  0.0796  0.4875  0.5095
   9223SM   H1S12354   6.859   2.205  12.893 -0.6166  0.3942  0.4517
   9223SM   H1T12355   6.986   2.092  12.842 -0.2544 -1.6389  0.7836
   9223SM    NF12356   6.854   1.994  13.065 -0.0075 -0.6278  1.0959
   9223SM   HNF12357   6.895   1.909  13.098 -1.1759 -1.0117  1.6101
   9223SM   C2S12358   6.806   1.997  12.927 -0.1361 -0.3836  0.3427
   9223SM   H2S12359   6.704   2.042  12.932  0.3696  0.7007  1.8040
   9223SM   C3S12360   6.798   1.860  12.851 -0.0855  0.1771 -0.4359
   9223SM   H3S12361   6.899   1.815  12.843  1.0660  2.5475 -0.2160
   9223SM    O312362   6.752   1.862  12.716 -0.0309 -0.6049 -0.3790
   9223SM   HO312363   6.757   1.954  12.690  0.0919 -0.2333  0.8922
   9223SM   C4S12364   6.706   1.770  12.934 -0.4039 -0.4171  0.3705
   9223SM   H4S12365   6.614   1.821  12.966  0.9611  3.7339 -1.5528
   9223SM   C5S12366   6.741   1.649  12.976  0.5802  0.1224 -0.6874
   9223SM   H5S12367   6.849   1.630  12.963  0.9687  1.8517 -0.2831
   9223SM   C6S12368   6.656   1.558  13.058 -0.0657 -0.3704 -0.5709
   9223SM   H6S12369   6.648   1.460  13.006 -1.3009 -1.1847  1.0453
   9223SM   H6T12370   6.557   1.605  13.076 -0.0102 -0.8796  1.2895
   9223SM   C7S12371   6.714   1.543  13.201 -0.3324  0.4700  0.4871
   9223SM   H7S12372   6.809   1.485  13.200  0.3967  1.6348  0.2073
   9223SM   H7T12373   6.644   1.486  13.265  1.1359 -0.2184  1.5276
   9223SM   C8S12374   6.723   1.674  13.275 -0.1625 -0.5365 -0.3747
   9223SM   H8S12375   6.633   1.737  13.259  0.4587  0.7946  1.0843
   9223SM   H8T12376   6.813   1.717  13.226  0.6282 -1.2840  0.3931
   9223SM   C9S12377   6.744   1.651  13.422 -0.0625 -0.2220 -0.0312
   9223SM   H9S12378   6.824   1.578  13.448  0.6969  1.1814  1.7940
   9223SM   H9T12379   6.654   1.606  13.468 -0.9874  1.1098 -0.4689
   9223SM  C10S12380   6.766   1.782  13.503  0.2436  0.4053 -0.3080
   9223SM  H10S12381   6.677   1.848  13.501  0.5141  0.7613 -1.0206
   9223SM  H10T12382   6.853   1.825  13.448  0.9479  0.1992  0.6130
   9223SM  C11S12383   6.807   1.751  13.646  0.6148 -0.0457  0.1208
   9223SM  H11S12384   6.862   1.842  13.678 -1.4919  1.0076  0.8901
   9223SM  H11T12385   6.871   1.662  13.660  1.6794  0.6765 -0.0180
   9223SM  C12S12386   6.681   1.742  13.737  0.2639  0.7145  0.1047
   9223SM  H12S12387   6.615   1.665  13.691 -0.7134  0.8452  1.2302
   9223SM  H12T12388   6.631   1.841  13.733 -0.0043  0.5687 -0.1566
   9223SM  C13S12389   6.711   1.710  13.883  0.1046 -0.4107 -0.0732
   9223SM  H13S12390   6.783   1.787  13.921 -1.3677  1.2476 -0.5124
   9223SM  H13T12391   6.769   1.617  13.901  0.9640  0.0320 -0.4693
   9223SM  C14S12392   6.592   1.718  13.972  0.1034 -0.5391  0.8338
   9223SM  H14S12393   6.530   1.799  13.928  2.1222 -0.2949 -1.8445
   9223SM  H14T12394   6.633   1.741  14.072  0.3539  0.3170  0.5409
   9223SM  C15S12395   6.504   1.594  13.964 -0.6022  0.0208 -0.2396
   9223SM  H15S12396   6.515   1.554  13.861  1.4915  2.2597 -0.9665
   9223SM  H15T12397   6.399   1.621  13.988 -0.8552 -1.6320  0.7206
   9223SM  C16S12398   6.547   1.479  14.047  0.5203 -0.0988 -0.4981
   9223SM  H16S12399   6.552   1.519  14.151  0.5765  1.5148 -1.0854
   9223SM  H16T12400   6.645   1.439  14.016  0.3563 -0.6762 -0.2870
   9223SM  C17S12401   6.445   1.362  14.050  0.4390  0.7194  0.2802
   9223SM  H17S12402   6.340   1.398  14.060  0.2077 -0.5950  4.4868
   9223SM  H17T12403   6.451   1.293  14.137  0.0879  0.2729 -0.0459
   9223SM  C18S12404   6.444   1.288  13.912  0.2025 -0.2006  0.2544
   9223SM  H18S12405   6.529   1.217  13.901 -0.4703 -0.7735 -1.6958
   9223SM  H18T12406   6.437   1.352  13.821 -1.7762 -0.5477  0.1198
   9223SM  H18U12407   6.348   1.232  13.908 -1.4788  2.4387  1.1817
   9223SM   C1F12408   6.849   2.082  13.150 -0.3211  0.8392  0.1284
   9223SM    OF12409   6.769   2.175  13.142  0.8477 -0.1146 -0.4847
   9223SM   C2F12410   6.955   2.074  13.254 -0.4190 -0.2544 -0.4228
   9223SM   H2F12411   7.048   2.134  13.240 -0.1755  0.3336  2.8027
   9223SM   H2G12412   6.986   1.969  13.272 -1.0974 -0.3823  0.0423
   9223SM   C3F12413   6.901   2.118  13.394 -0.2788 -0.1307  0.1415
   9223SM   H3F12414   6.799   2.080  13.418  0.0056 -1.0827 -0.1237
   9223SM   H3G12415   6.913   2.229  13.393 -0.5028 -0.0637  1.7622
   9223SM   C4F12416   6.992   2.081  13.508 -0.1893  0.3177  1.3503
   9223SM   H4F12417   7.087   2.137  13.496  0.5516 -0.2691  3.8384
   9223SM   H4G12418   7.016   1.973  13.492 -1.9874  0.0883 -0.1381
   9223SM   C5F12419   6.942   2.116  13.641  0.1790 -0.2249  0.5202
   9223SM   H5F12420   6.993   2.053  13.717 -1.1403 -1.9044  0.0644
   9223SM   H5G12421   6.834   2.094  13.652 -0.4284  2.6633  1.2957
   9223SM   C6F12422   6.972   2.259  13.678 -0.4195 -0.3707  0.0442
   9223SM   H6F12423   6.959   2.317  13.584  1.6230 -0.5208 -0.3675
   9223SM   H6G12424   7.076   2.279  13.711 -1.8012  4.0831  2.5644
   9223SM   C7F12425   6.890   2.320  13.793 -0.0372 -0.9940 -0.1193
   9223SM   H7F12426   6.784   2.320  13.760  0.1716  1.3057 -0.9765
   9223SM   H7G12427   6.909   2.430  13.795 -0.6352 -0.8565 -1.2926
   9223SM   C8F12428   6.901   2.238  13.914 -0.2621  0.0170  0.3443
   9223SM   H8F12429   6.893   2.129  13.897 -1.6558 -0.0746  1.4150
   9223SM   H8G12430   6.808   2.263  13.970 -0.1187 -2.4099  1.8049
   9223SM   C9F12431   7.018   2.274  14.006 -0.5412  0.6671 -0.7270
   9223SM   H9F12432   7.037   2.379  14.040  3.1771 -0.0181 -0.2957
   9223SM   H9G12433   7.113   2.236  13.964 -0.2461  0.1955  0.3360
   9223SM  C10F12434   7.004   2.200  14.143 -0.1155  0.0914  0.7146
   9223SM  H10F12435   6.902   2.220  14.182  0.6250  0.4983  2.5533
   9223SM  H10G12436   7.079   2.239  14.215  0.6705 -0.2950  0.1177
   9223SM  C11F12437   7.025   2.044  14.138  0.5841  0.0770  0.9603
   9223SM  H11F12438   7.134   2.035  14.118  0.1745 -2.1144 -0.6297
   9223SM  H11G12439   6.979   2.004  14.046  0.4499  2.2774  0.0121
   9223SM  C12F12440   6.974   1.955  14.256 -0.3395  0.9181  0.1633
   9223SM  H12F12441   6.863   1.963  14.250 -0.2331  1.6600 -1.3548
   9223SM  H12G12442   7.010   1.990  14.355 -0.5716  1.2983  0.1152
   9223SM  C13F12443   6.998   1.804  14.229  0.6415  0.4306  0.0932
   9223SM  H13F12444   7.106   1.807  14.200  0.4159 -1.5751 -1.2183
   9223SM  H13G12445   6.945   1.765  14.139 -2.1058  1.7091  1.0558
   9223SM  C14F12446   6.981   1.708  14.346  0.2495 -0.6506 -0.5391
   9223SM  H14F12447   7.025   1.770  14.428  0.3840  1.6595 -2.2465
   9223SM  H14G12448   7.027   1.608  14.332  0.3738 -0.9538  1.6653
   9223SM  C15F12449   6.835   1.681  14.377 -0.4492  0.2455 -0.2226
   9223SM  H15F12450   6.799   1.618  14.293  1.9464  0.6632 -1.6316
   9223SM  H15G12451   6.776   1.775  14.378  0.2784  0.7124 -0.6744
   9223SM  C16F12452   6.824   1.615  14.517  0.3289  0.1500 -0.2194
   9223SM  H16F12453   6.896   1.659  14.590  1.9272 -1.1318 -0.9695
   9223SM  H16G12454   6.869   1.517  14.491  2.4466  1.2985 -1.0917
   9223SM  C17F12455   6.681   1.612  14.573 -0.2353  0.0380  0.6916
   9223SM  H17F12456   6.638   1.714  14.569  0.6457  0.4576  1.4387
   9223SM  H17G12457   6.691   1.574  14.677  0.7397  0.0572  0.6171
   9223SM  C18F12458   6.588   1.504  14.511 -0.4525 -0.6012 -0.2004
   9223SM  H18F12459   6.604   1.501  14.401  2.0674  0.0383  0.0897
   9223SM  H18G12460   6.481   1.530  14.528  0.0299  0.3838  1.6969
   9223SM  C19F12461   6.628   1.363  14.558 -1.0928 -0.5635 -0.2909
   9223SM  H19F12462   6.627   1.338  14.666  0.5376 -0.8873 -0.3318
   9223SM  H19G12463   6.736   1.353  14.533 -1.2733 -5.0812 -0.1220
   9223SM  C20F12464   6.557   1.253  14.474 -0.2130 -0.1350  0.1383
   9223SM  H20F12465   6.608   1.155  14.479 -1.6382 -0.9115 -0.0494
   9223SM  H20G12466   6.556   1.292  14.370 -1.9256  0.7780  0.4642
   9223SM  C21F12467   6.414   1.220  14.520 -0.3189 -0.9561  0.4033
   9223SM  H21F12468   6.346   1.307  14.508 -1.0750 -1.1716  2.7155
   9223SM  H21G12469   6.408   1.188  14.626  1.2439 -1.5867  0.3318
   9223SM  C22F12470   6.346   1.116  14.432 -0.1735 -0.0345 -0.0280
   9223SM  H22F12471   6.401   1.019  14.433 -0.4149 -0.1711  0.6191
   9223SM  H22G12472   6.341   1.148  14.326  1.0412  0.6364  0.1043
   9223SM  C23F12473   6.201   1.096  14.476 -0.9355  0.1775 -0.3478
   9223SM  H23F12474   6.195   1.069  14.583 -0.2558 -0.1024 -0.3791
   9223SM  H23G12475   6.149   1.025  14.408 -1.4891  0.7192 -0.5096
   9223SM  H23H12476   6.150   1.195  14.466 -1.0647  0.1079 -0.3826
   9323SM     N12477   7.899   4.801  11.877 -0.3187 -0.3906  0.2956
   9323SM   C1512478   7.840   4.669  11.901 -0.6327  0.5025 -0.5407
   9323SM  H15A12479   7.916   4.598  11.871 -0.7361 -0.0723  0.5034
   9323SM  H15B12480   7.759   4.657  11.830 -0.1842 -1.9963 -0.7314
   9323SM  H15C12481   7.811   4.668  12.005 -1.5985  1.9791 -0.7666
   9323SM   C1412482   8.011   4.815  11.974  0.2631  0.5452 -0.3823
   9323SM  H14A12483   8.066   4.904  11.948 -1.2502  1.6615  0.0849
   9323SM  H14B12484   8.078   4.731  11.983 -0.6879 -0.1122  0.9708
   9323SM  H14C12485   7.970   4.832  12.072  0.5660 -2.8715  0.4672
   9323SM   C1312486   7.951   4.797  11.738  0.0182 -0.1845  0.9551
   9323SM  H13A12487   7.866   4.798  11.672 -0.0798  0.5384  1.0826
   9323SM  H13B12488   8.013   4.709  11.735 -0.1937 -0.3261  0.7005
   9323SM  H13C12489   8.015   4.879  11.709 -0.3623 -0.5672 -1.1815
   9323SM   C1212490   7.795   4.914  11.902 -0.1779 -0.0077  0.0852
   9323SM  H12A12491   7.723   4.918  11.821  1.3978  0.6471 -1.3492
   9323SM  H12B12492   7.860   5.000  11.893  2.3868 -1.3592  3.5474
   9323SM   C1112493   7.731   4.914  12.042 -0.5357  0.5334  0.1382
   9323SM  H11A12494   7.685   4.819  12.078  0.1706  0.6575  1.4157
   9323SM  H11B12495   7.637   4.973  12.033 -3.3578 -3.7150 -2.2421
   9323SM     P12496   7.787   5.094  12.226  0.2542  0.1765 -0.0732
   9323SM   O1312497   7.907   5.158  12.278  0.4287  0.0614  0.2018
   9323SM   O1412498   7.692   5.182  12.155  0.3761  0.6436 -0.0434
   9323SM   O1112499   7.715   5.038  12.353 -0.3873 -0.5758  0.2272
   9323SM   O1212500   7.826   4.968  12.134  0.3444  0.4555 -0.2515
   9323SM   C1S12501   7.590   4.968  12.332 -0.0489  0.0416  0.5912
   9323SM   H1S12502   7.616   4.862  12.312  1.4426  0.8773 -2.5566
   9323SM   H1T12503   7.531   5.008  12.247 -0.9170 -2.0691  0.1340
   9323SM    NF12504   7.415   4.858  12.464 -0.2651 -0.7723  0.5344
   9323SM   HNF12505   7.319   4.876  12.446 -0.2417  0.5931  1.5983
   9323SM   C2S12506   7.505   4.972  12.462 -0.2867 -0.5652 -0.2033
   9323SM   H2S12507   7.568   4.955  12.552  0.0513 -1.2365 -0.5578
   9323SM   C3S12508   7.435   5.110  12.478 -0.2854  0.8203 -0.4052
   9323SM   H3S12509   7.368   5.114  12.390  0.9777 -0.1181 -1.4423
   9323SM    O312510   7.523   5.221  12.485 -0.6692  0.4227  0.0648
   9323SM   HO312511   7.608   5.177  12.472 -1.1428 -0.7232  0.7019
   9323SM   C4S12512   7.344   5.108  12.601  0.2775  1.0599  0.6981
   9323SM   H4S12513   7.238   5.087  12.583  0.1873  2.4858 -0.6796
   9323SM   C5S12514   7.374   5.121  12.729 -0.3248  0.2382 -0.1008
   9323SM   H5S12515   7.479   5.139  12.757 -0.1369 -0.5730 -0.2787
   9323SM   C6S12516   7.267   5.127  12.838  0.4050  0.5981 -0.8197
   9323SM   H6S12517   7.164   5.161  12.813 -0.9153 -0.3815  2.7163
   9323SM   H6T12518   7.306   5.198  12.914 -0.2211  1.2282 -1.0766
   9323SM   C7S12519   7.251   4.989  12.906  0.2771  0.3256 -0.3897
   9323SM   H7S12520   7.346   4.946  12.943  1.0228 -0.1232 -2.6864
   9323SM   H7T12521   7.210   4.919  12.830  1.8204 -1.4390  0.3377
   9323SM   C8S12522   7.144   4.999  13.024  0.0696  0.1220 -0.2757
   9323SM   H8S12523   7.108   4.900  13.060  3.1482 -2.3597 -3.3667
   9323SM   H8T12524   7.054   5.052  12.986 -0.9776 -0.0079  1.8709
   9323SM   C9S12525   7.187   5.071  13.156  0.3172  0.9536 -0.2101
   9323SM   H9S12526   7.101   5.051  13.224  0.7204 -2.6662 -0.5685
   9323SM   H9T12527   7.198   5.180  13.138  0.1668  0.8122 -1.2764
   9323SM  C10S12528   7.307   5.003  13.229 -0.2109 -0.8839 -0.2526
   9323SM  H10S12529   7.317   4.905  13.176 -2.6363 -1.5444  0.4117
   9323SM  H10T12530   7.279   4.996  13.336  2.1897 -1.1764  0.4228
   9323SM  C11S12531   7.435   5.081  13.212  0.3800  0.1331  0.3970
   9323SM  H11S12532   7.409   5.188  13.231  0.2506 -0.1394  1.9052
   9323SM  H11T12533   7.472   5.058  13.110  0.6081 -3.1952  1.1242
   9323SM  C12S12534   7.542   5.034  13.307 -0.1894  0.5579  0.0766
   9323SM  H12S12535   7.529   4.926  13.332 -1.2266  0.0271 -2.4739
   9323SM  H12T12536   7.524   5.081  13.406 -3.0193 -0.1676 -0.0018
   9323SM  C13S12537   7.683   5.069  13.257 -0.6709  0.4796  0.0286
   9323SM  H13S12538   7.693   5.173  13.218  1.3288 -1.0073 -4.0906
   9323SM  H13T12539   7.712   4.995  13.179  0.6790  1.7762 -0.7341
   9323SM  C14S12540   7.790   5.065  13.368  0.0229  0.3781  0.2786
   9323SM  H14S12541   7.766   5.147  13.437  0.6135  1.7861 -1.1246
   9323SM  H14T12542   7.890   5.093  13.329  0.3550 -1.5465 -0.3884
   9323SM  C15S12543   7.805   4.919  13.435  0.7579 -0.0041  0.3757
   9323SM  H15S12544   7.707   4.893  13.480  0.4404 -1.0637 -0.8468
   9323SM  H15T12545   7.835   4.840  13.362  3.6840  0.0436  1.3666
   9323SM  C16S12546   7.915   4.917  13.536  0.2478 -0.7038  0.1477
   9323SM  H16S12547   7.892   4.992  13.614 -0.1404  0.2816 -0.8914
   9323SM  H16T12548   8.005   4.956  13.485 -0.5302  1.9067  0.6545
   9323SM  C17S12549   7.921   4.783  13.611  0.1030  0.6239  0.0857
   9323SM  H17S12550   8.024   4.742  13.624 -0.5209 -0.1285  4.0112
   9323SM  H17T12551   7.862   4.710  13.553 -2.8472  2.8756  0.0243
   9323SM  C18S12552   7.876   4.784  13.754 -0.1851 -0.0056  0.2644
   9323SM  H18S12553   7.937   4.859  13.809  0.1711  0.5281 -0.8119
   9323SM  H18T12554   7.882   4.688  13.808 -2.5804  0.1077  0.8227
   9323SM  H18U12555   7.772   4.818  13.769 -0.7945 -1.8415  0.4341
   9323SM   C1F12556   7.457   4.734  12.488  0.0384 -0.3237 -0.0384
   9323SM    OF12557   7.572   4.717  12.528  0.2470  0.5595  0.4816
   9323SM   C2F12558   7.365   4.625  12.469 -0.7374 -0.0989  0.9781
   9323SM   H2F12559   7.422   4.530  12.476  1.2591  0.9659  0.1204
   9323SM   H2G12560   7.323   4.619  12.366 -0.8232 -2.6456  1.0963
   9323SM   C3F12561   7.260   4.627  12.582 -0.2523  0.4475 -0.0990
   9323SM   H3F12562   7.214   4.526  12.580 -0.3387  0.4774 -2.2170
   9323SM   H3G12563   7.177   4.699  12.564 -1.1832 -0.4752  0.4049
   9323SM   C4F12564   7.294   4.635  12.737 -0.1003 -0.1801 -0.0963
   9323SM   H4F12565   7.299   4.743  12.761 -0.6566  0.3759 -2.2385
   9323SM   H4G12566   7.386   4.578  12.762  0.6136  1.1744  0.4839
   9323SM   C5F12567   7.175   4.582  12.820  0.0202 -0.3191  0.1926
   9323SM   H5F12568   7.139   4.484  12.782 -0.3256 -0.0449 -0.2036
   9323SM   H5G12569   7.083   4.643  12.803  0.2131 -0.3424 -0.9850
   9323SM   C6F12570   7.198   4.572  12.969 -0.0917 -0.7244 -0.5442
   9323SM   H6F12571   7.242   4.661  13.018  2.0890 -1.8127 -0.4247
   9323SM   H6G12572   7.260   4.483  12.991 -0.0494 -0.3506  0.9671
   9323SM   C7F12573   7.062   4.556  13.047  0.1337  0.2511  0.0944
   9323SM   H7F12574   7.006   4.468  13.008 -1.7350  0.8692  1.2432
   9323SM   H7G12575   6.994   4.641  13.021 -0.6020 -0.8866 -1.9141
   9323SM   C8F12576   7.075   4.548  13.199  0.2997 -0.5867  0.4182
   9323SM   H8F12577   6.970   4.543  13.234  0.1740  0.4878  0.2271
   9323SM   H8G12578   7.135   4.632  13.242  2.7802 -2.0957  0.0876
   9323SM   C9F12579   7.155   4.424  13.237  0.1407 -0.2409 -0.0649
   9323SM   H9F12580   7.263   4.447  13.228 -0.0531  0.6752 -0.1394
   9323SM   H9G12581   7.137   4.343  13.163  1.8920  0.8905 -1.8096
   9323SM  C10F12582   7.139   4.368  13.376  0.5599  0.6003 -0.5621
   9323SM  H10F12583   7.203   4.278  13.388  2.1855  1.3070 -3.0857
   9323SM  H10G12584   7.035   4.336  13.400  1.1468 -0.9359  0.0834
   9323SM  C11F12585   7.195   4.471  13.469  0.5629 -0.2252  1.1531
   9323SM  H11F12586   7.136   4.565  13.460 -0.7648 -1.0409  1.0783
   9323SM  H11G12587   7.298   4.495  13.435 -0.0995 -0.9416 -1.5879
   9323SM  C12F12588   7.209   4.440  13.617  0.1140 -0.3285 -0.5408
   9323SM  H12F12589   7.111   4.412  13.663  0.1786  1.6316  0.9011
   9323SM  H12G12590   7.246   4.529  13.672  0.0544  0.5713 -1.9176
   9323SM  C13F12591   7.298   4.315  13.655 -0.5542 -0.2539  0.4770
   9323SM  H13F12592   7.396   4.326  13.605 -1.7222 -0.7471 -2.1071
   9323SM  H13G12593   7.245   4.227  13.612 -0.3116 -0.7457  1.1681
   9323SM  C14F12594   7.303   4.277  13.799  0.5904  1.0394  0.2544
   9323SM  H14F12595   7.367   4.187  13.796  1.4230  1.6414 -0.3300
   9323SM  H14G12596   7.196   4.258  13.825  1.2946 -2.1964  1.2492
   9323SM  C15F12597   7.367   4.373  13.897 -0.5952  0.0812 -1.4174
   9323SM  H15F12598   7.347   4.323  13.994 -0.5576 -1.0612 -1.9788
   9323SM  H15G12599   7.321   4.474  13.884  1.0868  1.0237 -0.4410
   9323SM  C16F12600   7.519   4.397  13.865 -0.0513 -0.0477  0.2292
   9323SM  H16F12601   7.558   4.494  13.902  1.7348 -1.3255  1.9307
   9323SM  H16G12602   7.531   4.404  13.755  2.5123 -2.2884  0.2596
   9323SM  C17F12603   7.605   4.282  13.912  0.0736  0.0473  0.3709
   9323SM  H17F12604   7.562   4.194  13.860  0.8158 -0.1493  0.0681
   9323SM  H17G12605   7.603   4.271  14.023  1.0528  2.8490  0.7482
   9323SM  C18F12606   7.755   4.300  13.865  0.1524  0.7354  0.3136
   9323SM  H18F12607   7.758   4.285  13.755 -2.1880 -0.3049  0.3515
   9323SM  H18G12608   7.803   4.207  13.901  0.9475  1.2808  0.6904
   9323SM  C19F12609   7.829   4.430  13.901  0.4194  0.2410  0.4146
   9323SM  H19F12610   7.776   4.514  13.850 -2.2882 -2.1547 -1.0486
   9323SM  H19G12611   7.928   4.412  13.855  0.5464  0.6811  0.5198
   9323SM  C20F12612   7.866   4.437  14.052 -0.7319 -0.3540 -0.1045
   9323SM  H20F12613   7.919   4.343  14.079 -0.0628 -0.0641 -0.3751
   9323SM  H20G12614   7.771   4.450  14.108 -0.1895  2.4805  0.3425
   9323SM  C21F12615   7.964   4.556  14.081 -0.6490  0.3216  0.1262
   9323SM  H21F12616   7.911   4.646  14.045  1.4204  1.3361 -0.5580
   9323SM  H21G12617   8.053   4.532  14.019 -0.8165  1.4956 -0.6096
   9323SM  C22F12618   8.002   4.572  14.230  0.4302 -0.0195  0.7748
   9323SM  H22F12619   8.019   4.474  14.278 -1.0294  0.9261  3.4118
   9323SM  H22G12620   7.920   4.617  14.290  1.2575  4.0379 -0.7838
   9323SM  C23F12621   8.132   4.659  14.251 -0.4692  0.4568 -0.1286
   9323SM  H23F12622   8.104   4.765  14.229  0.2287  0.5248 -0.7534
   9323SM  H23G12623   8.222   4.636  14.189 -1.1365  1.3473 -1.4740
   9323SM  H23H12624   8.163   4.655  14.357  0.6349  0.7745 -0.4213
   9423SM     N12625   4.606   7.423  12.048 -0.0539 -0.5204 -0.1025
   9423SM   C1512626   4.464   7.414  12.018 -0.2451  0.4767 -0.3713
   9423SM  H15A12627   4.420   7.323  12.057 -0.4973  0.8130  0.1401
   9423SM  H15B12628   4.441   7.425  11.913 -0.7850  1.1070 -0.1905
   9423SM  H15C12629   4.404   7.484  12.074  1.0956  0.1790  1.5528
   9423SM   C1412630   4.692   7.351  11.944 -0.0222 -0.3390 -0.0380
   9423SM  H14A12631   4.670   7.389  11.845  1.7192  0.5208 -0.1354
   9423SM  H14B12632   4.684   7.244  11.959  0.5025 -0.2003  1.4302
   9423SM  H14C12633   4.793   7.383  11.969 -0.5291  1.6697 -0.3675
   9423SM   C1312634   4.652   7.566  12.032  0.0357 -0.3291 -0.2863
   9423SM  H13A12635   4.629   7.589  11.929  1.6156 -1.0691 -0.8463
   9423SM  H13B12636   4.759   7.571  12.044 -0.1899  1.3349  1.7267
   9423SM  H13C12637   4.617   7.641  12.102  3.0107  0.3766  0.5859
   9423SM   C1212638   4.626   7.370  12.192  0.1608 -0.1163  0.9534
   9423SM  H12A12639   4.557   7.420  12.259 -0.7243  0.6447 -0.4676
   9423SM  H12B12640   4.730   7.384  12.216  1.5119 -3.0934 -2.2932
   9423SM   C1112641   4.594   7.217  12.226  0.5069 -0.2282  0.0153
   9423SM  H11A12642   4.484   7.199  12.224 -0.1645  2.2764  3.7516
   9423SM  H11B12643   4.628   7.202  12.331  0.8982 -2.8629 -0.4200
   9423SM     P12644   4.776   7.035  12.171  0.3118  0.2249 -0.1349
   9423SM   O1312645   4.858   6.989  12.058  0.0717  0.1782  0.1088
   9423SM   O1412646   4.845   7.119  12.273 -0.5035  0.3792  0.5178
   9423SM   O1112647   4.704   6.903  12.237  0.2296  0.3742  0.0411
   9423SM   O1212648   4.645   7.126  12.128 -0.8926  0.1911  0.0939
   9423SM   C1S12649   4.768   6.855  12.353 -0.3945 -0.0930 -0.2538
   9423SM   H1S12650   4.878   6.867  12.350 -0.2249 -1.4522 -3.8681
   9423SM   H1T12651   4.763   6.744  12.355 -0.1285 -0.1119  1.8187
   9423SM    NF12652   4.757   6.830  12.593  0.0955  0.4980  0.4406
   9423SM   HNF12653   4.713   6.758  12.645  1.6259 -1.0942 -0.3416
   9423SM   C2S12654   4.693   6.899  12.482 -0.8321  0.1669  0.6247
   9423SM   H2S12655   4.718   7.006  12.496  0.3055 -0.0017  0.0017
   9423SM   C3S12656   4.532   6.883  12.482  0.4700  0.4043 -0.3500
   9423SM   H3S12657   4.506   6.775  12.472 -1.8100  0.7469  1.1147
   9423SM    O312658   4.462   6.941  12.375  0.5638 -0.5469 -0.0071
   9423SM   HO312659   4.523   6.950  12.301  0.4177  1.6517  0.0641
   9423SM   C4S12660   4.472   6.937  12.613 -0.1375 -0.2041  0.0047
   9423SM   H4S12661   4.494   7.044  12.628 -1.4029  0.0829 -0.1126
   9423SM   C5S12662   4.400   6.869  12.704  0.1894 -0.0447 -0.1541
   9423SM   H5S12663   4.386   6.763  12.679 -3.0813  0.1592  0.4144
   9423SM   C6S12664   4.357   6.920  12.841 -0.4842 -0.5331 -0.4014
   9423SM   H6S12665   4.394   6.856  12.923  0.0031  0.2359 -0.0045
   9423SM   H6T12666   4.246   6.927  12.844 -0.4694  0.1087  2.8476
   9423SM   C7S12667   4.402   7.066  12.877  0.2143  0.0694 -0.0813
   9423SM   H7S12668   4.382   7.122  12.783 -1.7814 -2.0696 -1.0227
   9423SM   H7T12669   4.512   7.057  12.888  0.1969 -0.3820 -0.2737
   9423SM   C8S12670   4.329   7.100  13.004  0.1995 -0.8872 -0.5024
   9423SM   H8S12671   4.390   7.088  13.096  1.6891  2.0443 -0.9660
   9423SM   H8T12672   4.254   7.020  13.021 -0.8175  0.3261  1.0447
   9423SM   C9S12673   4.266   7.239  12.995  0.1827 -0.2611  0.0086
   9423SM   H9S12674   4.207   7.240  12.901  0.9297 -3.5301 -0.6333
   9423SM   H9T12675   4.335   7.323  12.973 -0.5380  0.5195  0.6768
   9423SM  C10S12676   4.181   7.272  13.122  0.0507  0.8331  0.7430
   9423SM  H10S12677   4.251   7.271  13.208  0.1671  0.7186  0.6478
   9423SM  H10T12678   4.098   7.200  13.136 -0.5151  1.2027 -0.4979
   9423SM  C11S12679   4.134   7.412  13.119 -0.0183 -0.6474  0.4960
   9423SM  H11S12680   4.065   7.423  13.033  1.0531  2.3093 -0.1024
   9423SM  H11T12681   4.223   7.475  13.098 -0.5917  0.1283  0.3573
   9423SM  C12S12682   4.087   7.470  13.258  0.0273  0.3456  0.2158
   9423SM  H12S12683   4.156   7.435  13.338  0.0401  0.3215  0.1948
   9423SM  H12T12684   3.994   7.416  13.286  0.1716 -1.0116 -1.7063
   9423SM  C13S12685   4.076   7.621  13.252  0.4647 -0.0046  0.4862
   9423SM  H13S12686   3.990   7.650  13.189  0.4960  1.1780  0.9694
   9423SM  H13T12687   4.161   7.668  13.199 -0.9565  1.2408 -0.7776
   9423SM  C14S12688   4.058   7.685  13.388  0.4876  0.9872  0.4472
   9423SM  H14S12689   4.140   7.645  13.451  0.7809  0.6754 -0.1287
   9423SM  H14T12690   3.965   7.650  13.438  1.1777 -2.9926 -0.7103
   9423SM  C15S12691   4.079   7.833  13.401 -0.3841  0.0601  0.7111
   9423SM  H15S12692   3.984   7.870  13.358  0.5090  1.7296  0.0810
   9423SM  H15T12693   4.156   7.864  13.328 -2.5301  2.0241 -0.8676
   9423SM  C16S12694   4.113   7.886  13.540  0.0019 -0.3825 -0.1417
   9423SM  H16S12695   4.056   7.837  13.621 -2.6312  0.4557 -1.3705
   9423SM  H16T12696   4.078   7.991  13.543 -0.5895 -0.4591 -2.2111
   9423SM  C17S12697   4.257   7.872  13.573 -0.7388  0.3155 -0.0732
   9423SM  H17S12698   4.312   7.948  13.513 -1.1955 -1.7497 -3.4063
   9423SM  H17T12699   4.301   7.780  13.530 -1.4057 -0.4019  0.7399
   9423SM  C18S12700   4.301   7.871  13.720  0.3933  0.3181 -0.0717
   9423SM  H18S12701   4.279   7.966  13.773 -2.9268 -0.0820 -0.4778
   9423SM  H18T12702   4.410   7.858  13.703  0.4445  0.7101 -0.0444
   9423SM  H18U12703   4.269   7.785  13.783  1.7397 -0.3646 -0.2885
   9423SM   C1F12704   4.888   6.842  12.631  0.5019  0.4249 -0.4825
   9423SM    OF12705   4.959   6.919  12.574  0.3100  0.4226  0.4354
   9423SM   C2F12706   4.938   6.736  12.717  0.0969 -0.0195  1.2281
   9423SM   H2F12707   5.036   6.703  12.677 -0.5606  0.4889 -0.9374
   9423SM   H2G12708   4.875   6.645  12.710  1.2197 -0.7005 -0.7917
   9423SM   C3F12709   4.949   6.795  12.854 -0.2273  0.1960 -0.1418
   9423SM   H3F12710   4.851   6.841  12.879 -1.1550 -1.5158 -0.4608
   9423SM   H3G12711   5.031   6.870  12.854  0.0856 -0.0749  1.9675
   9423SM   C4F12712   4.965   6.684  12.965 -0.0417  0.2261 -0.4055
   9423SM   H4F12713   5.069   6.648  12.950 -1.0286 -2.4565 -1.4645
   9423SM   H4G12714   4.892   6.603  12.943 -1.2353  1.7657 -2.4936
   9423SM   C5F12715   4.952   6.743  13.107  0.8065  0.0154  0.1839
   9423SM   H5F12716   4.843   6.757  13.119  1.0511  0.3687  2.3175
   9423SM   H5G12717   5.007   6.840  13.109 -0.4840  0.7595  1.7557
   9423SM   C6F12718   5.006   6.658  13.221  0.3860 -0.4874 -0.3474
   9423SM   H6F12719   5.117   6.663  13.212  0.3528  2.1574 -0.2162
   9423SM   H6G12720   4.981   6.551  13.212  2.0995 -0.8855 -0.8434
   9423SM   C7F12721   4.970   6.716  13.363 -0.5476  0.3678 -0.4905
   9423SM   H7F12722   4.860   6.722  13.373 -0.5348  0.8137 -0.5965
   9423SM   H7G12723   5.015   6.818  13.370  1.3584 -0.5287  1.1568
   9423SM   C8F12724   5.029   6.628  13.469  0.7763  0.5817 -0.4032
   9423SM   H8F12725   5.138   6.615  13.450  0.8952 -0.1404  0.6855
   9423SM   H8G12726   4.975   6.533  13.453 -2.8461  2.0760  1.7078
   9423SM   C9F12727   4.997   6.671  13.609 -0.0210 -0.5776  0.2255
   9423SM   H9F12728   5.028   6.585  13.673 -0.1637 -1.8658 -1.3727
   9423SM   H9G12729   4.887   6.669  13.625 -0.1349 -3.0271 -0.3664
   9423SM  C10F12730   5.044   6.817  13.639 -0.2265 -0.1968  0.0443
   9423SM  H10F12731   4.974   6.886  13.586  1.0335  0.5894 -0.6483
   9423SM  H10G12732   5.142   6.831  13.589 -0.2531  0.8908  0.2598
   9423SM  C11F12733   5.039   6.853  13.787  0.5841  0.2915  0.6660
   9423SM  H11F12734   5.087   6.767  13.839  1.2730  0.0684 -0.3023
   9423SM  H11G12735   4.933   6.848  13.821  0.1843  1.2161 -0.3991
   9423SM  C12F12736   5.105   6.990  13.814  0.1492 -0.4444 -0.2670
   9423SM  H12F12737   5.041   7.071  13.774  0.0168 -1.1710 -1.5845
   9423SM  H12G12738   5.201   7.001  13.760  0.8886 -0.8011  0.9281
   9423SM  C13F12739   5.124   7.022  13.964 -0.3199 -0.3321 -0.1710
   9423SM  H13F12740   5.029   7.018  14.021 -0.7180 -1.3100 -0.8690
   9423SM  H13G12741   5.164   7.125  13.971  0.6906 -0.7556  0.4906
   9423SM  C14F12742   5.245   6.954  14.034  0.0890  0.6786 -0.2929
   9423SM  H14F12743   5.223   6.846  14.038  1.1252  0.4455 -0.5700
   9423SM  H14G12744   5.259   6.991  14.137  1.8035 -1.4829  0.3033
   9423SM  C15F12745   5.382   6.982  13.978 -0.1351 -0.2176  0.0688
   9423SM  H15F12746   5.406   7.090  13.986  1.0603 -0.3709 -1.1979
   9423SM  H15G12747   5.384   6.952  13.871  1.6385 -1.6068  0.4426
   9423SM  C16F12748   5.497   6.899  14.048  0.8769  0.8835  0.1322
   9423SM  H16F12749   5.595   6.918  14.000 -0.1135  0.2280 -2.2817
   9423SM  H16G12750   5.468   6.791  14.045  0.8466  0.9212 -1.3080
   9423SM  C17F12751   5.526   6.927  14.200  0.7774 -0.3889  0.2252
   9423SM  H17F12752   5.597   6.858  14.250 -0.4037 -0.5633  1.7365
   9423SM  H17G12753   5.430   6.901  14.251  0.5506 -1.8645 -0.8594
   9423SM  C18F12754   5.563   7.071  14.242  0.4786 -0.1943  0.1785
   9423SM  H18F12755   5.495   7.148  14.200  0.5020 -1.3943 -2.2555
   9423SM  H18G12756   5.662   7.104  14.204 -0.6501  1.6303 -1.3729
   9423SM  C19F12757   5.552   7.095  14.391 -0.7092  0.1810 -1.1584
   9423SM  H19F12758   5.608   7.020  14.451 -1.3332  1.2530  0.8227
   9423SM  H19G12759   5.450   7.103  14.435  0.5189  0.5570  1.7917
   9423SM  C20F12760   5.618   7.236  14.420 -0.2445 -0.9109  0.3765
   9423SM  H20F12761   5.601   7.298  14.328 -3.9117 -1.2613  0.6637
   9423SM  H20G12762   5.728   7.223  14.428 -0.4733 -2.8942  0.7928
   9423SM  C21F12763   5.542   7.304  14.529 -0.6830 -0.3890 -0.2124
   9423SM  H21F12764   5.554   7.241  14.620  0.2976 -0.2447 -0.2376
   9423SM  H21G12765   5.431   7.310  14.519 -0.8732 -0.2425  1.6255
   9423SM  C22F12766   5.584   7.454  14.556 -0.0100  0.0672  0.2055
   9423SM  H22F12767   5.513   7.512  14.493  1.6046  0.7666 -1.0366
   9423SM  H22G12768   5.689   7.465  14.523  0.7282 -2.5093  1.4261
   9423SM  C23F12769   5.560   7.494  14.702  0.6022  1.0784  0.1197
   9423SM  H23F12770   5.458   7.461  14.732  0.9599 -0.1505  0.0567
   9423SM  H23G12771   5.579   7.600  14.728  0.8801  0.8257  0.9948
   9423SM  H23H12772   5.637   7.437  14.759  0.7764 -0.2894 -1.4076
   9523SM     N12773   2.853   2.411  12.564  0.3835  1.2571  0.1281
   9523SM   C1512774   2.971   2.395  12.468  0.1699 -0.2324  0.4906
   9523SM  H15A12775   3.026   2.306  12.496  2.6773  1.3151  0.7317
   9523SM  H15B12776   3.033   2.482  12.484 -0.8968  0.3988  1.3042
   9523SM  H15C12777   2.940   2.384  12.365 -1.0889 -0.4714  0.8766
   9523SM   C1412778   2.916   2.451  12.700 -0.5232 -0.1552 -0.2809
   9523SM  H14A12779   2.984   2.536  12.701 -0.0918 -0.4959 -0.5272
   9523SM  H14B12780   2.982   2.381  12.749  0.5580  0.2938 -1.0516
   9523SM  H14C12781   2.839   2.473  12.773  0.5149  2.8476  0.0594
   9523SM   C1312782   2.769   2.526  12.516  0.0990 -0.0730 -0.5042
   9523SM  H13A12783   2.699   2.505  12.436 -0.0243 -0.7782 -0.2205
   9523SM  H13B12784   2.822   2.619  12.499 -1.0220  0.3790 -1.6723
   9523SM  H13C12785   2.700   2.554  12.595  1.9680  1.1033  0.8057
   9523SM   C1212786   2.771   2.288  12.588  0.8763  0.4724 -0.5588
   9523SM  H12A12787   2.830   2.211  12.635 -1.2781 -0.3329  0.9679
   9523SM  H12B12788   2.757   2.233  12.495 -1.7542  1.7691 -1.0338
   9523SM   C1112789   2.641   2.314  12.666  0.3490 -0.2721  0.1782
   9523SM  H11A12790   2.577   2.379  12.604  0.7516 -0.9709 -0.9963
   9523SM  H11B12791   2.654   2.366  12.763  1.1473  1.6095 -0.8986
   9523SM     P12792   2.429   2.165  12.694  0.3431  0.4348 -0.0824
   9523SM   O1312793   2.352   2.257  12.604 -0.3133  0.0680 -0.4566
   9523SM   O1412794   2.411   2.020  12.676  0.3984  0.5457  0.2900
   9523SM   O1112795   2.386   2.192  12.844  0.3160 -0.1681  0.4923
   9523SM   O1212796   2.585   2.187  12.700  0.1129  0.0668  0.2120
   9523SM   C1S12797   2.291   2.287  12.887 -0.1846 -0.9712  0.6900
   9523SM   H1S12798   2.226   2.323  12.805 -0.2608  1.2842  1.6818
   9523SM   H1T12799   2.341   2.375  12.933 -0.5182  0.9003 -2.3187
   9523SM    NF12800   2.095   2.313  13.028 -0.2975  0.0134  0.2106
   9523SM   HNF12801   2.131   2.388  13.082 -1.0465 -0.3652  1.2742
   9523SM   C2S12802   2.198   2.222  12.998 -0.1485  0.2030 -0.2158
   9523SM   H2S12803   2.150   2.130  12.958 -1.5219 -0.0416  1.8273
   9523SM   C3S12804   2.287   2.188  13.121  0.1315  0.3634  0.1150
   9523SM   H3S12805   2.325   2.284  13.162 -0.2402  1.4114 -1.9060
   9523SM    O312806   2.408   2.115  13.104  0.1300 -0.7806  0.6625
   9523SM   HO312807   2.423   2.125  13.010 -1.6405  1.6942  0.5427
   9523SM   C4S12808   2.209   2.118  13.236 -0.4079 -1.4375  0.2041
   9523SM   H4S12809   2.151   2.035  13.194 -0.4040 -1.3641  0.0527
   9523SM   C5S12810   2.211   2.154  13.366  0.1946 -0.3034  0.5147
   9523SM   H5S12811   2.263   2.240  13.411 -0.1167 -0.0064  0.3053
   9523SM   C6S12812   2.123   2.082  13.462  0.6839  0.2111 -0.3983
   9523SM   H6S12813   2.188   2.023  13.530 -0.6701 -1.7385 -0.7227
   9523SM   H6T12814   2.052   2.018  13.406  0.1551  0.4679 -0.0344
   9523SM   C7S12815   2.049   2.184  13.549 -0.0473 -0.3398 -0.3210
   9523SM   H7S12816   1.998   2.251  13.477 -1.9375 -0.2861  0.9957
   9523SM   H7T12817   2.125   2.233  13.614  1.2114 -1.0924 -1.1945
   9523SM   C8S12818   1.954   2.115  13.647 -0.1522  0.0983 -0.2711
   9523SM   H8S12819   2.003   2.018  13.673 -0.0057  0.3543  0.4140
   9523SM   H8T12820   1.859   2.097  13.593 -0.6239 -0.6792  0.7701
   9523SM   C9S12821   1.920   2.196  13.770  0.1139 -0.0204 -0.1915
   9523SM   H9S12822   1.879   2.294  13.736 -0.9627 -0.8081 -1.2392
   9523SM   H9T12823   2.009   2.215  13.834 -0.7361  0.4440  0.8871
   9523SM  C10S12824   1.822   2.117  13.858 -0.0324  0.7442  0.2705
   9523SM  H10S12825   1.857   2.012  13.844 -1.2722  0.5393 -1.6461
   9523SM  H10T12826   1.721   2.119  13.813 -0.3351 -3.5929  0.3434
   9523SM  C11S12827   1.837   2.156  14.005 -0.2474  0.0488  0.3557
   9523SM  H11S12828   1.804   2.261  14.014 -0.7997 -0.1661  0.8995
   9523SM  H11T12829   1.947   2.149  14.022 -0.4165 -0.2915  1.3851
   9523SM  C12S12830   1.751   2.077  14.104 -0.5270 -0.2033 -0.6560
   9523SM  H12S12831   1.776   1.969  14.101  2.0469  0.2690  0.6327
   9523SM  H12T12832   1.644   2.086  14.079 -0.6405 -0.7463 -0.3862
   9523SM  C13S12833   1.771   2.124  14.254 -0.2612  0.3772 -0.3917
   9523SM  H13S12834   1.721   2.223  14.250 -1.9036 -0.3936 -0.1693
   9523SM  H13T12835   1.877   2.149  14.274 -0.9409  1.5701  2.0893
   9523SM  C14S12836   1.687   2.045  14.354 -0.1301  0.2337 -0.1465
   9523SM  H14S12837   1.713   1.937  14.347 -1.2398  0.0504 -2.6063
   9523SM  H14T12838   1.583   2.030  14.316 -0.0204 -2.3235  0.3690
   9523SM  C15S12839   1.693   2.094  14.496 -0.2292 -0.4694 -0.3235
   9523SM  H15S12840   1.697   2.205  14.501  1.2942 -0.5149 -0.2147
   9523SM  H15T12841   1.792   2.074  14.542  0.5546 -1.6294 -2.4016
   9523SM  C16S12842   1.580   2.042  14.581  0.7157 -0.3134  0.5190
   9523SM  H16S12843   1.590   1.931  14.582  0.3232 -0.3600 -0.0358
   9523SM  H16T12844   1.481   2.061  14.534  0.4934 -1.7882  0.3590
   9523SM  C17S12845   1.561   2.099  14.717  0.1314 -0.0461 -0.4609
   9523SM  H17S12846   1.525   2.204  14.716  0.0467 -0.0755 -0.8251
   9523SM  H17T12847   1.660   2.114  14.767 -0.1955  1.9808 -0.3183
   9523SM  C18S12848   1.474   2.008  14.805  0.1925 -0.0209 -0.0210
   9523SM  H18S12849   1.387   1.974  14.745  0.8870  0.2822 -1.2191
   9523SM  H18T12850   1.443   2.050  14.903 -0.5007 -3.0679  1.1888
   9523SM  H18U12851   1.526   1.912  14.828  1.3791 -0.1696 -2.8981
   9523SM   C1F12852   1.980   2.327  12.959  0.2251  0.1537 -0.1526
   9523SM    OF12853   1.963   2.261  12.859 -0.1804  0.0585 -0.3843
   9523SM   C2F12854   1.885   2.436  13.007  0.2838  0.4491  0.2406
   9523SM   H2F12855   1.852   2.488  12.915  2.4790 -0.1036 -0.9167
   9523SM   H2G12856   1.937   2.506  13.077  2.5838 -0.6463 -0.2883
   9523SM   C3F12857   1.760   2.360  13.072  0.0882 -0.1422 -0.5175
   9523SM   H3F12858   1.735   2.270  13.012 -1.2089 -0.1046 -0.0718
   9523SM   H3G12859   1.677   2.434  13.071  0.0220 -0.1725  1.1067
   9523SM   C4F12860   1.788   2.320  13.217 -0.1237 -0.4753 -0.1445
   9523SM   H4F12861   1.828   2.400  13.283  1.2504 -1.4613  0.2780
   9523SM   H4G12862   1.865   2.239  13.216  1.0948  0.6094  0.9130
   9523SM   C5F12863   1.661   2.278  13.285  0.2367  0.1394  0.4718
   9523SM   H5F12864   1.681   2.209  13.370 -0.6562 -0.1614  0.4468
   9523SM   H5G12865   1.598   2.227  13.209  0.3496  1.7548 -0.7408
   9523SM   C6F12866   1.575   2.397  13.337 -0.4622 -0.3264 -0.0050
   9523SM   H6F12867   1.504   2.419  13.254 -1.2299  2.5668  1.2918
   9523SM   H6G12868   1.634   2.489  13.358  0.1017 -1.1002  2.0735
   9523SM   C7F12869   1.480   2.357  13.454 -0.4015 -0.4170 -0.4007
   9523SM   H7F12870   1.432   2.262  13.422  0.8462 -1.5901  1.0772
   9523SM   H7G12871   1.401   2.434  13.466  0.0965  0.0186  0.0914
   9523SM   C8F12872   1.558   2.343  13.587 -0.0445  1.2430  0.0654
   9523SM   H8F12873   1.611   2.438  13.614  2.7536 -0.5791  1.4949
   9523SM   H8G12874   1.633   2.263  13.569 -1.5474  0.1861 -1.9478
   9523SM   C9F12875   1.469   2.309  13.708 -0.2153  0.2394  0.1450
   9523SM   H9F12876   1.454   2.200  13.725 -0.8302  0.5838  2.0520
   9523SM   H9G12877   1.373   2.364  13.694  0.7967  1.7817 -1.0441
   9523SM  C10F12878   1.516   2.371  13.838 -0.0873 -0.0046  0.3270
   9523SM  H10F12879   1.512   2.481  13.822  0.7037 -0.0473 -0.2394
   9523SM  H10G12880   1.623   2.356  13.865 -0.3970  0.5409  1.9812
   9523SM  C11F12881   1.446   2.312  13.953  0.8983  0.7588  0.0634
   9523SM  H11F12882   1.473   2.207  13.977  1.9005  0.0860 -3.4067
   9523SM  H11G12883   1.338   2.312  13.926  1.3529 -0.6495 -1.9089
   9523SM  C12F12884   1.470   2.390  14.082  0.1205  0.1475 -0.5582
   9523SM  H12F12885   1.420   2.488  14.071 -0.5707  0.1925  2.2617
   9523SM  H12G12886   1.577   2.407  14.108 -0.0030 -0.0245  0.0879
   9523SM  C13F12887   1.404   2.327  14.202 -0.0889 -0.5843 -0.8121
   9523SM  H13F12888   1.471   2.246  14.238  1.0640 -0.3345 -2.3051
   9523SM  H13G12889   1.304   2.290  14.170 -1.6099 -1.6634  4.2998
   9523SM  C14F12890   1.360   2.418  14.321  0.3587 -0.3397  0.5406
   9523SM  H14F12891   1.291   2.492  14.274  1.0795 -0.4750 -0.7706
   9523SM  H14G12892   1.450   2.476  14.352 -0.9128  1.2877  1.3796
   9523SM  C15F12893   1.311   2.333  14.437  0.4603  0.4644  0.1917
   9523SM  H15F12894   1.390   2.266  14.476  1.2041  0.6825 -0.9099
   9523SM  H15G12895   1.231   2.266  14.400  0.8644  0.1773 -0.1635
   9523SM  C16F12896   1.256   2.414  14.565 -0.3748 -0.4254  0.8724
   9523SM  H16F12897   1.183   2.491  14.530  0.4635  0.6369  1.4197
   9523SM  H16G12898   1.338   2.465  14.618 -0.5557  0.6969  0.1179
   9523SM  C17F12899   1.185   2.322  14.672  0.0214 -0.5302  0.2502
   9523SM  H17F12900   1.144   2.374  14.761 -3.2838 -2.4161 -0.0239
   9523SM  H17G12901   1.255   2.242  14.705  1.2125  1.0640  1.8462
   9523SM  C18F12902   1.066   2.236  14.618 -0.1803 -0.4009  0.1489
   9523SM  H18F12903   1.046   2.283  14.519 -0.8571 -1.2323 -0.1183
   9523SM  H18G12904   0.977   2.245  14.684 -1.6973  0.9867 -1.9559
   9523SM  C19F12905   1.110   2.087  14.591 -0.2550 -0.6372  0.1355
   9523SM  H19F12906   1.218   2.086  14.565 -0.2035  2.4569 -0.1575
   9523SM  H19G12907   1.048   2.059  14.503 -0.0897  3.3625 -1.4974
   9523SM  C20F12908   1.093   1.978  14.706  0.5401 -0.3652  0.5222
   9523SM  H20F12909   1.177   1.987  14.779  1.5377 -4.2192  0.0569
   9523SM  H20G12910   1.107   1.876  14.666 -1.0253 -1.1885  1.9741
   9523SM  C21F12911   0.952   1.995  14.775  0.3192  0.2507  0.5829
   9523SM  H21F12912   0.872   1.990  14.697  0.2371 -4.4301  0.6929
   9523SM  H21G12913   0.936   2.098  14.814  1.1353  0.2847  0.8260
   9523SM  C22F12914   0.926   1.891  14.884  0.3205  0.1500  0.3505
   9523SM  H22F12915   0.819   1.901  14.911 -0.8902 -1.8264 -3.0335
   9523SM  H22G12916   1.000   1.887  14.967 -0.0095  2.3556  0.8088
   9523SM  C23F12917   0.918   1.757  14.821  0.1688  0.1193 -0.9543
   9523SM  H23F12918   0.843   1.693  14.872  0.0925  0.1027 -1.0850
   9523SM  H23G12919   1.012   1.698  14.830 -1.2704 -2.0805  1.0551
   9523SM  H23H12920   0.877   1.772  14.719 -1.6383  1.7866 -0.0567
   9623SM     N12921   2.586   0.077  12.466  0.2922  0.1403  0.0190
   9623SM   C1512922   2.617   0.136  12.603  0.2417  1.2495  0.5909
   9623SM  H15A12923   2.520   0.149  12.650  0.4379 -0.1622  1.4575
   9623SM  H15B12924   2.670   0.228  12.584  0.1956  0.9715 -1.0621
   9623SM  H15C12925   2.686   0.076  12.661 -0.2493 -0.5668 -0.6046
   9623SM   C1412926   2.505   0.164  12.380  0.0450  0.1824 -0.8348
   9623SM  H14A12927   2.494   0.115  12.284 -0.9081 -1.5714  0.1266
   9623SM  H14B12928   2.551   0.261  12.369  1.5790 -0.5200 -0.9110
   9623SM  H14C12929   2.407   0.174  12.424  1.3566  1.0294  2.1369
   9623SM   C1312930   2.716   0.068  12.388 -0.2935  0.0580  0.1569
   9623SM  H13A12931   2.796   0.012  12.433  0.8868  3.3167  2.4387
   9623SM  H13B12932   2.752   0.165  12.357 -0.9499 -0.3427 -2.0687
   9623SM  H13C12933   2.693   0.023  12.292  0.5961  1.5814 -0.8142
   9623SM   C1212934   2.518  -0.056  12.473 -0.6627  0.2512  0.0797
   9623SM  H12A12935   2.510  -0.105  12.378  0.0522 -1.1185  0.6919
   9623SM  H12B12936   2.420  -0.037  12.513 -0.9767  1.0611 -1.0312
   9623SM   C1112937   2.606  -0.171  12.550 -0.6515 -0.0440  0.7123
   9623SM  H11A12938   2.536  -0.257  12.555 -0.9386  0.1628  0.3909
   9623SM  H11B12939   2.633  -0.141  12.653  1.4040  0.2162  0.1324
   9623SM     P12940   2.710  -0.312  12.361 -0.1200  0.0940  0.0925
   9623SM   O1312941   2.582  -0.306  12.288 -0.0642  0.4088  0.3682
   9623SM   O1412942   2.830  -0.308  12.275  0.0377  0.0413  0.0505
   9623SM   O1112943   2.719  -0.446  12.448  0.1045  0.6297 -0.3380
   9623SM   O1212944   2.719  -0.200  12.472  0.0030 -0.4512 -0.6187
   9623SM   C1S12945   2.827  -0.479  12.534  0.5460 -0.8331  0.4688
   9623SM   H1S12946   2.908  -0.403  12.530 -0.0570 -0.1973  0.0995
   9623SM   H1T12947   2.867  -0.575  12.496  1.8360  0.2959 -1.1559
   9623SM    NF12948   2.902  -0.536  12.763 -0.0721  0.0491  0.2842
   9623SM   HNF12949   2.897  -0.631  12.794 -2.2652 -0.0931 -0.3334
   9623SM   C2S12950   2.784  -0.494  12.683 -0.1129 -0.4318  0.3481
   9623SM   H2S12951   2.763  -0.391  12.720  1.0389 -0.2427  0.5219
   9623SM   C3S12952   2.663  -0.590  12.698  0.4475 -0.1175  0.4099
   9623SM   H3S12953   2.683  -0.686  12.647 -2.2325 -1.0587  0.9647
   9623SM    O312954   2.552  -0.548  12.621  0.3431 -0.4798  0.4306
   9623SM   HO312955   2.594  -0.498  12.550 -1.4782  1.9859  0.9457
   9623SM   C4S12956   2.616  -0.605  12.839 -0.3104 -0.7260  0.4744
   9623SM   H4S12957   2.605  -0.505  12.883  0.5480 -0.9876  1.3306
   9623SM   C5S12958   2.605  -0.720  12.914  0.4445  0.4862  0.2136
   9623SM   H5S12959   2.629  -0.819  12.872  1.2001  1.2496 -1.2379
   9623SM   C6S12960   2.561  -0.731  13.056 -0.0212  0.2862  0.2201
   9623SM   H6S12961   2.613  -0.814  13.110  0.7109  0.5761 -0.0293
   9623SM   H6T12962   2.455  -0.764  13.050  0.0783  0.0600 -0.3598
   9623SM   C7S12963   2.592  -0.601  13.143 -0.6334  0.0971  0.0284
   9623SM   H7S12964   2.536  -0.521  13.090  0.3896  0.2699 -0.8284
   9623SM   H7T12965   2.700  -0.577  13.130  0.5660 -3.8714  1.1702
   9623SM   C8S12966   2.552  -0.617  13.289 -0.3259  0.1557 -0.2081
   9623SM   H8S12967   2.606  -0.535  13.342  1.5814 -0.7106 -0.7188
   9623SM   H8T12968   2.591  -0.713  13.329 -0.8911 -0.1576 -0.4024
   9623SM   C9S12969   2.400  -0.591  13.312 -0.5309 -0.0026 -0.6036
   9623SM   H9S12970   2.347  -0.682  13.275 -0.4117  0.3111 -1.5845
   9623SM   H9T12971   2.360  -0.508  13.250  1.6493  1.7056  0.1850
   9623SM  C10S12972   2.359  -0.575  13.455  0.1180  0.0827  0.2562
   9623SM  H10S12973   2.248  -0.574  13.451  0.0262 -1.4673  1.1810
   9623SM  H10T12974   2.382  -0.477  13.501 -0.1946 -0.5528  1.8634
   9623SM  C11S12975   2.394  -0.687  13.549 -0.0283 -0.6597  0.1701
   9623SM  H11S12976   2.504  -0.694  13.568 -0.1647 -1.8898  0.6200
   9623SM  H11T12977   2.366  -0.782  13.499  4.3995 -0.4280 -3.4676
   9623SM  C12S12978   2.322  -0.658  13.680  0.2102  0.0410  0.3350
   9623SM  H12S12979   2.214  -0.654  13.656  0.0369  0.7887  1.1837
   9623SM  H12T12980   2.354  -0.556  13.712  1.1851 -0.1230 -0.0613
   9623SM  C13S12981   2.344  -0.771  13.786  0.9018 -0.7786 -0.0689
   9623SM  H13S12982   2.334  -0.718  13.883  0.8701  0.2543 -0.6173
   9623SM  H13T12983   2.444  -0.819  13.781  1.1946 -0.3684  1.4020
   9623SM  C14S12984   2.236  -0.885  13.782 -0.5415 -0.3678  0.3701
   9623SM  H14S12985   2.245  -0.915  13.676 -1.2651  1.2517 -0.1885
   9623SM  H14T12986   2.135  -0.845  13.808 -2.2683 -3.0187 -1.7184
   9623SM  C15S12987   2.260  -1.006  13.880 -0.2296 -0.4705 -0.0302
   9623SM  H15S12988   2.170  -1.060  13.916 -1.3301  1.1200 -0.2579
   9623SM  H15T12989   2.301  -0.973  13.978  0.1326 -0.6788 -0.1122
   9623SM  C16S12990   2.362  -1.095  13.815 -0.5491  0.6546  0.9354
   9623SM  H16S12991   2.453  -1.037  13.792 -0.0178 -1.3165 -2.5187
   9623SM  H16T12992   2.334  -1.128  13.713  1.0385 -1.7361  1.1878
   9623SM  C17S12993   2.393  -1.224  13.899 -0.5808  0.1587  0.0685
   9623SM  H17S12994   2.306  -1.291  13.917  0.4466 -1.9873 -2.3579
   9623SM  H17T12995   2.427  -1.193  14.001 -2.4459 -0.6145  0.9841
   9623SM  C18S12996   2.507  -1.313  13.846  0.2880  0.1679 -0.2187
   9623SM  H18S12997   2.590  -1.244  13.819  0.5726  0.7627  1.9899
   9623SM  H18T12998   2.470  -1.369  13.758 -1.1368  0.0188  0.4334
   9623SM  H18U12999   2.540  -1.383  13.925 -1.1422  0.4827  0.7047
   9623SM   C1F13000   3.005  -0.457  12.777  0.1288  0.0077  0.4889
   9623SM    OF13001   2.990  -0.339  12.748 -0.2362  0.5087 -0.4338
   9623SM   C2F13002   3.135  -0.514  12.832 -1.0782 -0.5291 -0.1273
   9623SM   H2F13003   3.231  -0.477  12.788 -1.1978 -3.2850 -3.0491
   9623SM   H2G13004   3.125  -0.624  12.824 -1.1453 -0.6994  1.8552
   9623SM   C3F13005   3.142  -0.484  12.985 -0.0939 -0.5323 -0.0049
   9623SM   H3F13006   3.115  -0.377  13.002 -0.1588 -0.6472  0.6230
   9623SM   H3G13007   3.250  -0.488  13.010 -0.2576 -0.9976  0.6490
   9623SM   C4F13008   3.061  -0.581  13.069 -0.1409  0.4610  0.4090
   9623SM   H4F13009   3.129  -0.669  13.080 -0.3598 -0.2089 -2.6532
   9623SM   H4G13010   2.965  -0.615  13.024 -0.4506 -0.0634  1.4370
   9623SM   C5F13011   3.040  -0.541  13.216  0.0942  0.1003  0.8552
   9623SM   H5F13012   2.954  -0.471  13.224 -0.7854 -0.5577 -1.9402
   9623SM   H5G13013   3.135  -0.510  13.265  1.0291 -1.6402  0.2498
   9623SM   C6F13014   2.998  -0.664  13.304  0.1687 -0.4731  0.1323
   9623SM   H6F13015   3.087  -0.730  13.307  1.5811  1.3587  1.3860
   9623SM   H6G13016   2.921  -0.710  13.238  0.9339 -0.4941 -0.7663
   9623SM   C7F13017   2.961  -0.635  13.442 -0.4557  0.2957  0.0572
   9623SM   H7F13018   2.871  -0.570  13.450 -0.0465  1.1172 -1.4976
   9623SM   H7G13019   3.046  -0.573  13.479 -1.4187 -0.0305  3.0849
   9623SM   C8F13020   2.943  -0.755  13.526  0.7205  0.3041 -0.3194
   9623SM   H8F13021   2.946  -0.715  13.630  0.6063 -2.8543  0.9914
   9623SM   H8G13022   3.025  -0.829  13.516  1.3164  0.8918  0.0595
   9623SM   C9F13023   2.812  -0.831  13.500 -0.1370 -0.8113 -0.2002
   9623SM   H9F13024   2.808  -0.863  13.393  1.4802  1.9873 -1.2252
   9623SM   H9G13025   2.732  -0.756  13.518 -0.4043 -0.8512 -1.1675
   9623SM  C10F13026   2.798  -0.946  13.593  0.6914 -0.6966 -0.2544
   9623SM  H10F13027   2.820  -0.910  13.696 -0.4417  1.0543 -0.5830
   9623SM  H10G13028   2.872  -1.021  13.557  1.8326 -0.0177  0.5936
   9623SM  C11F13029   2.659  -1.017  13.595 -0.3225 -0.0342  0.2124
   9623SM  H11F13030   2.579  -0.944  13.623 -0.2131 -0.1162  0.7448
   9623SM  H11G13031   2.668  -1.105  13.662 -0.7062 -1.6227 -1.7425
   9623SM  C12F13032   2.617  -1.071  13.455  0.0290  0.0307 -0.1428
   9623SM  H12F13033   2.646  -1.004  13.372  0.4931 -1.6362 -1.3939
   9623SM  H12G13034   2.506  -1.068  13.459  0.0667  1.5648  0.2418
   9623SM  C13F13035   2.686  -1.203  13.414 -0.1014  0.1349 -0.5724
   9623SM  H13F13036   2.791  -1.194  13.448 -0.5240 -1.9796  1.5271
   9623SM  H13G13037   2.687  -1.202  13.303  0.6162  2.0989 -0.5969
   9623SM  C14F13038   2.621  -1.332  13.471 -0.0279 -0.0379 -0.6343
   9623SM  H14F13039   2.518  -1.322  13.431 -0.0551 -1.9993 -1.1125
   9623SM  H14G13040   2.612  -1.312  13.580  2.4593  2.5116 -0.7692
   9623SM  C15F13041   2.684  -1.472  13.438 -0.1908  0.1690 -0.2653
   9623SM  H15F13042   2.713  -1.464  13.331  0.2983  1.6344 -0.0383
   9623SM  H15G13043   2.612  -1.556  13.450 -0.5468  0.4754 -0.2022
   9623SM  C16F13044   2.812  -1.516  13.511  0.6204 -0.1506 -0.8527
   9623SM  H16F13045   2.778  -1.517  13.617 -0.9789  0.9501 -1.3228
   9623SM  H16G13046   2.883  -1.435  13.488 -0.3902  0.2939 -2.5834
   9623SM  C17F13047   2.876  -1.642  13.456 -0.5099 -0.0003 -0.0947
   9623SM  H17F13048   2.803  -1.725  13.448  1.6088 -1.8523 -1.7917
   9623SM  H17G13049   2.959  -1.676  13.522  1.3213  0.1918 -2.1808
   9623SM  C18F13050   2.959  -1.635  13.327 -0.0936 -0.7323 -0.1585
   9623SM  H18F13051   3.036  -1.557  13.343 -1.1630 -0.0006  1.8268
   9623SM  H18G13052   2.898  -1.602  13.241 -1.0153  0.7601  1.0183
   9623SM  C19F13053   3.015  -1.777  13.278 -0.0758  1.4675  0.2159
   9623SM  H19F13054   2.929  -1.842  13.254 -0.4081  2.5513 -1.6957
   9623SM  H19G13055   3.069  -1.829  13.361  0.7127 -1.4463 -1.9770
   9623SM  C20F13056   3.101  -1.776  13.154 -0.2678 -0.0116 -0.0937
   9623SM  H20F13057   3.200  -1.731  13.179 -0.0319  0.8420 -2.3172
   9623SM  H20G13058   3.044  -1.720  13.077  0.1273  0.0853 -0.3231
   9623SM  C21F13059   3.123  -1.922  13.099  0.0707 -0.8835  0.6589
   9623SM  H21F13060   3.107  -1.995  13.181 -0.3594 -0.1149  1.2831
   9623SM  H21G13061   3.223  -1.949  13.059 -0.0687  0.0872 -0.4014
   9623SM  C22F13062   3.017  -1.956  12.987 -0.4410  0.2508 -0.4758
   9623SM  H22F13063   3.039  -1.896  12.896  2.2825  0.1218  0.0197
   9623SM  H22G13064   2.925  -1.908  13.028 -0.4569  0.8202 -1.1629
   9623SM  C23F13065   3.010  -2.101  12.952 -0.3327  0.4933  0.5055
   9623SM  H23F13066   2.962  -2.121  12.854  1.7758 -0.5868 -0.3853
   9623SM  H23G13067   2.963  -2.161  13.033  0.1939 -0.8007 -0.1134
   9623SM  H23H13068   3.107  -2.150  12.927  0.1321  0.9691  1.3584
   9723SM     N13069   4.822   0.031  11.899 -0.2462 -0.9983  0.3683
   9723SM   C1513070   4.910   0.068  11.787 -0.3994 -0.6162 -0.0524
   9723SM  H15A13071   4.996   0.004  11.780  0.0751 -0.3906  2.6843
   9723SM  H15B13072   4.950   0.167  11.801  1.5437 -1.3266 -0.2853
   9723SM  H15C13073   4.849   0.055  11.698 -1.4488  0.6094  0.4534
   9723SM   C1413074   4.720   0.137  11.914 -0.3909  0.8894 -0.3955
   9723SM  H14A13075   4.658   0.129  11.826  1.4104  0.5994 -1.6995
   9723SM  H14B13076   4.777   0.227  11.932 -0.5047  0.8255  0.3137
   9723SM  H14C13077   4.659   0.104  11.997 -0.1475 -0.9260 -0.8813
   9723SM   C1313078   4.763  -0.098  11.877  0.2707 -0.9772  0.5513
   9723SM  H13A13079   4.710  -0.101  11.783  1.0419 -2.4245  0.1274
   9723SM  H13B13080   4.694  -0.132  11.954 -1.3827 -1.1738 -0.9396
   9723SM  H13C13081   4.843  -0.170  11.870  0.4672 -0.5916 -4.3524
   9723SM   C1213082   4.905   0.033  12.034  0.9777 -0.7674 -0.1154
   9723SM  H12A13083   4.969   0.121  12.032  1.1799 -0.9082  0.2387
   9723SM  H12B13084   4.974  -0.049  12.024  0.3207 -1.4504  0.7754
   9723SM   C1113085   4.821   0.025  12.167  0.7097  0.6848  0.0504
   9723SM  H11A13086   4.764   0.119  12.178  4.1673  3.1607 -1.2662
   9723SM  H11B13087   4.885   0.016  12.258  1.2486  0.6190 -0.3299
   9723SM     P13088   4.781  -0.231  12.214  0.0451  0.1897 -0.0014
   9723SM   O1313089   4.672  -0.326  12.195  0.6075  0.4883  0.4452
   9723SM   O1413090   4.911  -0.270  12.147  0.1894 -0.0460 -0.1234
   9723SM   O1113091   4.789  -0.224  12.369 -0.6154 -0.1110 -0.4438
   9723SM   O1213092   4.733  -0.087  12.167  0.3348  0.0952  0.1239
   9723SM   C1S13093   4.711  -0.154  12.459  0.2993  0.8782  0.6685
   9723SM   H1S13094   4.604  -0.176  12.444  0.6911  0.6828 -2.5916
   9723SM   H1T13095   4.723  -0.046  12.435 -0.0095  1.1831  1.8458
   9723SM    NF13096   4.674  -0.079  12.683 -0.0257  0.2455 -0.2273
   9723SM   HNF13097   4.719   0.007  12.706  2.1106 -1.0267  0.6379
   9723SM   C2S13098   4.761  -0.165  12.608  0.2282  0.3126  0.5829
   9723SM   H2S13099   4.735  -0.270  12.630 -1.3634  0.3365 -0.9304
   9723SM   C3S13100   4.920  -0.147  12.624 -0.9071 -0.1674  0.3226
   9723SM   H3S13101   4.944  -0.039  12.609 -0.4597 -0.1149  1.3705
   9723SM    O313102   5.012  -0.208  12.533  0.4843  0.2456  0.3334
   9723SM   HO313103   4.953  -0.242  12.466  1.4526 -3.6089  1.1916
   9723SM   C4S13104   4.964  -0.188  12.758  0.0519 -0.0182 -0.0815
   9723SM   H4S13105   4.964  -0.297  12.775  0.0915 -0.1946 -1.1713
   9723SM   C5S13106   5.032  -0.107  12.853  0.3943  0.1730 -0.2955
   9723SM   H5S13107   5.050  -0.000  12.833 -0.4276  0.3529 -0.1366
   9723SM   C6S13108   5.084  -0.151  12.981 -0.1757 -0.4705 -0.3090
   9723SM   H6S13109   5.039  -0.248  13.013 -0.1788 -0.8383 -1.3753
   9723SM   H6T13110   5.057  -0.084  13.065  0.0910 -0.6417 -0.0803
   9723SM   C7S13111   5.234  -0.180  12.975 -0.6322 -0.0445 -0.3555
   9723SM   H7S13112   5.290  -0.101  12.920 -0.4813 -0.0485 -0.2100
   9723SM   H7T13113   5.256  -0.270  12.913 -1.3432 -0.4181 -0.0734
   9723SM   C8S13114   5.283  -0.206  13.122 -0.3309  0.0275 -0.0594
   9723SM   H8S13115   5.219  -0.279  13.178 -1.9723  1.2845 -0.1991
   9723SM   H8T13116   5.259  -0.113  13.178  1.7161  0.3428  0.3634
   9723SM   C9S13117   5.429  -0.236  13.131 -0.0596 -0.2371  0.2675
   9723SM   H9S13118   5.458  -0.237  13.239 -0.5022 -0.6149  0.3830
   9723SM   H9T13119   5.484  -0.154  13.081  2.4456 -1.2867  1.1369
   9723SM  C10S13120   5.474  -0.365  13.059  0.1542  0.8368 -0.2217
   9723SM  H10S13121   5.571  -0.343  13.009  0.6489  1.8336  1.1135
   9723SM  H10T13122   5.403  -0.392  12.978  0.2548 -0.7999  0.1991
   9723SM  C11S13123   5.497  -0.481  13.161 -0.1329  0.3421  0.2605
   9723SM  H11S13124   5.566  -0.454  13.244  1.1577 -0.3752 -0.5506
   9723SM  H11T13125   5.553  -0.557  13.102 -3.4860 -0.0078 -2.8361
   9723SM  C12S13126   5.382  -0.562  13.213  0.5693  0.0242  1.1254
   9723SM  H12S13127   5.337  -0.617  13.127  2.2286 -0.8626  0.7902
   9723SM  H12T13128   5.304  -0.490  13.247 -0.0467 -0.2939  0.4134
   9723SM  C13S13129   5.419  -0.664  13.314  0.5371  0.8455 -0.1673
   9723SM  H13S13130   5.496  -0.624  13.383  3.2421  0.4168 -2.7636
   9723SM  H13T13131   5.473  -0.747  13.264  1.6170  1.5726 -0.2207
   9723SM  C14S13132   5.289  -0.719  13.379 -0.3249 -0.1615 -0.6900
   9723SM  H14S13133   5.321  -0.817  13.421  0.1142 -0.2210 -1.1534
   9723SM  H14T13134   5.216  -0.731  13.297 -1.8349  0.0756  0.5672
   9723SM  C15S13135   5.223  -0.629  13.489  0.0231 -0.6929  0.5216
   9723SM  H15S13136   5.117  -0.662  13.500 -0.4173  1.2790  3.4919
   9723SM  H15T13137   5.222  -0.528  13.444  1.7668 -0.5356  0.7707
   9723SM  C16S13138   5.288  -0.628  13.630  0.4340 -0.6148  0.3301
   9723SM  H16S13139   5.396  -0.601  13.619  0.4563 -0.0972  1.5694
   9723SM  H16T13140   5.280  -0.730  13.672 -0.1624 -0.4086  0.7400
   9723SM  C17S13141   5.209  -0.530  13.724 -0.2441 -0.1022 -0.2742
   9723SM  H17S13142   5.110  -0.578  13.743  0.0534 -0.5911  0.0559
   9723SM  H17T13143   5.188  -0.430  13.681  1.0465  1.0928  1.7163
   9723SM  C18S13144   5.280  -0.521  13.860  0.1272  0.2579 -0.3415
   9723SM  H18S13145   5.278  -0.622  13.906 -0.7881 -0.7146 -2.3761
   9723SM  H18T13146   5.220  -0.456  13.928 -0.2796  1.5962 -1.9028
   9723SM  H18U13147   5.383  -0.485  13.843  0.5304 -1.5469 -2.0226
   9723SM   C1F13148   4.540  -0.090  12.690  0.7048  0.6052  0.1278
   9723SM    OF13149   4.493  -0.201  12.659 -0.5990  0.1735 -0.3545
   9723SM   C2F13150   4.466   0.031  12.737  0.5386 -0.4652  0.3918
   9723SM   H2F13151   4.445   0.102  12.654 -1.3214 -1.8096 -0.3550
   9723SM   H2G13152   4.535   0.071  12.814  2.2194  0.5504 -1.5306
   9723SM   C3F13153   4.330   0.013  12.816 -0.1092  0.1651  0.1830
   9723SM   H3F13154   4.356  -0.062  12.894 -0.0211 -0.6784 -0.6384
   9723SM   H3G13155   4.259  -0.033  12.744 -1.2148  0.1672  1.2440
   9723SM   C4F13156   4.264   0.135  12.883  0.3790  0.3253  0.3962
   9723SM   H4F13157   4.170   0.094  12.926  1.6744 -2.5316  0.7476
   9723SM   H4G13158   4.243   0.212  12.806 -1.5223 -1.0775 -0.5662
   9723SM   C5F13159   4.341   0.198  13.003  0.3962  0.0146  0.7209
   9723SM   H5F13160   4.450   0.204  12.983  0.5744 -0.3392  1.5612
   9723SM   H5G13161   4.327   0.125  13.086 -0.6605  1.0731  1.5070
   9723SM   C6F13162   4.290   0.337  13.044 -0.1230 -0.1154 -0.0607
   9723SM   H6F13163   4.184   0.337  13.076 -0.1327 -0.4308 -0.0902
   9723SM   H6G13164   4.306   0.403  12.956  2.0526 -0.1466  0.2547
   9723SM   C7F13165   4.370   0.397  13.162  0.4390  0.2249 -0.2778
   9723SM   H7F13166   4.479   0.382  13.148  0.5177 -0.1347  0.6266
   9723SM   H7G13167   4.359   0.344  13.259 -0.3857 -0.5804 -0.7918
   9723SM   C8F13168   4.357   0.548  13.182  0.0589 -0.3122 -0.0727
   9723SM   H8F13169   4.251   0.580  13.179  0.4987  1.2061 -0.2118
   9723SM   H8G13170   4.412   0.601  13.100  0.7587  0.5172  0.9114
   9723SM   C9F13171   4.435   0.590  13.308  0.5832  0.0439 -0.1497
   9723SM   H9F13172   4.519   0.519  13.325 -1.0106 -1.6859  0.8963
   9723SM   H9G13173   4.369   0.572  13.396 -1.3241 -1.4380 -1.7983
   9723SM  C10F13174   4.486   0.735  13.304  0.3443  0.0444 -0.7757
   9723SM  H10F13175   4.402   0.805  13.285 -1.0016 -0.7672  1.8034
   9723SM  H10G13176   4.555   0.738  13.217 -1.0934  0.4068 -1.9415
   9723SM  C11F13177   4.553   0.770  13.436  0.0879  0.0088  0.1618
   9723SM  H11F13178   4.653   0.722  13.444  0.0036 -0.2075 -0.0660
   9723SM  H11G13179   4.497   0.735  13.526  1.5386  1.5516  1.7306
   9723SM  C12F13180   4.575   0.926  13.454 -0.5356 -0.5406  0.1874
   9723SM  H12F13181   4.476   0.977  13.456 -0.2716  0.0358 -0.6791
   9723SM  H12G13182   4.632   0.957  13.364  1.5718 -1.2781  1.2105
   9723SM  C13F13183   4.652   0.960  13.580 -0.2199 -0.3054  0.3942
   9723SM  H13F13184   4.749   0.906  13.580 -0.6351 -1.0582  0.2782
   9723SM  H13G13185   4.592   0.914  13.661  2.4151 -1.8428  1.6010
   9723SM  C14F13186   4.683   1.103  13.615 -0.2122 -0.2691  0.4780
   9723SM  H14F13187   4.713   1.160  13.524 -0.0784 -0.2990  0.5035
   9723SM  H14G13188   4.774   1.111  13.678  1.1085  1.1755 -1.4865
   9723SM  C15F13189   4.566   1.176  13.687 -0.2397 -0.6170  0.2746
   9723SM  H15F13190   4.531   1.110  13.769 -0.8978 -1.0878 -0.3689
   9723SM  H15G13191   4.477   1.191  13.621 -0.4529  1.1067  0.8948
   9723SM  C16F13192   4.608   1.311  13.738 -0.6672 -0.3004 -0.5437
   9723SM  H16F13193   4.650   1.358  13.646  1.4410  1.0548  1.0191
   9723SM  H16G13194   4.691   1.305  13.811  1.1533 -1.1999 -2.5828
   9723SM  C17F13195   4.499   1.391  13.806 -0.3363  0.4572 -0.7359
   9723SM  H17F13196   4.460   1.327  13.888  3.8651 -0.3129  0.9056
   9723SM  H17G13197   4.416   1.402  13.732 -0.0290 -1.3582 -1.3998
   9723SM  C18F13198   4.552   1.527  13.845  0.7492 -0.9091  0.0137
   9723SM  H18F13199   4.593   1.571  13.752 -1.4357  1.4825  0.0540
   9723SM  H18G13200   4.632   1.515  13.922 -0.2377 -1.6183  0.9555
   9723SM  C19F13201   4.435   1.612  13.888 -0.3428  0.0564 -0.4405
   9723SM  H19F13202   4.374   1.582  13.976 -0.4496 -0.4195 -0.6711
   9723SM  H19G13203   4.364   1.619  13.802  0.4897 -0.8261 -1.2139
   9723SM  C20F13204   4.483   1.765  13.907  0.3609  0.7536  0.5485
   9723SM  H20F13205   4.525   1.809  13.814 -0.1088 -1.3018 -0.6706
   9723SM  H20G13206   4.573   1.762  13.973 -0.5105 -1.7333  1.7245
   9723SM  C21F13207   4.383   1.865  13.963 -0.3097  0.4147 -0.6014
   9723SM  H21F13208   4.346   1.821  14.058 -0.3184  0.5795 -0.5269
   9723SM  H21G13209   4.291   1.865  13.901 -0.0271 -1.4363 -1.0657
   9723SM  C22F13210   4.416   2.014  14.009 -0.3197  0.3636 -0.3278
   9723SM  H22F13211   4.505   2.000  14.074  0.3451 -0.3484 -1.3659
   9723SM  H22G13212   4.332   2.058  14.067  0.1386 -0.3935  0.9401
   9723SM  C23F13213   4.439   2.100  13.888 -0.6656 -0.1788 -0.7703
   9723SM  H23F13214   4.546   2.096  13.859 -0.3971 -0.5504  0.2320
   9723SM  H23G13215   4.424   2.207  13.917 -2.4949 -1.2965  3.1433
   9723SM  H23H13216   4.371   2.069  13.806 -1.6736 -0.8980  0.3058
   9823SM     N13217   0.279   6.281  12.543 -0.2613  0.1757 -0.6076
   9823SM   C1513218   0.404   6.222  12.616  0.7216 -0.0746 -0.3444
   9823SM  H15A13219   0.371   6.124  12.647 -0.0683 -0.1768 -1.4467
   9823SM  H15B13220   0.426   6.290  12.697 -1.2994  3.5556 -2.5796
   9823SM  H15C13221   0.481   6.204  12.544 -0.5945 -0.2063 -1.7758
   9823SM   C1413222   0.320   6.413  12.482 -0.0533  0.0830  0.1782
   9823SM  H14A13223   0.237   6.438  12.418 -2.1675 -0.3208  2.5793
   9823SM  H14B13224   0.410   6.400  12.424 -1.8150  0.2286 -2.7983
   9823SM  H14C13225   0.348   6.489  12.553  1.7211  0.5285 -0.9623
   9823SM   C1313226   0.245   6.187  12.437 -0.2222  0.3433  0.5883
   9823SM  H13A13227   0.176   6.237  12.371 -0.1571 -1.4486 -0.9138
   9823SM  H13B13228   0.216   6.093  12.483 -0.1277 -0.3192 -0.6669
   9823SM  H13C13229   0.327   6.179  12.368 -2.0600 -0.3870 -1.6272
   9823SM   C1213230   0.172   6.297  12.650 -0.0310 -0.2228 -0.1332
   9823SM  H12A13231   0.221   6.344  12.734  0.4223 -0.2637 -0.3733
   9823SM  H12B13232   0.126   6.203  12.677  2.0746 -1.6870 -1.3103
   9823SM   C1113233   0.055   6.389  12.604 -0.7348 -0.2688 -0.1027
   9823SM  H11A13234   0.089   6.487  12.563 -0.2577 -0.5130 -0.2976
   9823SM  H11B13235  -0.007   6.421  12.691 -1.4626  0.6794 -0.9391
   9823SM     P13236  -0.123   6.214  12.535 -0.0552  0.1157 -0.3047
   9823SM   O1313237  -0.238   6.211  12.443 -0.3228  0.4076  0.7338
   9823SM   O1413238  -0.043   6.087  12.542  0.6769 -0.1876  0.4454
   9823SM   O1113239  -0.169   6.238  12.689 -0.2005  0.3105 -0.0899
   9823SM   O1213240  -0.019   6.327  12.504 -0.4843  0.0355 -0.6167
   9823SM   C1S13241  -0.270   6.325  12.727 -0.0791  0.0809 -0.1986
   9823SM   H1S13242  -0.354   6.321  12.655  1.6461  0.7999 -2.3660
   9823SM   H1T13243  -0.235   6.430  12.718  0.2121  0.1666  1.6201
   9823SM    NF13244  -0.438   6.372  12.898  0.0567  0.4602  0.3480
   9823SM   HNF13245  -0.430   6.460  12.944 -1.8794 -0.2094  2.1244
   9823SM   C2S13246  -0.317   6.301  12.873  0.2980  0.6741 -0.2447
   9823SM   H2S13247  -0.343   6.194  12.889  0.2901  0.6597 -0.3547
   9823SM   C3S13248  -0.207   6.338  12.970  0.2199 -0.3182  0.2709
   9823SM   H3S13249  -0.189   6.445  12.947 -0.9377 -0.5603 -2.0716
   9823SM    O313250  -0.085   6.278  12.941 -0.3909  0.0163 -0.6604
   9823SM   HO313251  -0.091   6.252  12.849  0.7154 -0.3808 -0.6411
   9823SM   C4S13252  -0.256   6.329  13.115 -0.3160 -0.1313  0.1814
   9823SM   H4S13253  -0.246   6.231  13.165 -0.2342 -0.1434  0.1415
   9823SM   C5S13254  -0.304   6.425  13.193  0.6080 -0.2003 -0.4813
   9823SM   H5S13255  -0.318   6.524  13.146 -0.3260  0.2980  0.7860
   9823SM   C6S13256  -0.350   6.415  13.339  0.8326  0.0789  0.3071
   9823SM   H6S13257  -0.341   6.314  13.385  0.0463 -0.0990  0.0914
   9823SM   H6T13258  -0.457   6.444  13.331  0.9806  0.2838 -1.4979
   9823SM   C7S13259  -0.288   6.519  13.436  0.6553  0.0550  0.2380
   9823SM   H7S13260  -0.308   6.620  13.394 -1.3762  0.0652  1.1277
   9823SM   H7T13261  -0.178   6.502  13.441  0.3709 -1.6867  1.3970
   9823SM   C8S13262  -0.350   6.502  13.577 -0.1380  0.0227  0.5040
   9823SM   H8S13263  -0.460   6.500  13.560 -0.0765 -0.7087  0.1757
   9823SM   H8T13264  -0.318   6.587  13.642  2.5724 -1.4373  1.2252
   9823SM   C9S13265  -0.294   6.379  13.656  0.0644 -0.1679 -0.0979
   9823SM   H9S13266  -0.184   6.370  13.641  0.0011  1.1466 -1.5088
   9823SM   H9T13267  -0.337   6.291  13.604 -2.5662  0.4038  0.9865
   9823SM  C10S13268  -0.331   6.383  13.801  0.3462  0.6238 -0.7535
   9823SM  H10S13269  -0.296   6.476  13.850  1.2815  0.2404 -0.6811
   9823SM  H10T13270  -0.275   6.296  13.841 -0.9223 -0.0217 -0.3323
   9823SM  C11S13271  -0.480   6.370  13.831 -0.7061 -0.1202  0.3282
   9823SM  H11S13272  -0.526   6.287  13.773  2.5769  0.2828 -3.2745
   9823SM  H11T13273  -0.530   6.462  13.793 -1.0188 -0.1705  0.6172
   9823SM  C12S13274  -0.514   6.351  13.980  0.8868  0.2181 -0.4553
   9823SM  H12S13275  -0.494   6.439  14.045 -1.7303  0.8740 -0.4349
   9823SM  H12T13276  -0.459   6.261  14.014  0.1399 -0.7410 -1.7084
   9823SM  C13S13277  -0.666   6.328  13.990  0.0428  0.1296 -0.0151
   9823SM  H13S13278  -0.697   6.256  13.912 -1.3580  2.1143 -1.3841
   9823SM  H13T13279  -0.721   6.416  13.951  0.6120 -0.4935 -2.3671
   9823SM  C14S13280  -0.715   6.297  14.137  0.1499 -0.3568 -0.3852
   9823SM  H14S13281  -0.649   6.345  14.212  2.3911 -0.7756 -2.0221
   9823SM  H14T13282  -0.707   6.188  14.159 -0.1373 -0.1854  0.6566
   9823SM  C15S13283  -0.863   6.329  14.156 -0.2288  0.3414  0.7051
   9823SM  H15S13284  -0.894   6.283  14.253 -0.1217 -1.0519  0.1032
   9823SM  H15T13285  -0.929   6.283  14.080  0.2585  1.3722 -0.3723
   9823SM  C16S13286  -0.897   6.484  14.165 -0.2097  0.4047  0.2369
   9823SM  H16S13287  -0.904   6.520  14.060 -1.2432  3.1417  1.1416
   9823SM  H16T13288  -0.826   6.537  14.233  1.0791 -0.7087 -0.2030
   9823SM  C17S13289  -1.038   6.497  14.229 -0.1470  0.0655 -0.1526
   9823SM  H17S13290  -1.114   6.431  14.183 -2.0405  1.2247  1.1909
   9823SM  H17T13291  -1.082   6.599  14.219 -1.2227 -0.3407  0.3524
   9823SM  C18S13292  -1.047   6.466  14.378 -0.0817  0.3162 -0.0343
   9823SM  H18S13293  -0.982   6.379  14.400 -1.3409 -0.7814 -0.5400
   9823SM  H18T13294  -1.152   6.454  14.412 -0.6552  0.8959 -1.5174
   9823SM  H18U13295  -1.002   6.542  14.446 -3.6745 -0.1297  3.1948
   9823SM   C1F13296  -0.556   6.330  12.841  1.2652 -0.1762  0.3383
   9823SM    OF13297  -0.565   6.226  12.767 -0.0896  0.3668 -0.3181
   9823SM   C2F13298  -0.676   6.416  12.865 -0.2573  0.0719 -0.0043
   9823SM   H2F13299  -0.749   6.403  12.782 -0.5415  0.0258  0.2530
   9823SM   H2G13300  -0.644   6.522  12.855  1.2690 -0.4735 -1.3206
   9823SM   C3F13301  -0.738   6.394  12.996 -0.9280 -0.2539  0.3834
   9823SM   H3F13302  -0.661   6.410  13.074 -0.0432  0.9721 -0.6789
   9823SM   H3G13303  -0.770   6.288  12.999  2.1924 -1.2784  1.8719
   9823SM   C4F13304  -0.853   6.489  13.033 -0.4289  0.2007  0.0524
   9823SM   H4F13305  -0.909   6.424  13.103  1.2072 -2.9531 -1.3276
   9823SM   H4G13306  -0.908   6.532  12.946  2.4858  2.5481 -0.8062
   9823SM   C5F13307  -0.805   6.620  13.106 -0.5392 -0.3580 -0.4105
   9823SM   H5F13308  -0.735   6.682  13.046 -0.3765  1.2700  1.3481
   9823SM   H5G13309  -0.755   6.592  13.201 -3.0791 -0.5087  0.9823
   9823SM   C6F13310  -0.918   6.711  13.144 -0.3620  0.3314 -0.0325
   9823SM   H6F13311  -0.999   6.654  13.194 -1.1622  1.0237 -0.5087
   9823SM   H6G13312  -0.973   6.756  13.059 -0.6294 -0.0587 -0.0715
   9823SM   C7F13313  -0.870   6.825  13.230 -0.1293 -1.0975 -0.2191
   9823SM   H7F13314  -0.800   6.892  13.175 -1.6266  0.0032 -0.8671
   9823SM   H7G13315  -0.802   6.783  13.306 -0.3014 -0.2029  0.4521
   9823SM   C8F13316  -0.978   6.920  13.295 -0.8902 -0.2887 -0.0235
   9823SM   H8F13317  -0.938   6.996  13.365  2.2096 -0.1423 -1.7660
   9823SM   H8G13318  -1.034   6.855  13.366 -1.7438  1.2428  0.7440
   9823SM   C9F13319  -1.074   6.986  13.196 -0.8859 -1.2431 -0.0163
   9823SM   H9F13320  -1.097   6.928  13.103 -0.0047 -0.2914 -0.8512
   9823SM   H9G13321  -1.018   7.072  13.155  0.5346 -1.8787  0.5335
   9823SM  C10F13322  -1.202   7.033  13.266  0.0655 -0.1404 -0.3240
   9823SM  H10F13323  -1.175   7.104  13.347  1.4427 -0.2188 -0.6965
   9823SM  H10G13324  -1.252   6.945  13.311 -3.3032  1.4690 -0.5976
   9823SM  C11F13325  -1.297   7.098  13.169  0.4780  1.1767  0.3238
   9823SM  H11F13326  -1.326   7.035  13.083  0.3854 -2.4249  2.7872
   9823SM  H11G13327  -1.243   7.184  13.124 -1.0042  0.8353 -2.2607
   9823SM  C12F13328  -1.434   7.142  13.225 -0.0208  0.5739  0.0354
   9823SM  H12F13329  -1.470   7.223  13.158 -0.8781 -0.3067 -0.5962
   9823SM  H12G13330  -1.420   7.182  13.328  1.3223  0.9477 -0.2814
   9823SM  C13F13331  -1.551   7.032  13.220  0.0805  0.3296 -0.1127
   9823SM  H13F13332  -1.507   6.940  13.264  1.0690  1.8522  2.3365
   9823SM  H13G13333  -1.581   7.008  13.116  2.6632  0.1558 -0.8792
   9823SM  C14F13334  -1.675   7.072  13.307 -0.3036  0.3078 -0.2102
   9823SM  H14F13335  -1.707   7.173  13.273  0.6426  0.1933 -1.5064
   9823SM  H14G13336  -1.635   7.081  13.410  0.9094 -0.3129 -0.6147
   9823SM  C15F13337  -1.794   6.976  13.310 -0.7097  0.5167  0.5408
   9823SM  H15F13338  -1.828   6.957  13.206  1.0846  3.9351 -0.8413
   9823SM  H15G13339  -1.882   7.023  13.358 -1.8948  0.3245 -1.3805
   9823SM  C16F13340  -1.772   6.840  13.372 -0.0389 -0.3194  0.0381
   9823SM  H16F13341  -1.688   6.850  13.443 -0.1472 -1.5697  0.3571
   9823SM  H16G13342  -1.735   6.776  13.289 -1.0464 -1.6981  0.6152
   9823SM  C17F13343  -1.890   6.787  13.450  0.0967 -0.9661  0.0973
   9823SM  H17F13344  -1.990   6.803  13.404 -0.8322 -0.6068  2.1287
   9823SM  H17G13345  -1.888   6.843  13.546  0.0829  1.8449 -1.4284
   9823SM  C18F13346  -1.875   6.643  13.493 -0.7322 -0.7666 -0.3245
   9823SM  H18F13347  -1.787   6.623  13.557  0.8204 -0.9607 -2.4063
   9823SM  H18G13348  -1.840   6.586  13.405  2.0817 -1.0660  0.8824
   9823SM  C19F13349  -2.005   6.583  13.559 -0.4529  0.2579 -0.2195
   9823SM  H19F13350  -1.985   6.479  13.592 -0.7551 -1.0071 -3.6587
   9823SM  H19G13351  -2.094   6.588  13.492 -1.9417  0.0949  1.6556
   9823SM  C20F13352  -2.050   6.668  13.677  0.0049  0.5684 -0.4138
   9823SM  H20F13353  -2.097   6.760  13.636 -0.0012  1.0460  0.6445
   9823SM  H20G13354  -1.966   6.703  13.741  0.1863  0.1581 -0.4238
   9823SM  C21F13355  -2.155   6.606  13.770  0.6715  0.6268 -1.0107
   9823SM  H21F13356  -2.242   6.556  13.722 -1.3702  0.8118  2.2346
   9823SM  H21G13357  -2.197   6.693  13.825  2.3860  1.1687 -0.4761
   9823SM  C22F13358  -2.092   6.501  13.864 -1.2447  0.1252  0.1362
   9823SM  H22F13359  -1.990   6.535  13.893 -0.8370 -1.1186  0.2194
   9823SM  H22G13360  -2.073   6.419  13.790  0.6296  2.0168 -1.6385
   9823SM  C23F13361  -2.183   6.455  13.976 -0.2596 -0.4016  0.3376
   9823SM  H23F13362  -2.118   6.390  14.037  0.7259 -2.0470 -2.2799
   9823SM  H23G13363  -2.277   6.404  13.943 -0.3287  0.0432 -0.1775
   9823SM  H23H13364  -2.211   6.548  14.030 -2.4369 -1.1288  0.5540
   9923SM     N13365   8.385   0.220  12.278 -0.2010 -0.3870  0.2328
   9923SM   C1513366   8.364   0.076  12.287 -0.6186  0.5614  0.1056
   9923SM  H15A13367   8.336   0.037  12.384 -1.0963  0.6057 -0.0108
   9923SM  H15B13368   8.445   0.027  12.237  0.6162  2.3296  0.2638
   9923SM  H15C13369   8.281   0.046  12.226  0.3884 -2.0777 -0.0689
   9923SM   C1413370   8.513   0.272  12.339  0.2411  0.1429  0.1274
   9923SM  H14A13371   8.603   0.235  12.292  0.7627  0.7074  0.6742
   9923SM  H14B13372   8.519   0.258  12.446 -0.2496 -1.9400 -0.0721
   9923SM  H14C13373   8.516   0.379  12.326 -0.8147  0.0991 -0.5836
   9923SM   C1313374   8.391   0.253  12.132  0.1831 -0.3084  0.7539
   9923SM  H13A13375   8.419   0.356  12.116  2.1075 -0.7153  1.1324
   9923SM  H13B13376   8.298   0.235  12.081 -0.8906  0.8876  2.2191
   9923SM  H13C13377   8.473   0.206  12.080 -0.4691 -1.2945  0.5983
   9923SM   C1213378   8.262   0.286  12.348 -0.2830  0.4647  0.5066
   9923SM  H12A13379   8.175   0.277  12.285  0.9384  0.5509 -1.2556
   9923SM  H12B13380   8.275   0.393  12.349  0.5129  0.3745  0.5002
   9923SM   C1113381   8.229   0.229  12.492 -1.1800 -0.3298 -0.4761
   9923SM  H11A13382   8.189   0.299  12.568  1.5513 -0.2081  0.9821
   9923SM  H11B13383   8.332   0.221  12.533 -0.8002 -0.5123 -1.4342
   9923SM     P13384   8.021   0.093  12.436  0.3419 -0.4972 -0.2247
   9923SM   O1313385   8.010   0.163  12.309 -0.1849  0.3423 -0.2701
   9923SM   O1413386   7.979  -0.048  12.440  0.2149  0.9268 -0.2649
   9923SM   O1113387   7.946   0.188  12.544  0.3383 -0.5844 -0.5957
   9923SM   O1213388   8.167   0.102  12.492  0.1161 -0.1766 -0.3933
   9923SM   C1S13389   7.906   0.135  12.674 -0.2668  0.5075  0.5338
   9923SM   H1S13390   7.898   0.024  12.674  0.7300  0.4123  1.5447
   9923SM   H1T13391   7.805   0.176  12.691 -0.1288  1.2137 -0.2512
   9923SM    NF13392   7.983   0.084  12.903 -0.2407 -0.0285 -0.6606
   9923SM   HNF13393   7.946   0.132  12.982  1.7860  0.6058 -0.0327
   9923SM   C2S13394   8.007   0.170  12.789  0.2997 -0.3700  1.1146
   9923SM   H2S13395   8.113   0.154  12.759 -0.4547 -1.9387 -1.0089
   9923SM   C3S13396   7.993   0.325  12.808 -0.6492 -0.1722 -0.5883
   9923SM   H3S13397   7.888   0.348  12.837 -0.5776  0.6606 -0.9605
   9923SM    O313398   7.992   0.398  12.685 -0.2240  0.7018 -0.0251
   9923SM   HO313399   7.974   0.329  12.622 -3.3398 -0.6359  2.0820
   9923SM   C4S13400   8.089   0.381  12.914 -0.9958  0.3904 -0.0964
   9923SM   H4S13401   8.060   0.376  13.020 -1.7711  0.0137 -0.3130
   9923SM   C5S13402   8.210   0.430  12.886 -0.3573 -0.4133 -0.2971
   9923SM   H5S13403   8.256   0.423  12.787  0.8607 -0.9270  0.2783
   9923SM   C6S13404   8.300   0.485  12.993  0.4642  0.3147 -1.0071
   9923SM   H6S13405   8.322   0.594  12.981 -0.0882  0.8143  1.7955
   9923SM   H6T13406   8.399   0.436  12.984  0.1372 -0.6498  0.4629
   9923SM   C7S13407   8.272   0.467  13.142 -0.1080  0.5453 -0.2338
   9923SM   H7S13408   8.223   0.372  13.174  2.1467 -0.4892  0.3402
   9923SM   H7T13409   8.211   0.557  13.164  1.1408  1.3756 -0.0735
   9923SM   C8S13410   8.392   0.487  13.241  0.3214  0.1862  0.3453
   9923SM   H8S13411   8.463   0.401  13.247  0.3716  0.1061 -1.0929
   9923SM   H8T13412   8.341   0.496  13.339  1.0104  0.8217  0.6559
   9923SM   C9S13413   8.470   0.616  13.225  0.2062 -0.0565 -0.4356
   9923SM   H9S13414   8.406   0.702  13.195 -0.0796 -0.6065 -1.4474
   9923SM   H9T13415   8.550   0.602  13.149  1.0572  1.8209  0.0313
   9923SM  C10S13416   8.540   0.656  13.360  0.3221 -0.3844 -0.0957
   9923SM  H10S13417   8.470   0.663  13.446  2.2392 -2.7897  1.8555
   9923SM  H10T13418   8.603   0.747  13.359  0.6948 -0.5238  2.5606
   9923SM  C11S13419   8.639   0.539  13.392 -0.2461 -0.0481  0.0599
   9923SM  H11S13420   8.699   0.509  13.304  3.4713  0.6895  2.1088
   9923SM  H11T13421   8.580   0.453  13.431 -0.3000 -1.6503 -3.2707
   9923SM  C12S13422   8.753   0.581  13.487  0.4661 -0.2009  0.0411
   9923SM  H12S13423   8.801   0.669  13.439  1.3902 -0.7081  0.0054
   9923SM  H12T13424   8.835   0.507  13.502  2.1237  1.9653  2.7244
   9923SM  C13S13425   8.705   0.624  13.630  0.0014  0.2311 -0.0764
   9923SM  H13S13426   8.622   0.697  13.624  0.2386  0.5423  0.3855
   9923SM  H13T13427   8.785   0.672  13.690  1.5160 -1.3498 -0.7179
   9923SM  C14S13428   8.676   0.507  13.722  0.0116  0.2524 -0.1171
   9923SM  H14S13429   8.765   0.441  13.728 -0.0169  0.3367  2.4616
   9923SM  H14T13430   8.594   0.453  13.671 -0.2422 -0.3158  0.8730
   9923SM  C15S13431   8.640   0.553  13.865  0.0492 -0.2036 -0.2165
   9923SM  H15S13432   8.541   0.599  13.884 -0.7831 -1.6516 -0.9063
   9923SM  H15T13433   8.720   0.626  13.892 -1.2381  0.8490  0.8720
   9923SM  C16S13434   8.636   0.442  13.969 -0.0472  0.2555  0.0435
   9923SM  H16S13435   8.736   0.394  13.980 -0.8115 -1.0820  1.4645
   9923SM  H16T13436   8.562   0.363  13.944  1.1778 -0.6269 -0.9596
   9923SM  C17S13437   8.583   0.500  14.091  0.1175 -0.3460 -0.0488
   9923SM  H17S13438   8.484   0.545  14.068  0.0863  0.2721  1.1821
   9923SM  H17T13439   8.646   0.588  14.116 -1.6079  1.1275 -0.6776
   9923SM  C18S13440   8.575   0.408  14.209 -0.2427 -0.2888  0.0824
   9923SM  H18S13441   8.664   0.341  14.213  0.7807  0.8921 -1.8275
   9923SM  H18T13442   8.490   0.335  14.201 -1.3553  0.9340  0.3812
   9923SM  H18U13443   8.558   0.470  14.300 -0.2919 -2.4278  1.6251
   9923SM   C1F13444   8.024  -0.039  12.910 -0.7169  0.5254 -0.0443
   9923SM    OF13445   8.091  -0.087  12.819 -0.2238 -0.3086 -0.4544
   9923SM   C2F13446   8.016  -0.125  13.040  1.1876  0.4001 -0.4878
   9923SM   H2F13447   8.114  -0.127  13.091  0.9307 -0.5994 -0.0063
   9923SM   H2G13448   7.999  -0.230  13.010  0.9219  0.0128  0.9320
   9923SM   C3F13449   7.913  -0.077  13.143  0.4856  0.9606  0.7698
   9923SM   H3F13450   7.813  -0.097  13.101 -0.3718  3.2783  1.5357
   9923SM   H3G13451   7.910   0.034  13.144  0.9463  1.0498 -1.7150
   9923SM   C4F13452   7.937  -0.148  13.269 -0.5070  0.0726  0.1600
   9923SM   H4F13453   7.945  -0.258  13.259  1.2587  0.0533  1.3341
   9923SM   H4G13454   7.854  -0.133  13.341 -0.9774  3.0631 -0.8425
   9923SM   C5F13455   8.063  -0.094  13.337 -0.2465 -0.2507 -0.1170
   9923SM   H5F13456   8.033  -0.003  13.393 -2.3430 -0.3049 -1.0514
   9923SM   H5G13457   8.152  -0.071  13.275 -0.0457 -2.8505 -0.9132
   9923SM   C6F13458   8.125  -0.199  13.436 -0.3776  0.7320 -0.1034
   9923SM   H6F13459   8.138  -0.290  13.374 -0.2044  0.3834  0.4366
   9923SM   H6G13460   8.050  -0.224  13.514  2.0241  0.0313  2.1226
   9923SM   C7F13461   8.251  -0.145  13.503 -0.2379  0.3076 -0.2484
   9923SM   H7F13462   8.230  -0.050  13.557  0.1242 -0.7848  1.9379
   9923SM   H7G13463   8.326  -0.122  13.425 -0.8260  0.1463 -0.8736
   9923SM   C8F13464   8.314  -0.233  13.609  0.3879 -0.3614  0.2819
   9923SM   H8F13465   8.317  -0.341  13.583 -1.5325 -0.7261  1.3655
   9923SM   H8G13466   8.239  -0.235  13.690 -0.9850 -0.5306 -0.9460
   9923SM   C9F13467   8.456  -0.182  13.645 -0.0672  0.2135 -0.9931
   9923SM   H9F13468   8.438  -0.086  13.698 -0.9485 -0.6523  0.3310
   9923SM   H9G13469   8.516  -0.167  13.553 -1.8845  0.5035 -2.1774
   9923SM  C10F13470   8.539  -0.283  13.724 -0.1890  0.0158  0.0353
   9923SM  H10F13471   8.533  -0.378  13.667 -0.7544  0.3234 -0.4285
   9923SM  H10G13472   8.478  -0.298  13.816  0.6957  1.4690  0.8969
   9923SM  C11F13473   8.676  -0.231  13.753  0.6267 -0.4596  0.3736
   9923SM  H11F13474   8.665  -0.146  13.823  0.6665 -1.1425  1.2354
   9923SM  H11G13475   8.719  -0.196  13.657 -2.5477  0.6955 -0.7370
   9923SM  C12F13476   8.771  -0.333  13.809 -0.2535 -0.4822  0.3312
   9923SM  H12F13477   8.777  -0.415  13.734 -1.0590  0.6256 -0.9924
   9923SM  H12G13478   8.715  -0.367  13.899  1.8870 -2.6040  0.9674
   9923SM  C13F13479   8.914  -0.290  13.836 -0.1910 -0.4381  0.4940
   9923SM  H13F13480   8.907  -0.209  13.912  1.4715  0.6998 -0.4881
   9923SM  H13G13481   8.966  -0.254  13.745 -1.2774 -1.1717 -0.4407
   9923SM  C14F13482   8.996  -0.404  13.892  0.1233  0.1454  0.1026
   9923SM  H14F13483   9.006  -0.482  13.814  2.9048  0.2541  0.2317
   9923SM  H14G13484   8.943  -0.447  13.979 -1.7059  1.0020 -0.5495
   9923SM  C15F13485   9.131  -0.354  13.943 -0.3510 -0.7093  1.2955
   9923SM  H15F13486   9.120  -0.297  14.038 -0.7517  0.8145  0.3661
   9923SM  H15G13487   9.167  -0.288  13.860  1.2845 -0.9664  1.7631
   9923SM  C16F13488   9.231  -0.462  13.953 -0.2203  0.3296 -0.6636
   9923SM  H16F13489   9.209  -0.536  13.873 -1.8595  0.4929 -0.4016
   9923SM  H16G13490   9.208  -0.512  14.050  1.8543 -1.6320 -1.0916
   9923SM  C17F13491   9.374  -0.406  13.950 -0.4663 -0.3740 -0.5212
   9923SM  H17F13492   9.385  -0.343  13.859 -1.6393  0.1779 -0.3051
   9923SM  H17G13493   9.449  -0.488  13.950  0.8597  0.7833  0.6784
   9923SM  C18F13494   9.401  -0.322  14.075  0.0260 -0.2704  0.3974
   9923SM  H18F13495   9.331  -0.236  14.081 -2.7728 -2.4237  0.5881
   9923SM  H18G13496   9.500  -0.274  14.059  0.4798 -1.3674 -0.1721
   9923SM  C19F13497   9.394  -0.398  14.212 -0.0491 -0.0252  0.4723
   9923SM  H19F13498   9.491  -0.371  14.258  0.9442 -1.8215 -0.4318
   9923SM  H19G13499   9.389  -0.507  14.189 -2.0846  0.4847 -1.9765
   9923SM  C20F13500   9.285  -0.361  14.307  0.0737  0.1750  0.8181
   9923SM  H20F13501   9.196  -0.420  14.276  0.5909 -0.3619  0.3055
   9923SM  H20G13502   9.270  -0.253  14.324  2.2016  0.9207 -1.4206
   9923SM  C21F13503   9.322  -0.428  14.441  0.5776 -0.1427 -0.1708
   9923SM  H21F13504   9.423  -0.385  14.460  0.6738  0.6589 -2.1962
   9923SM  H21G13505   9.328  -0.538  14.423  2.2404  0.1438 -1.7034
   9923SM  C22F13506   9.222  -0.396  14.553  0.2979 -0.7824  0.6413
   9923SM  H22F13507   9.129  -0.370  14.498  2.9011  0.1911 -3.8714
   9923SM  H22G13508   9.265  -0.305  14.599  0.9029 -1.5279  1.6055
   9923SM  C23F13509   9.213  -0.511  14.660 -0.2242  0.3144  0.3314
   9923SM  H23F13510   9.132  -0.584  14.638 -1.4165  1.2113  1.5585
   9923SM  H23G13511   9.206  -0.472  14.764  1.1834  1.2769  0.0892
   9923SM  H23H13512   9.311  -0.563  14.656 -1.5477 -2.2350 -1.6387
  10023SM     N13513   7.221   7.562  12.350  0.3686 -0.0239 -1.0373
  10023SM   C1513514   7.221   7.561  12.502 -0.0452  0.7058  0.8449
  10023SM  H15A13515   7.136   7.506  12.539  1.4008 -0.7406  2.1917
  10023SM  H15B13516   7.211   7.658  12.547 -1.5142  1.5938 -1.2830
  10023SM  H15C13517   7.313   7.521  12.543  1.3169  1.5069 -1.2735
  10023SM   C1413518   7.107   7.649  12.309  0.2318  0.5503  0.2283
  10023SM  H14A13519   7.105   7.639  12.202 -1.7077 -0.4681  0.3296
  10023SM  H14B13520   7.124   7.750  12.344 -2.0186  0.4349  1.8434
  10023SM  H14C13521   7.020   7.604  12.354  0.7875 -0.5463  0.2470
  10023SM   C1313522   7.344   7.626  12.293  0.1465  0.5412 -0.0937
  10023SM  H13A13523   7.434   7.577  12.328 -0.5983 -0.2788  0.7172
  10023SM  H13B13524   7.353   7.732  12.315  2.9175  0.2654  0.4840
  10023SM  H13C13525   7.338   7.622  12.185  2.2461 -0.0008 -0.2458
  10023SM   C1213526   7.196   7.422  12.311  0.1281  0.1167  0.2401
  10023SM  H12A13527   7.179   7.416  12.204  1.5363  1.0523 -0.0648
  10023SM  H12B13528   7.104   7.397  12.361  0.0828  0.4621  0.3283
  10023SM   C1113529   7.304   7.317  12.336  0.2900  0.7973  0.0406
  10023SM  H11A13530   7.263   7.217  12.306 -1.7206  1.3399  0.8191
  10023SM  H11B13531   7.326   7.312  12.445  2.1821  2.1724 -0.2275
  10023SM     P13532   7.573   7.305  12.262  0.2686 -0.0309 -0.1839
  10023SM   O1313533   7.577   7.165  12.227 -0.5866 -0.0976 -0.1820
  10023SM   O1413534   7.648   7.401  12.174  0.2931  0.2880 -0.0075
  10023SM   O1113535   7.625   7.340  12.407 -0.0857 -0.0969  0.4037
  10023SM   O1213536   7.420   7.351  12.267 -0.4793  0.0318 -0.4160
  10023SM   C1S13537   7.585   7.462  12.465  0.0844 -1.1125  0.2813
  10023SM   H1S13538   7.481   7.457  12.502 -0.0949 -2.4408 -0.3222
  10023SM   H1T13539   7.589   7.539  12.385  0.4760 -2.1006 -0.6958
  10023SM    NF13540   7.620   7.633  12.634 -0.9160 -0.5285  0.3562
  10023SM   HNF13541   7.657   7.722  12.608 -2.2506 -0.0385  0.0509
  10023SM   C2S13542   7.678   7.512  12.579  0.0069 -0.1383 -0.1470
  10023SM   H2S13543   7.686   7.444  12.667  0.4538 -2.0769 -1.6322
  10023SM   C3S13544   7.830   7.530  12.534 -0.5997  0.4072 -0.0675
  10023SM   H3S13545   7.821   7.606  12.453 -0.8303  1.6670  1.1072
  10023SM    O313546   7.896   7.413  12.481  0.6348 -0.2580  0.2162
  10023SM   HO313547   7.827   7.347  12.472 -0.1163  0.2616  1.8152
  10023SM   C4S13548   7.915   7.603  12.633 -0.1712 -0.1371 -0.2277
  10023SM   H4S13549   7.915   7.712  12.616  1.3231 -0.3286 -1.7731
  10023SM   C5S13550   7.988   7.543  12.730  0.3427 -0.1116 -0.6282
  10023SM   H5S13551   7.989   7.433  12.736  1.2269 -0.0708  0.4085
  10023SM   C6S13552   8.071   7.612  12.837  0.3422 -0.4449  0.5711
  10023SM   H6S13553   8.120   7.694  12.779 -1.8916 -0.4851 -1.5449
  10023SM   H6T13554   8.151   7.545  12.875  3.2362  1.1159 -2.2349
  10023SM   C7S13555   8.003   7.655  12.971  0.2052 -0.1063 -0.3301
  10023SM   H7S13556   8.089   7.685  13.036  0.7698  0.5165 -1.3337
  10023SM   H7T13557   7.965   7.566  13.025  1.0436  0.2647  0.9163
  10023SM   C8S13558   7.892   7.754  12.957 -0.3479 -0.4747  0.1793
  10023SM   H8S13559   7.804   7.706  12.911 -0.6075  0.0670  0.1016
  10023SM   H8T13560   7.923   7.834  12.886  3.5548 -1.8643  0.0583
  10023SM   C9S13561   7.848   7.830  13.085  0.1363  0.2831 -0.1731
  10023SM   H9S13562   7.930   7.889  13.132  0.1900 -0.7685  1.0963
  10023SM   H9T13563   7.807   7.770  13.169  1.9808 -2.9204 -1.3934
  10023SM  C10S13564   7.743   7.934  13.048  0.1677  0.5051  0.3751
  10023SM  H10S13565   7.664   7.880  12.993 -0.4127  0.9512  0.7475
  10023SM  H10T13566   7.782   8.012  12.979  1.9257 -0.8386 -0.2211
  10023SM  C11S13567   7.675   7.996  13.171  0.1910 -0.8845 -0.9121
  10023SM  H11S13568   7.638   8.096  13.139 -0.4403 -0.7243  0.2683
  10023SM  H11T13569   7.744   8.002  13.258 -0.3713  0.6520 -0.5381
  10023SM  C12S13570   7.551   7.912  13.210  0.5983 -0.4694 -0.0662
  10023SM  H12S13571   7.584   7.811  13.245  2.6966  0.7666  1.7654
  10023SM  H12T13572   7.492   7.897  13.117  0.2666 -0.5771  0.1613
  10023SM  C13S13573   7.456   7.966  13.323 -0.7695 -0.1840  0.8674
  10023SM  H13S13574   7.396   7.878  13.353  0.4526 -1.8537 -1.2847
  10023SM  H13T13575   7.389   8.031  13.263 -0.0675 -1.1600 -1.0726
  10023SM  C14S13576   7.524   8.042  13.433  0.0756 -0.5556  0.0075
  10023SM  H14S13577   7.450   8.080  13.506 -1.2750 -0.5146 -1.3429
  10023SM  H14T13578   7.583   8.127  13.392  1.1017 -0.7409  1.0446
  10023SM  C15S13579   7.627   7.959  13.505  0.3185 -0.0614 -0.1985
  10023SM  H15S13580   7.688   8.019  13.576 -0.2561  2.3805 -1.6348
  10023SM  H15T13581   7.696   7.906  13.436 -0.3941  0.1148 -1.0655
  10023SM  C16S13582   7.561   7.845  13.588 -0.0800 -0.1076 -0.0554
  10023SM  H16S13583   7.520   7.777  13.511 -0.1374 -0.3339  0.1741
  10023SM  H16T13584   7.475   7.895  13.637 -0.9631  0.0288 -1.6584
  10023SM  C17S13585   7.646   7.761  13.676  0.1227 -0.7926  0.6945
  10023SM  H17S13586   7.710   7.695  13.614  0.2121  0.0902 -0.1774
  10023SM  H17T13587   7.581   7.684  13.724 -1.3337  0.5235  0.9348
  10023SM  C18S13588   7.729   7.844  13.778  0.0371 -0.2311  0.4698
  10023SM  H18S13589   7.775   7.786  13.861 -0.8678  0.5393  1.5396
  10023SM  H18T13590   7.663   7.924  13.816  0.1329 -1.0314  2.4241
  10023SM  H18U13591   7.808   7.899  13.722 -0.6678  1.3610  0.9806
  10023SM   C1F13592   7.505   7.644  12.694  0.2462  0.1949 -0.1413
  10023SM    OF13593   7.434   7.545  12.716 -0.5176 -0.3448 -0.2256
  10023SM   C2F13594   7.453   7.787  12.715 -0.0802  0.4241 -0.3395
  10023SM   H2F13595   7.426   7.839  12.621  0.4930  1.1010 -0.1359
  10023SM   H2G13596   7.532   7.836  12.776 -0.6776 -0.6049  1.3226
  10023SM   C3F13597   7.334   7.804  12.814  0.5524 -0.0464 -0.1406
  10023SM   H3F13598   7.357   7.756  12.911  0.2614 -0.8267 -0.4471
  10023SM   H3G13599   7.244   7.747  12.782  0.3742 -0.3040  0.7912
  10023SM   C4F13600   7.297   7.952  12.823 -0.4629 -0.0664 -0.4140
  10023SM   H4F13601   7.264   7.984  12.722  3.6881 -0.0393 -1.9467
  10023SM   H4G13602   7.391   8.009  12.838 -0.7653  0.2194  0.4454
  10023SM   C5F13603   7.203   7.990  12.942  0.1799  0.4236  0.2966
  10023SM   H5F13604   7.247   7.959  13.039  0.9294 -0.1981 -0.2255
  10023SM   H5G13605   7.110   7.930  12.936 -0.1458  0.7457  1.7961
  10023SM   C6F13606   7.163   8.139  12.947 -0.4055 -0.0681  0.7745
  10023SM   H6F13607   7.125   8.177  12.849  1.2763  2.1022  0.9072
  10023SM   H6G13608   7.262   8.186  12.963  1.3262 -2.4148 -1.9423
  10023SM   C7F13609   7.075   8.180  13.061  0.2330 -0.0820 -0.2113
  10023SM   H7F13610   6.971   8.143  13.056  0.0175  0.6500 -1.8764
  10023SM   H7G13611   7.059   8.288  13.041  2.0106  0.0773 -0.9991
  10023SM   C8F13612   7.139   8.156  13.203 -0.8138 -0.2209  0.4994
  10023SM   H8F13613   7.239   8.205  13.206 -1.0885  0.3135  2.9124
  10023SM   H8G13614   7.151   8.050  13.233  0.6471  0.0983  1.1271
  10023SM   C9F13615   7.054   8.215  13.319  0.3130 -0.1303  0.1040
  10023SM   H9F13616   6.950   8.177  13.318 -0.4199  1.7680  0.1265
  10023SM   H9G13617   7.052   8.326  13.324  0.7919 -0.1625  2.7577
  10023SM  C10F13618   7.109   8.183  13.459 -0.1453 -0.8061  0.0254
  10023SM  H10F13619   7.219   8.188  13.443 -0.1918 -1.5238 -0.5730
  10023SM  H10G13620   7.085   8.077  13.480 -0.9517 -1.0564 -1.8718
  10023SM  C11F13621   7.061   8.282  13.567  0.2335  0.0995 -0.5454
  10023SM  H11F13622   6.950   8.290  13.571  0.2565  0.2639 -0.1723
  10023SM  H11G13623   7.101   8.384  13.549 -0.4721  1.1018  2.7659
  10023SM  C12F13624   7.115   8.237  13.711  0.0692  0.4701  0.5570
  10023SM  H12F13625   7.051   8.149  13.735 -2.1483  1.9797  0.5346
  10023SM  H12G13626   7.091   8.309  13.791  1.0860 -0.1675  1.4655
  10023SM  C13F13627   7.266   8.205  13.717  0.1457  0.3458  0.3785
  10023SM  H13F13628   7.318   8.292  13.671 -1.2385  1.0283  0.0610
  10023SM  H13G13629   7.265   8.120  13.646 -1.4806  0.1582  0.5943
  10023SM  C14F13630   7.328   8.197  13.854 -0.9269  0.0711 -0.1008
  10023SM  H14F13631   7.291   8.108  13.911  1.4741  0.2719  1.9380
  10023SM  H14G13632   7.289   8.285  13.909  1.8397  1.0983  0.3654
  10023SM  C15F13633   7.489   8.198  13.857  1.2315 -0.6024  0.2040
  10023SM  H15F13634   7.539   8.287  13.814  0.1453  1.2803  2.6261
  10023SM  H15G13635   7.516   8.107  13.799 -1.4986 -0.1422 -1.9577
  10023SM  C16F13636   7.556   8.165  13.992 -1.0237  0.2130  0.8302
  10023SM  H16F13637   7.665   8.177  13.977 -1.3032  0.9683 -0.7866
  10023SM  H16G13638   7.537   8.060  14.024  1.7911 -0.3333  0.9701
  10023SM  C17F13639   7.517   8.254  14.108  0.6540 -0.0788 -0.2412
  10023SM  H17F13640   7.406   8.251  14.120  0.6150 -1.0525 -0.7525
  10023SM  H17G13641   7.562   8.351  14.079  1.2515 -0.1602  0.3870
  10023SM  C18F13642   7.585   8.220  14.238 -0.0131 -0.1043 -0.3125
  10023SM  H18F13643   7.690   8.254  14.230 -0.4996  1.1676 -1.8145
  10023SM  H18G13644   7.586   8.113  14.267  0.5521  0.6306  2.6577
  10023SM  C19F13645   7.534   8.297  14.362  0.2744 -0.1613 -0.1241
  10023SM  H19F13646   7.433   8.260  14.391  0.4388  0.4653  1.3641
  10023SM  H19G13647   7.542   8.407  14.351 -1.6538  0.3030  2.1081
  10023SM  C20F13648   7.621   8.264  14.489 -0.1783  0.4172 -0.5733
  10023SM  H20F13649   7.727   8.290  14.468 -0.1667  0.3402 -0.6132
  10023SM  H20G13650   7.615   8.154  14.507 -3.8766  0.5550 -0.2440
  10023SM  C21F13651   7.573   8.321  14.624  0.1063 -0.4783  0.5943
  10023SM  H21F13652   7.642   8.310  14.711  0.3617 -0.2040  0.4291
  10023SM  H21G13653   7.480   8.268  14.653  1.0300 -2.7115 -0.2837
  10023SM  C22F13654   7.532   8.466  14.617 -0.3542  0.2415 -0.0188
  10023SM  H22F13655   7.481   8.497  14.711  0.2714  0.8811  0.1190
  10023SM  H22G13656   7.469   8.485  14.528  0.7753  3.9849 -0.1992
  10023SM  C23F13657   7.656   8.561  14.611 -0.4290 -0.5867 -0.6166
  10023SM  H23F13658   7.740   8.515  14.555 -0.3492 -0.3206 -0.7119
  10023SM  H23G13659   7.679   8.588  14.716  1.3552 -0.0672 -1.1192
  10023SM  H23H13660   7.630   8.662  14.572  1.4541 -0.9200 -2.9447
  101CHL1    C313661   3.736   4.930  15.678  0.1153 -0.3574 -0.7274
  101CHL1    H313662   3.702   5.031  15.648  0.6475 -0.2065 -0.8233
  101CHL1    O313663   3.758   4.930  15.822 -0.0947  0.2228  0.3658
  101CHL1   H3'13664   3.669   4.925  15.857  0.5398  1.0889  2.2148
  101CHL1    C413665   3.636   4.823  15.635 -0.2276 -0.1157 -0.3092
  101CHL1   H4A13666   3.668   4.723  15.672 -0.8147  0.5604  2.2241
  101CHL1   H4B13667   3.538   4.829  15.687 -0.0750  1.0413 -0.1266
  101CHL1    C513668   3.631   4.822  15.488 -0.0357 -0.0296  0.3552
  101CHL1    C613669   3.513   4.819  15.426 -0.3940 -0.7184  0.0890
  101CHL1    H613670   3.423   4.828  15.489  0.1286  1.2186  0.6381
  101CHL1    C713671   3.493   4.808  15.286  0.1694 -0.1442  0.5890
  101CHL1   H7A13672   3.408   4.740  15.261  0.0402  0.7013 -1.4591
  101CHL1   H7B13673   3.487   4.912  15.248  2.7193  0.1821  0.8986
  101CHL1    C813674   3.622   4.744  15.216  0.0128  0.1232 -0.2384
  101CHL1    H813675   3.617   4.633  15.226 -0.3751  0.1964  0.4137
  101CHL1   C1413676   3.616   4.767  15.063  0.1070 -0.2867 -0.0279
  101CHL1   H1413677   3.616   4.878  15.062  0.8852 -0.2817 -0.0671
  101CHL1   C1513678   3.486   4.722  14.992 -0.1316  0.4201 -0.2053
  101CHL1  H15A13679   3.469   4.617  15.025 -1.7921  0.8645  0.4448
  101CHL1  H15B13680   3.399   4.789  15.008 -1.5314 -0.5255 -3.1602
  101CHL1   C1613681   3.527   4.738  14.845  0.4996 -0.8611  0.0742
  101CHL1  H16A13682   3.498   4.647  14.788  2.1016 -0.0236 -2.2318
  101CHL1  H16B13683   3.476   4.829  14.806  1.1391 -0.4056  0.2832
  101CHL1   C1713684   3.683   4.763  14.841  0.1521  0.1848 -0.6289
  101CHL1   H1713685   3.695   4.873  14.844 -1.8625  0.4273  1.2400
  101CHL1   C1313686   3.739   4.720  14.973  0.1455 -0.6963 -0.0811
  101CHL1   C1813687   3.762   4.566  14.980 -0.0765  0.2255  0.8051
  101CHL1  H18A13688   3.772   4.529  15.084 -1.2238 -0.3796  0.7142
  101CHL1  H18B13689   3.690   4.509  14.917  0.9650 -1.0378  0.7202
  101CHL1  H18C13690   3.861   4.543  14.937  0.1094  0.4279  1.1217
  101CHL1   C1213691   3.858   4.798  15.028 -0.7230 -0.4564 -0.2903
  101CHL1  H12A13692   3.956   4.764  14.989  0.7012  1.3860  1.4814
  101CHL1  H12B13693   3.853   4.908  15.013 -1.0001 -0.3297  0.6613
  101CHL1   C1113694   3.873   4.771  15.178  0.3118 -0.3232 -0.6378
  101CHL1  H11A13695   3.899   4.665  15.200  2.4315  0.6268  2.0513
  101CHL1  H11B13696   3.956   4.834  15.217  0.1112 -0.0021 -0.7316
  101CHL1    C913697   3.744   4.814  15.262  0.2958  0.7698  0.3972
  101CHL1    H913698   3.730   4.923  15.245  0.3762  0.6585 -0.3952
  101CHL1   C1013699   3.762   4.798  15.412 -0.0706 -0.7577 -0.3448
  101CHL1   C1913700   3.804   4.648  15.435  0.0866  0.7257  0.7608
  101CHL1  H19A13701   3.910   4.638  15.406  0.3472  1.5922  1.3926
  101CHL1  H19B13702   3.788   4.614  15.540  0.0183  1.9500  1.1634
  101CHL1  H19C13703   3.741   4.577  15.376  0.1810  0.8460  0.5156
  101CHL1    C113704   3.867   4.904  15.464 -0.8254  0.1590  0.6606
  101CHL1   H1A13705   3.966   4.867  15.431 -2.1236 -1.0176 -2.2390
  101CHL1   H1B13706   3.835   4.995  15.409 -1.1313  0.0465  0.6500
  101CHL1    C213707   3.872   4.912  15.611 -0.0321  0.5909 -0.6999
  101CHL1   H2A13708   3.942   4.992  15.643 -1.7520  1.5785  0.7905
  101CHL1   H2B13709   3.918   4.824  15.661 -0.8809  1.2214  1.2869
  101CHL1   C2013710   3.752   4.711  14.717 -0.8875  0.0099 -0.0597
  101CHL1   H2013711   3.732   4.602  14.713  3.3463 -1.0245  1.6542
  101CHL1   C2113712   3.902   4.731  14.712 -0.1430 -0.4256  0.1002
  101CHL1  H21A13713   3.930   4.839  14.709 -1.3043 -0.1209 -0.5879
  101CHL1  H21B13714   3.945   4.690  14.619  1.6911  2.8714 -0.6708
  101CHL1  H21C13715   3.942   4.671  14.796 -2.7745 -0.7388  1.2356
  101CHL1   C2213716   3.694   4.777  14.590  0.0111  0.0322  0.1206
  101CHL1  H22A13717   3.583   4.775  14.589 -0.0573  1.5761  0.8277
  101CHL1  H22B13718   3.718   4.886  14.590 -2.9814  0.8131 -2.3308
  101CHL1   C2313719   3.736   4.707  14.461 -0.4657 -0.4096 -0.2442
  101CHL1  H23A13720   3.847   4.707  14.452 -0.4619  2.1226 -0.7071
  101CHL1  H23B13721   3.700   4.602  14.474  0.4766 -0.8859 -1.2971
  101CHL1   C2413722   3.687   4.781  14.336 -0.0938 -0.9547  0.0945
  101CHL1  H24A13723   3.576   4.791  14.343 -0.1090 -1.4934  0.8097
  101CHL1  H24B13724   3.727   4.883  14.321  0.3097 -1.2041 -0.5724
  101CHL1   C2513725   3.714   4.698  14.212 -0.1062 -0.4589  0.2356
  101CHL1   H2513726   3.820   4.665  14.211  0.1010 -0.0329 -3.0535
  101CHL1   C2613727   3.633   4.572  14.196  0.1165  0.4695  0.5459
  101CHL1  H26A13728   3.524   4.594  14.187  0.0373 -0.0156  0.2784
  101CHL1  H26B13729   3.672   4.533  14.100  1.9178  1.6378  0.7530
  101CHL1  H26C13730   3.659   4.502  14.278  0.1498 -2.0527 -1.5013
  101CHL1   C2713731   3.709   4.794  14.091  0.2101  0.4929 -0.1053
  101CHL1  H27A13732   3.743   4.731  14.006 -1.9043  2.1564 -2.3324
  101CHL1  H27B13733   3.602   4.824  14.087 -0.1013  0.2227  3.1143
  101CHL1  H27C13734   3.775   4.883  14.098  1.8251 -0.4853 -2.0111
  102CHL1    C313735   1.755   5.376  15.303  0.1966 -0.2135 -0.4655
  102CHL1    H313736   1.787   5.290  15.240  0.2049  0.3338 -1.2080
  102CHL1    O313737   1.684   5.353  15.423  0.1614  0.4079 -0.0643
  102CHL1   H3'13738   1.651   5.442  15.441  1.4330  1.1116 -1.0099
  102CHL1    C413739   1.881   5.466  15.330  0.8681  0.4718 -0.4840
  102CHL1   H4A13740   1.843   5.552  15.390 -0.1549  0.2356 -0.7768
  102CHL1   H4B13741   1.946   5.406  15.397 -0.5260  0.9631  1.4151
  102CHL1    C513742   1.946   5.511  15.202 -0.0275 -0.2306 -0.5173
  102CHL1    C613743   2.081   5.490  15.186  0.4346 -0.4558 -0.3486
  102CHL1    H613744   2.145   5.454  15.268 -0.4413 -0.4686  0.3423
  102CHL1    C713745   2.161   5.511  15.063  0.2618  0.2823  0.4322
  102CHL1   H7A13746   2.262   5.553  15.081 -0.4523  2.9566 -1.1676
  102CHL1   H7B13747   2.179   5.416  15.009  0.8222  0.8265 -0.3588
  102CHL1    C813748   2.089   5.612  14.962 -0.4791  0.0702 -0.3591
  102CHL1    H813749   2.092   5.714  15.006 -1.0777 -0.6684  1.4757
  102CHL1   C1413750   2.156   5.599  14.826  0.9443  0.5179  0.2967
  102CHL1   H1413751   2.135   5.491  14.806  1.4963  0.3111  0.8006
  102CHL1   C1513752   2.304   5.603  14.814  0.3820 -1.2114  0.6026
  102CHL1  H15A13753   2.349   5.687  14.870 -3.1211 -0.2411  2.1880
  102CHL1  H15B13754   2.350   5.515  14.865  0.3651 -1.5885 -0.0218
  102CHL1   C1613755   2.327   5.623  14.663  0.3320 -0.2642  0.0018
  102CHL1  H16A13756   2.385   5.718  14.655  3.3590 -1.8895  0.9397
  102CHL1  H16B13757   2.381   5.539  14.614 -0.7977 -0.6257 -0.6412
  102CHL1   C1713758   2.184   5.639  14.595 -0.6425 -0.4707  0.2939
  102CHL1   H1713759   2.142   5.538  14.576 -0.8329 -0.8036  2.2884
  102CHL1   C1313760   2.092   5.680  14.709 -1.1595 -0.1707 -0.0503
  102CHL1   C1813761   2.104   5.832  14.734  0.4533 -0.1808 -0.0685
  102CHL1  H18A13762   2.063   5.859  14.834  0.5437  0.3609 -0.1716
  102CHL1  H18B13763   2.210   5.866  14.729  0.7604 -0.9626  0.8747
  102CHL1  H18C13764   2.028   5.884  14.671  0.0480  0.2855  0.7862
  102CHL1   C1213765   1.947   5.636  14.701 -0.1937  0.0790  0.5231
  102CHL1  H12A13766   1.895   5.704  14.630 -1.2420  0.4240  1.6019
  102CHL1  H12B13767   1.963   5.529  14.673  0.1253  0.1468  0.4409
  102CHL1   C1113768   1.868   5.641  14.835  0.1743 -0.4953  0.2937
  102CHL1  H11A13769   1.858   5.748  14.863 -2.3184 -0.9455  1.3238
  102CHL1  H11B13770   1.763   5.612  14.817 -0.2944  1.1793  0.1795
  102CHL1    C913771   1.941   5.570  14.958 -0.7781 -0.3952  0.4808
  102CHL1    H913772   1.938   5.465  14.921  1.0361  0.1877 -1.4861
  102CHL1   C1013773   1.855   5.567  15.088 -0.2259  0.0247  0.5738
  102CHL1   C1913774   1.829   5.716  15.122  0.4553 -0.3786  0.5732
  102CHL1  H19A13775   1.924   5.770  15.144  0.5326  0.6848 -2.0198
  102CHL1  H19B13776   1.775   5.784  15.053  0.7267 -1.8739 -1.1934
  102CHL1  H19C13777   1.777   5.729  15.219 -1.9230 -0.3867 -0.6374
  102CHL1    C113778   1.717   5.494  15.077 -0.0410  0.2734  0.1271
  102CHL1   H1A13779   1.642   5.552  15.019 -0.8487 -0.8978 -0.0474
  102CHL1   H1B13780   1.728   5.398  15.021 -0.9921  0.1350  0.1551
  102CHL1    C213781   1.653   5.448  15.211 -0.2409  0.0549  0.0884
  102CHL1   H2A13782   1.559   5.389  15.203 -1.4225  1.7514  0.9008
  102CHL1   H2B13783   1.632   5.548  15.255  0.0699 -0.2575  0.9596
  102CHL1   C2013784   2.203   5.729  14.467 -0.0509  0.2390 -0.2915
  102CHL1   H2013785   2.238   5.829  14.502 -1.8340  1.3159 -1.4066
  102CHL1   C2113786   2.073   5.747  14.397  1.3162  0.1257  0.7408
  102CHL1  H21A13787   2.000   5.805  14.458  0.6187 -1.0934  1.1243
  102CHL1  H21B13788   2.033   5.645  14.375 -0.0566  0.8318 -0.1632
  102CHL1  H21C13789   2.097   5.795  14.300  1.0966 -1.1489  0.0226
  102CHL1   C2213790   2.316   5.682  14.374  0.2182 -0.1615  0.1833
  102CHL1  H22A13791   2.326   5.750  14.287 -0.8473  0.1782  0.3072
  102CHL1  H22B13792   2.406   5.689  14.438 -1.3681 -3.0665  3.0204
  102CHL1   C2313793   2.311   5.534  14.327  0.2637 -0.3610 -0.0991
  102CHL1  H23A13794   2.300   5.467  14.415 -2.7048 -0.6662 -0.5853
  102CHL1  H23B13795   2.214   5.523  14.275  1.4156 -1.3580 -2.1227
  102CHL1   C2413796   2.438   5.501  14.239 -0.3342  0.0827 -0.5841
  102CHL1  H24A13797   2.446   5.588  14.171 -2.3137 -0.6737 -1.8795
  102CHL1  H24B13798   2.530   5.480  14.298 -1.3876 -0.2492  0.9801
  102CHL1   C2513799   2.422   5.380  14.148  0.2463 -0.1515 -0.3814
  102CHL1   H2513800   2.384   5.293  14.205  2.4466  0.1437  1.6974
  102CHL1   C2613801   2.322   5.395  14.035  0.2256 -0.1682  0.3981
  102CHL1  H26A13802   2.221   5.415  14.077  0.0007  0.4336 -0.4032
  102CHL1  H26B13803   2.346   5.473  13.960  1.3347  0.4144  1.3330
  102CHL1  H26C13804   2.322   5.296  13.984  2.6135 -0.8083  1.5069
  102CHL1   C2713805   2.557   5.342  14.087 -0.3980  0.6019  0.5009
  102CHL1  H27A13806   2.592   5.429  14.027  1.0093 -1.4851 -1.8695
  102CHL1  H27B13807   2.635   5.323  14.164  1.0059 -0.9915 -1.2499
  102CHL1  H27C13808   2.540   5.253  14.023 -1.3045  1.5878 -0.6790
  103CHL1    C313809   3.610   3.227  15.824  0.5914 -0.3207 -0.3383
  103CHL1    H313810   3.656   3.312  15.769 -1.5409  0.5197 -0.9459
  103CHL1    O313811   3.682   3.217  15.946  0.0114 -0.6871 -0.1694
  103CHL1   H3'13812   3.654   3.137  15.990 -1.4178  0.4729  1.1652
  103CHL1    C413813   3.464   3.268  15.850 -0.3416  0.3430 -0.7114
  103CHL1   H4A13814   3.417   3.192  15.916  1.8252 -0.0591  0.4654
  103CHL1   H4B13815   3.467   3.364  15.907 -1.5309 -1.1847  2.1343
  103CHL1    C513816   3.376   3.280  15.721 -0.3637  0.0125 -0.8127
  103CHL1    C613817   3.314   3.391  15.691  0.7293  0.1196 -0.2832
  103CHL1    H613818   3.314   3.472  15.766 -0.1136 -0.4555  0.3642
  103CHL1    C713819   3.235   3.414  15.566  0.2595 -0.0227  0.4137
  103CHL1   H7A13820   3.142   3.468  15.594  0.2341  0.0725  0.1542
  103CHL1   H7B13821   3.293   3.484  15.502 -0.9947 -0.5789 -1.4390
  103CHL1    C813822   3.202   3.284  15.487 -0.1195 -0.3534  0.5770
  103CHL1    H813823   3.124   3.229  15.544  0.3162 -0.5952  0.9426
  103CHL1   C1413824   3.158   3.328  15.346  0.4439  0.3074  0.3675
  103CHL1   H1413825   3.236   3.378  15.286 -0.2828 -0.3701 -1.2208
  103CHL1   C1513826   3.042   3.429  15.333 -0.1974 -0.6843 -0.1062
  103CHL1  H15A13827   2.959   3.396  15.399  0.4140  0.3351  1.2232
  103CHL1  H15B13828   3.071   3.533  15.361  0.6938 -0.8009 -0.5674
  103CHL1   C1613829   3.006   3.416  15.186 -0.1201 -0.6162  0.3975
  103CHL1  H16A13830   2.895   3.413  15.181 -0.0556 -1.3535 -2.0248
  103CHL1  H16B13831   3.033   3.507  15.127 -0.0551 -0.2197  1.0356
  103CHL1   C1713832   3.067   3.289  15.129 -0.0347 -0.3970 -0.0732
  103CHL1   H1713833   3.156   3.320  15.070 -0.5294 -1.0829 -1.2108
  103CHL1   C1313834   3.127   3.209  15.250 -0.2598  0.1827  0.7722
  103CHL1   C1813835   3.015   3.123  15.319  0.1534  0.4856 -0.2120
  103CHL1  H18A13836   2.999   3.026  15.266 -1.6360  1.0211 -0.7243
  103CHL1  H18B13837   3.036   3.110  15.428 -0.8990  0.2911 -0.0190
  103CHL1  H18C13838   2.920   3.181  15.316  1.1076  2.0680 -1.1250
  103CHL1   C1213839   3.265   3.132  15.234  0.4480  0.0532 -0.2720
  103CHL1  H12A13840   3.255   3.039  15.174 -1.6030  0.6835 -1.0053
  103CHL1  H12B13841   3.334   3.202  15.184 -1.2826 -0.1578 -3.1654
  103CHL1   C1113842   3.332   3.096  15.362  0.2519 -0.0954  0.7081
  103CHL1  H11A13843   3.289   2.999  15.395  1.8284 -0.6966  1.1344
  103CHL1  H11B13844   3.441   3.082  15.342 -0.0782 -0.8141 -0.7878
  103CHL1    C913845   3.334   3.210  15.480  0.0446  1.1946  0.5753
  103CHL1    H913846   3.405   3.287  15.444 -0.3593  1.3239  0.0504
  103CHL1   C1013847   3.387   3.171  15.623 -0.5180  0.4250  0.3021
  103CHL1   C1913848   3.312   3.047  15.669  0.3097  0.1187 -0.2963
  103CHL1  H19A13849   3.349   3.007  15.765  3.5176  1.5226 -0.8199
  103CHL1  H19B13850   3.201   3.051  15.669  0.2629 -0.9381  0.0822
  103CHL1  H19C13851   3.344   2.976  15.589  1.4868 -1.3331  1.3956
  103CHL1    C113852   3.540   3.135  15.608  0.0772  0.4283  0.1484
  103CHL1   H1A13853   3.539   3.041  15.548 -1.3631  0.1217  0.6190
  103CHL1   H1B13854   3.597   3.213  15.554 -1.4660 -0.1943 -2.5607
  103CHL1    C213855   3.630   3.110  15.730 -0.5553 -0.4289 -0.1641
  103CHL1   H2A13856   3.736   3.115  15.696  0.3225 -0.2118  2.4155
  103CHL1   H2B13857   3.610   3.013  15.781  0.2210  1.0477  3.2174
  103CHL1   C2013858   2.982   3.206  15.040 -0.4445 -0.2870  0.8353
  103CHL1   H2013859   2.896   3.161  15.094  0.0313 -4.2339 -1.3890
  103CHL1   C2113860   3.067   3.094  14.988 -0.0761 -0.2247  0.3595
  103CHL1  H21A13861   3.159   3.139  14.945  0.7492  0.4259  2.6818
  103CHL1  H21B13862   3.017   3.047  14.900 -0.5181  1.4897 -0.3411
  103CHL1  H21C13863   3.081   3.007  15.056 -0.8748 -2.4464 -2.1047
  103CHL1   C2213864   2.917   3.282  14.917 -0.2947 -0.1438  0.4148
  103CHL1  H22A13865   2.879   3.200  14.853  0.7060 -0.4281  0.1554
  103CHL1  H22B13866   2.833   3.336  14.966 -0.8872 -2.2827  1.9408
  103CHL1   C2313867   3.003   3.372  14.829 -0.5197  0.3195  0.6462
  103CHL1  H23A13868   3.055   3.446  14.894  4.2582 -2.5796  0.5758
  103CHL1  H23B13869   3.077   3.307  14.778 -1.0838 -0.9467  1.3841
  103CHL1   C2413870   2.915   3.437  14.722  0.3607  0.4087  0.0032
  103CHL1  H24A13871   2.882   3.361  14.648 -2.5214 -0.5250  2.0100
  103CHL1  H24B13872   2.825   3.481  14.770  1.1042  2.1267 -0.1382
  103CHL1   C2513873   2.988   3.540  14.635  0.1198 -0.2935  0.1186
  103CHL1   H2513874   3.081   3.495  14.594 -0.7530 -1.3567 -0.7658
  103CHL1   C2613875   2.894   3.579  14.515 -0.0644 -1.0041 -0.5754
  103CHL1  H26A13876   2.802   3.624  14.558 -0.5003 -1.7693 -0.6928
  103CHL1  H26B13877   2.943   3.666  14.466 -0.8490  0.1067  0.5430
  103CHL1  H26C13878   2.872   3.493  14.449 -1.3779 -0.5580 -0.7519
  103CHL1   C2713879   3.026   3.667  14.706  0.7848 -0.8795  0.1281
  103CHL1  H27A13880   3.112   3.653  14.775  1.8147  1.9097 -0.4581
  103CHL1  H27B13881   3.059   3.748  14.636 -0.1736 -1.7810 -1.4188
  103CHL1  H27C13882   2.935   3.701  14.759  0.8822  0.2901 -0.4189
  104CHL1    C313883   6.071   4.892  15.475 -0.9887  0.6907  0.0087
  104CHL1    H313884   6.169   4.844  15.451  1.0294  3.5200  1.8415
  104CHL1    O313885   6.091   4.956  15.602  0.1334 -0.2274  1.0634
  104CHL1   H3'13886   6.182   4.985  15.594 -0.1947  0.2687 -3.1450
  104CHL1    C413887   6.046   4.996  15.368  0.0295  0.6998  0.0141
  104CHL1   H4A13888   5.962   5.060  15.403 -2.7932 -1.6099 -1.9384
  104CHL1   H4B13889   6.138   5.057  15.360  0.2087  0.6117  1.2272
  104CHL1    C513890   6.012   4.946  15.231  0.3335 -0.3118  0.2989
  104CHL1    C613891   6.076   4.989  15.119 -0.8509 -0.5374 -0.1250
  104CHL1    H613892   6.153   5.067  15.124 -0.7197 -0.5661 -1.3945
  104CHL1    C713893   6.039   4.942  14.980  0.2865  0.1497  0.9321
  104CHL1   H7A13894   6.031   5.032  14.916 -0.3931  0.9156  2.0540
  104CHL1   H7B13895   6.122   4.879  14.943  1.1137  0.5920  1.9581
  104CHL1    C813896   5.903   4.876  14.978  0.1523 -0.2920 -0.4706
  104CHL1    H813897   5.819   4.946  14.997  0.4616 -0.2800  0.9361
  104CHL1   C1413898   5.880   4.814  14.844 -0.2628  0.2269 -0.0177
  104CHL1   H1413899   5.959   4.736  14.843  0.0817  0.4944  2.0528
  104CHL1   C1513900   5.899   4.903  14.714 -0.1522  1.0063 -0.3158
  104CHL1  H15A13901   5.848   5.002  14.716 -0.9584  0.5921  1.5275
  104CHL1  H15B13902   6.005   4.912  14.684 -0.4910  2.3018 -1.2009
  104CHL1   C1613903   5.827   4.820  14.598  0.0084 -0.1283 -0.4020
  104CHL1  H16A13904   5.757   4.894  14.554  0.3393  0.8555  0.6660
  104CHL1  H16B13905   5.903   4.790  14.523  0.6883  2.1604 -0.7278
  104CHL1   C1713906   5.768   4.696  14.669  0.0465 -0.5010 -0.4260
  104CHL1   H1713907   5.854   4.627  14.684  0.7092  0.2845 -0.5308
  104CHL1   C1313908   5.751   4.738  14.817  0.0517 -0.6761  0.1015
  104CHL1   C1813909   5.624   4.821  14.831  0.1547  0.1850 -0.2869
  104CHL1  H18A13910   5.599   4.892  14.750 -2.2595  0.0501  0.2477
  104CHL1  H18B13911   5.537   4.751  14.829 -0.1805  0.5973 -0.2476
  104CHL1  H18C13912   5.617   4.889  14.919 -1.2903  1.6615 -1.4730
  104CHL1   C1213913   5.752   4.631  14.925 -0.0629  0.0138  0.3658
  104CHL1  H12A13914   5.653   4.580  14.921  0.5716 -1.3803  1.5842
  104CHL1  H12B13915   5.832   4.556  14.908 -2.3587 -2.6355  0.6165
  104CHL1   C1113916   5.760   4.683  15.068  0.1579 -0.5411 -0.5061
  104CHL1  H11A13917   5.671   4.745  15.092 -0.5020 -0.2366 -3.3879
  104CHL1  H11B13918   5.776   4.591  15.128  1.0243 -0.9177 -1.2788
  104CHL1    C913919   5.888   4.769  15.087  0.0874 -0.4194 -0.3674
  104CHL1    H913920   5.978   4.707  15.066  0.7120  1.0402 -2.3052
  104CHL1   C1013921   5.897   4.847  15.224 -0.0208  0.6207  0.2435
  104CHL1   C1913922   5.768   4.932  15.257 -0.5477 -0.1290  0.5890
  104CHL1  H19A13923   5.759   5.020  15.190 -0.5554 -0.8626 -0.3925
  104CHL1  H19B13924   5.679   4.865  15.252 -0.7806  0.2836 -2.2214
  104CHL1  H19C13925   5.767   4.981  15.356 -0.5337  0.1308  0.4612
  104CHL1    C113926   5.918   4.742  15.339 -0.3012  0.0962 -0.6332
  104CHL1   H1A13927   5.824   4.688  15.364  1.1649 -1.0629  3.1931
  104CHL1   H1B13928   6.000   4.674  15.307  2.4554  2.5891  0.6890
  104CHL1    C213929   5.957   4.794  15.484  0.7084  0.0668  0.2256
  104CHL1   H2A13930   6.001   4.707  15.538  1.4654 -1.0828 -2.1069
  104CHL1   H2B13931   5.872   4.849  15.530  1.5786  1.3761  0.2992
  104CHL1   C2013932   5.661   4.627  14.597  0.8989  0.1219 -0.4598
  104CHL1   H2013933   5.568   4.681  14.624  1.9546  1.1125  1.3977
  104CHL1   C2113934   5.645   4.484  14.646 -0.8628  0.1426  0.4004
  104CHL1  H21A13935   5.574   4.424  14.585  0.5551 -1.2782  0.0628
  104CHL1  H21B13936   5.615   4.484  14.753  2.3478 -0.3273  1.4211
  104CHL1  H21C13937   5.740   4.427  14.637 -1.8169 -1.6711  1.2455
  104CHL1   C2213938   5.685   4.625  14.437 -0.1539  0.6496 -0.4771
  104CHL1  H22A13939   5.687   4.732  14.408  1.3130  0.5444 -0.8167
  104CHL1  H22B13940   5.789   4.588  14.426  0.2722  1.1998  1.2781
  104CHL1   C2313941   5.597   4.533  14.350 -0.2356 -0.4301 -0.3803
  104CHL1  H23A13942   5.609   4.426  14.379 -1.1743  0.1542  2.5554
  104CHL1  H23B13943   5.489   4.553  14.362 -0.0982 -0.8381  2.1547
  104CHL1   C2413944   5.631   4.559  14.198  0.4372  0.4857 -0.4332
  104CHL1  H24A13945   5.610   4.660  14.158  0.2517  0.0213 -1.5605
  104CHL1  H24B13946   5.741   4.545  14.194  0.6070  1.1109  1.3933
  104CHL1   C2513947   5.560   4.464  14.103 -0.1868 -0.1930  0.7475
  104CHL1   H2513948   5.581   4.510  14.004  0.3168  3.6850  2.4764
  104CHL1   C2613949   5.627   4.324  14.103 -0.5305  0.0844  0.0231
  104CHL1  H26A13950   5.711   4.307  14.173 -0.2226  0.6605 -0.2049
  104CHL1  H26B13951   5.548   4.259  14.146 -0.0765 -1.9452 -2.0393
  104CHL1  H26C13952   5.646   4.280  14.003  0.7412  3.1122 -1.1659
  104CHL1   C2713953   5.411   4.463  14.126  0.0400 -0.1372 -0.1520
  104CHL1  H27A13954   5.370   4.565  14.136  1.8802  0.7625 -1.3073
  104CHL1  H27B13955   5.356   4.420  14.039 -1.8124  1.0052  0.3975
  104CHL1  H27C13956   5.379   4.403  14.214  1.1677 -2.0731 -0.9928
  105CHL1    C313957   6.351   3.554  15.744 -0.0587 -0.1711  0.0224
  105CHL1    H313958   6.245   3.551  15.708 -0.2651  1.5804  0.4095
  105CHL1    O313959   6.364   3.578  15.884 -0.7187  0.3273 -0.5448
  105CHL1   H3'13960   6.385   3.494  15.924 -1.8730 -0.0180 -0.6294
  105CHL1    C413961   6.427   3.424  15.711  0.6194  0.4784 -0.0006
  105CHL1   H4A13962   6.535   3.441  15.730  0.4927  1.3552 -0.0121
  105CHL1   H4B13963   6.383   3.340  15.769 -1.9296  0.9695 -1.0714
  105CHL1    C513964   6.415   3.402  15.562 -0.4573  0.2872  0.4200
  105CHL1    C613965   6.366   3.292  15.515 -0.2953  0.8267 -0.1022
  105CHL1    H613966   6.335   3.213  15.585 -1.4403  0.3698 -1.0800
  105CHL1    C713967   6.376   3.246  15.375  0.2631  0.2289  0.1920
  105CHL1   H7A13968   6.418   3.144  15.375 -0.0818  0.0704  1.3542
  105CHL1   H7B13969   6.270   3.230  15.344 -0.2033 -3.9975  3.1492
  105CHL1    C813970   6.456   3.344  15.294 -0.0054 -0.0737  0.3783
  105CHL1    H813971   6.564   3.320  15.301 -0.0583 -0.1357  1.1035
  105CHL1   C1413972   6.422   3.328  15.155  0.6083 -0.4947  0.6274
  105CHL1   H1413973   6.316   3.360  15.145  0.3944 -1.6815 -1.1905
  105CHL1   C1513974   6.422   3.193  15.092 -0.4586  0.3556  0.4298
  105CHL1  H15A13975   6.523   3.151  15.111 -0.7903  0.2603  2.1611
  105CHL1  H15B13976   6.356   3.111  15.128 -0.7803  0.4607  0.0874
  105CHL1   C1613977   6.395   3.213  14.948 -0.0730 -0.0659  0.4681
  105CHL1  H16A13978   6.464   3.149  14.889  1.2183  1.9430 -0.3102
  105CHL1  H16B13979   6.291   3.186  14.920  0.3325 -1.2699  0.0677
  105CHL1   C1713980   6.423   3.362  14.914 -0.0503 -0.4719  0.3371
  105CHL1   H1713981   6.320   3.404  14.907  0.0260 -0.4859 -1.0752
  105CHL1   C1313982   6.487   3.418  15.047  0.6722  0.0227 -0.1255
  105CHL1   C1813983   6.634   3.389  15.040 -0.6296 -0.0887  0.2129
  105CHL1  H18A13984   6.674   3.461  14.965 -0.5649 -1.0656 -0.7059
  105CHL1  H18B13985   6.692   3.398  15.134 -1.7316 -0.2865  0.9283
  105CHL1  H18C13986   6.658   3.289  14.997  2.4975 -0.1686  1.8941
  105CHL1   C1213987   6.446   3.565  15.082  0.6282 -0.2457 -0.2210
  105CHL1  H12A13988   6.481   3.643  15.011 -1.4204  0.4428 -0.5339
  105CHL1  H12B13989   6.338   3.584  15.063  1.1107  1.1769 -1.8175
  105CHL1   C1113990   6.489   3.587  15.231 -0.2999 -0.2862  0.9189
  105CHL1  H11A13991   6.600   3.584  15.230 -0.0007  4.0057  1.5333
  105CHL1  H11B13992   6.473   3.695  15.252  1.0719 -0.1406  1.3262
  105CHL1    C913993   6.426   3.493  15.335 -0.4531  0.4007 -0.1085
  105CHL1    H913994   6.315   3.502  15.334 -0.4358  1.2676  1.4372
  105CHL1   C1013995   6.478   3.517  15.482  1.1172  0.0950  0.0175
  105CHL1   C1913996   6.634   3.530  15.487 -0.5621 -1.0127  0.1912
  105CHL1  H19A13997   6.695   3.447  15.447 -0.2296 -0.1061 -1.2427
  105CHL1  H19B13998   6.669   3.626  15.443 -0.7936 -1.4462 -0.9748
  105CHL1  H19C13999   6.671   3.534  15.592 -0.0924  2.1254  0.0156
  105CHL1    C114000   6.413   3.654  15.523  0.1441  0.0011  0.5782
  105CHL1   H1A14001   6.472   3.730  15.467  1.1738  0.4885  2.2268
  105CHL1   H1B14002   6.309   3.675  15.492  0.2218 -2.7725 -1.9759
  105CHL1    C214003   6.414   3.678  15.669 -0.1483  0.5220 -0.5702
  105CHL1   H2A14004   6.352   3.761  15.708  0.1600 -0.3043  1.8431
  105CHL1   H2B14005   6.512   3.699  15.716  0.0995 -1.6909  0.0513
  105CHL1   C2014006   6.485   3.380  14.773 -0.5660 -0.8045  0.1490
  105CHL1   H2014007   6.589   3.340  14.768  0.2852  1.3755 -1.3261
  105CHL1   C2114008   6.511   3.531  14.744 -0.8718 -0.0746  0.0509
  105CHL1  H21A14009   6.584   3.586  14.808 -1.3815  1.2817 -0.5017
  105CHL1  H21B14010   6.417   3.590  14.746 -0.9923 -0.2528 -0.3073
  105CHL1  H21C14011   6.560   3.532  14.644  0.8451  0.4403  0.8628
  105CHL1   C2214012   6.407   3.308  14.666  0.1554 -0.1722 -0.2464
  105CHL1  H22A14013   6.392   3.199  14.685 -0.5575 -0.1767 -0.8054
  105CHL1  H22B14014   6.306   3.354  14.657  1.0201  1.7198 -0.7342
  105CHL1   C2314015   6.473   3.306  14.530 -0.4496  0.2301  1.2501
  105CHL1  H23A14016   6.451   3.398  14.472  0.0728  0.2439  1.0612
  105CHL1  H23B14017   6.584   3.305  14.537 -0.3210 -0.9168 -0.2846
  105CHL1   C2414018   6.429   3.186  14.432  0.1012  0.3502  0.2607
  105CHL1  H24A14019   6.450   3.086  14.474 -0.5604 -0.3835 -1.0869
  105CHL1  H24B14020   6.320   3.188  14.414  0.2634 -1.9635 -1.4651
  105CHL1   C2514021   6.478   3.191  14.281  0.5777  0.3560 -0.1511
  105CHL1   H2514022   6.458   3.291  14.239 -1.2202 -0.2502 -0.8330
  105CHL1   C2614023   6.631   3.177  14.273  0.4060 -0.0599  0.4735
  105CHL1  H26A14024   6.669   3.073  14.275 -0.1372 -0.2526  1.1498
  105CHL1  H26B14025   6.679   3.223  14.184 -0.2681  0.7855  0.5402
  105CHL1  H26C14026   6.670   3.237  14.358 -0.9964  1.2828  0.2304
  105CHL1   C2714027   6.408   3.089  14.188  0.3805  0.0943 -0.5522
  105CHL1  H27A14028   6.303   3.065  14.214 -0.3717  1.9418 -1.7511
  105CHL1  H27B14029   6.417   3.124  14.083 -0.8430  0.3786 -0.5699
  105CHL1  H27C14030   6.462   2.992  14.196  2.3547  1.0300 -1.7991
  106CHL1    C314031   1.757   4.653  15.301  0.4956 -0.1209  0.7519
  106CHL1    H314032   1.748   4.544  15.278 -2.1514  0.3348 -0.7369
  106CHL1    O314033   1.667   4.685  15.408 -0.8067 -0.4648  0.1284
  106CHL1   H3'14034   1.576   4.688  15.378 -0.2870  1.1731 -1.4817
  106CHL1    C414035   1.899   4.685  15.332 -0.1502  0.0559 -0.0903
  106CHL1   H4A14036   1.904   4.793  15.357  2.0329  0.1855 -0.9127
  106CHL1   H4B14037   1.922   4.651  15.435 -0.7596  3.0050  1.1410
  106CHL1    C514038   2.001   4.670  15.224 -0.1493  1.2565 -0.4657
  106CHL1    C614039   2.108   4.591  15.243 -0.1911 -0.0750 -0.1224
  106CHL1    H614040   2.120   4.534  15.336 -0.3609 -0.3630 -0.2755
  106CHL1    C714041   2.220   4.563  15.147  0.3976 -0.1964  0.1946
  106CHL1   H7A14042   2.314   4.591  15.198 -0.2666 -1.3984  2.2160
  106CHL1   H7B14043   2.225   4.452  15.137 -1.2341 -0.2567 -0.2615
  106CHL1    C814044   2.200   4.644  15.020  0.0981 -0.6302  0.0236
  106CHL1    H814045   2.245   4.744  15.037  0.6805 -0.5772 -1.6654
  106CHL1   C1414046   2.277   4.584  14.906 -0.1197 -0.4397  0.4089
  106CHL1   H1414047   2.220   4.491  14.886 -0.1531  0.3193 -4.0214
  106CHL1   C1514048   2.424   4.548  14.918 -0.0357  0.4372  0.3236
  106CHL1  H15A14049   2.488   4.632  14.952  2.8869 -1.6362  0.2733
  106CHL1  H15B14050   2.445   4.468  14.992 -0.7936 -0.1519 -0.0811
  106CHL1   C1614051   2.464   4.509  14.776 -0.1735  0.7545  0.1536
  106CHL1  H16A14052   2.565   4.540  14.741 -0.0201 -1.8419 -2.0175
  106CHL1  H16B14053   2.467   4.398  14.767  0.0354  0.8796 -1.7618
  106CHL1   C1714054   2.356   4.571  14.679 -0.5114  0.4893  0.2179
  106CHL1   H1714055   2.288   4.485  14.661  0.1778 -0.2040  0.8641
  106CHL1   C1314056   2.271   4.661  14.767  0.7846 -0.2662  0.3733
  106CHL1   C1814057   2.340   4.797  14.793 -0.0082 -0.4517 -0.3229
  106CHL1  H18A14058   2.309   4.860  14.879  4.0821  0.1527  0.9219
  106CHL1  H18B14059   2.450   4.787  14.804  0.2127  0.1004 -1.7718
  106CHL1  H18C14060   2.328   4.848  14.695 -0.0488 -1.4097 -0.8343
  106CHL1   C1214061   2.123   4.684  14.732  0.6148  0.4281 -0.0588
  106CHL1  H12A14062   2.114   4.742  14.638  2.2613  1.2672  0.2625
  106CHL1  H12B14063   2.082   4.585  14.705 -0.9571  1.1553 -0.4238
  106CHL1   C1114064   2.043   4.745  14.844 -0.0977  0.4311  0.3776
  106CHL1  H11A14065   2.083   4.849  14.852  2.2602 -0.4263  0.7056
  106CHL1  H11B14066   1.940   4.756  14.805  0.5987  1.8701 -1.2627
  106CHL1    C914067   2.054   4.670  14.978 -0.2079  0.0877 -0.4862
  106CHL1    H914068   2.026   4.564  14.962  0.3947 -0.6528  2.6494
  106CHL1   C1014069   1.968   4.734  15.095  0.2946  0.3224 -0.5697
  106CHL1   C1914070   2.001   4.882  15.110 -0.4980 -0.6096 -0.2409
  106CHL1  H19A14071   2.105   4.896  15.146  0.1441 -2.8068 -1.0880
  106CHL1  H19B14072   1.998   4.939  15.015  1.9824 -1.0995 -0.6666
  106CHL1  H19C14073   1.922   4.923  15.176 -2.0031 -1.7303 -1.2780
  106CHL1    C114074   1.814   4.723  15.051  0.2567 -0.2839  0.1225
  106CHL1   H1A14075   1.795   4.797  14.971 -1.1305  0.1396  0.8174
  106CHL1   H1B14076   1.800   4.620  15.012  0.4995 -0.7731  1.2812
  106CHL1    C214077   1.717   4.728  15.172  0.5978 -0.5155 -0.3826
  106CHL1   H2A14078   1.615   4.694  15.146 -0.8926  0.0053  3.8632
  106CHL1   H2B14079   1.712   4.835  15.201 -1.5645 -0.6643 -0.0522
  106CHL1   C2014080   2.411   4.618  14.545  0.5060  0.3886  0.2771
  106CHL1   H2014081   2.486   4.696  14.570  1.0826 -0.7477  2.2352
  106CHL1   C2114082   2.296   4.678  14.469  0.7127 -0.6525  0.9335
  106CHL1  H21A14083   2.327   4.677  14.363  0.5184  1.2993  0.8198
  106CHL1  H21B14084   2.291   4.786  14.495  3.5514 -0.1299 -0.3299
  106CHL1  H21C14085   2.204   4.617  14.484 -0.3545  1.0392  1.6266
  106CHL1   C2214086   2.478   4.508  14.458 -0.0040 -0.3616  0.0384
  106CHL1  H22A14087   2.543   4.441  14.518 -0.6982  0.0759  1.3198
  106CHL1  H22B14088   2.399   4.441  14.419  0.1672 -0.4524 -0.1530
  106CHL1   C2314089   2.568   4.561  14.349 -0.2031 -0.1681 -0.3398
  106CHL1  H23A14090   2.524   4.657  14.313  2.9437  0.8019 -1.9841
  106CHL1  H23B14091   2.664   4.594  14.394 -0.8346  1.4004 -0.0721
  106CHL1   C2414092   2.613   4.459  14.242  0.4387  0.1345  0.4255
  106CHL1  H24A14093   2.622   4.356  14.283 -0.2963 -0.4687 -0.8840
  106CHL1  H24B14094   2.527   4.435  14.177 -1.2506 -2.2159  3.3008
  106CHL1   C2514095   2.741   4.491  14.158  0.5819  0.0495  0.3126
  106CHL1   H2514096   2.818   4.515  14.235  0.4200 -1.0854  0.8458
  106CHL1   C2614097   2.775   4.363  14.077  0.1800 -0.2495 -0.2929
  106CHL1  H26A14098   2.712   4.367  13.986  0.3394  0.1069 -0.3877
  106CHL1  H26B14099   2.881   4.362  14.044  0.1217 -0.4146 -0.4776
  106CHL1  H26C14100   2.763   4.267  14.133  3.0100 -0.2998  0.3790
  106CHL1   C2714101   2.724   4.612  14.075 -0.9003  0.3921  0.7684
  106CHL1  H27A14102   2.626   4.607  14.023 -0.1343  2.1268 -1.0080
  106CHL1  H27B14103   2.714   4.701  14.141 -1.0429 -0.4216  1.8643
  106CHL1  H27C14104   2.805   4.620  13.999 -1.3890 -1.0582  0.0736
  107CHL1    C314105   3.519   7.513  15.558  0.5294  0.0313 -0.0512
  107CHL1    H314106   3.465   7.592  15.502  0.8778  0.3054 -0.0072
  107CHL1    O314107   3.471   7.506  15.688 -0.0423 -0.2502 -0.7473
  107CHL1   H3'14108   3.534   7.439  15.717 -1.4594 -0.9291  0.9269
  107CHL1    C414109   3.514   7.380  15.481 -0.6067  0.5673 -0.2610
  107CHL1   H4A14110   3.578   7.307  15.535 -0.6978 -0.2676 -1.2555
  107CHL1   H4B14111   3.408   7.346  15.491 -0.6218  0.8202  0.5479
  107CHL1    C514112   3.564   7.388  15.339  0.5286  0.0134 -0.3418
  107CHL1    C614113   3.485   7.340  15.237  0.1169 -0.0331  0.1066
  107CHL1    H614114   3.393   7.282  15.257 -0.1740  0.2801 -0.3140
  107CHL1    C714115   3.530   7.365  15.101  0.3671  0.1606  0.4451
  107CHL1   H7A14116   3.512   7.277  15.036 -0.7385  0.1889  0.6948
  107CHL1   H7B14117   3.462   7.440  15.056 -0.3059 -0.3661  0.5658
  107CHL1    C814118   3.679   7.409  15.080  0.2272  0.0189  0.2552
  107CHL1    H814119   3.744   7.319  15.084 -0.7560 -0.8414 -1.8926
  107CHL1   C1414120   3.703   7.472  14.941 -0.3645 -0.4210  0.0447
  107CHL1   H1414121   3.627   7.553  14.934 -1.7101 -1.7588 -1.5718
  107CHL1   C1514122   3.665   7.391  14.815 -0.2546  0.6446 -0.0733
  107CHL1  H15A14123   3.708   7.291  14.832  1.3762  0.7079 -3.0275
  107CHL1  H15B14124   3.554   7.391  14.802  0.0058  1.0546 -3.3336
  107CHL1   C1614125   3.734   7.461  14.701 -1.1419  0.3777 -0.4816
  107CHL1  H16A14126   3.793   7.391  14.638  0.4247  0.1183  1.1956
  107CHL1  H16B14127   3.662   7.524  14.644 -2.5181  1.3699  2.1677
  107CHL1   C1714128   3.832   7.566  14.764 -0.2378 -0.0198 -0.2363
  107CHL1   H1714129   3.777   7.663  14.764 -0.5689 -0.2066  0.3798
  107CHL1   C1314130   3.841   7.519  14.915  0.0231 -0.0684  0.2748
  107CHL1   C1814131   3.939   7.398  14.929  0.2270 -0.0878 -0.0832
  107CHL1  H18A14132   3.950   7.344  15.026 -0.4496 -1.6015 -0.8176
  107CHL1  H18B14133   3.909   7.328  14.848 -0.9898  0.5566 -0.2143
  107CHL1  H18C14134   4.042   7.430  14.902  1.2769 -0.4061  3.0776
  107CHL1   C1214135   3.870   7.622  15.019  0.0708 -0.3115  0.0003
  107CHL1  H12A14136   3.977   7.647  15.006 -0.3528  1.8042  0.2286
  107CHL1  H12B14137   3.808   7.711  14.997 -2.6535 -2.4706 -1.9203
  107CHL1   C1114138   3.853   7.567  15.158  0.2048 -0.5479  0.1981
  107CHL1  H11A14139   3.931   7.492  15.184 -0.5755 -1.8931 -1.1644
  107CHL1  H11B14140   3.871   7.650  15.230 -1.2170 -0.4233  0.4231
  107CHL1    C914141   3.713   7.511  15.184  0.0754 -0.7627 -0.5971
  107CHL1    H914142   3.642   7.593  15.160 -0.6918 -1.3739 -0.4601
  107CHL1   C1014143   3.694   7.476  15.327 -1.1945  0.3781 -0.5872
  107CHL1   C1914144   3.806   7.369  15.363 -0.5892  0.2625  0.0685
  107CHL1  H19A14145   3.796   7.323  15.464 -0.3176 -1.6380 -0.7359
  107CHL1  H19B14146   3.812   7.289  15.286  0.4773  1.7815 -1.4852
  107CHL1  H19C14147   3.903   7.422  15.372 -0.6314  0.1131  1.7027
  107CHL1    C114148   3.712   7.595  15.422  0.3048 -0.7069  0.3518
  107CHL1   H1A14149   3.817   7.629  15.425 -0.3158  1.3718  0.0195
  107CHL1   H1B14150   3.655   7.682  15.381  1.4247  0.7908  1.8633
  107CHL1    C214151   3.665   7.567  15.558  0.7975 -0.2912  0.0649
  107CHL1   H2A14152   3.663   7.665  15.610 -2.3595 -0.3915  0.2963
  107CHL1   H2B14153   3.730   7.495  15.612  0.1550 -0.3013  0.8411
  107CHL1   C2014154   3.961   7.585  14.677 -0.7805  0.1513 -0.1834
  107CHL1   H2014155   4.022   7.493  14.664 -0.8328  0.0626  0.1849
  107CHL1   C2114156   4.039   7.706  14.734 -0.0192 -0.1933 -0.1366
  107CHL1  H21A14157   4.127   7.733  14.672 -0.3194 -1.0925 -0.9756
  107CHL1  H21B14158   4.071   7.674  14.836 -0.0104 -0.6699 -0.2864
  107CHL1  H21C14159   3.969   7.791  14.745 -0.2552 -0.1997 -1.4503
  107CHL1   C2214160   3.947   7.610  14.526 -0.5662  0.0308 -0.2215
  107CHL1  H22A14161   3.883   7.524  14.497  1.5671 -2.2404  1.3149
  107CHL1  H22B14162   3.887   7.701  14.506  0.4024  0.6686 -0.3229
  107CHL1   C2314163   4.078   7.601  14.445 -0.5426 -0.2351  0.2170
  107CHL1  H23A14164   4.158   7.671  14.478 -1.6001  1.3304 -0.4201
  107CHL1  H23B14165   4.124   7.501  14.461 -0.0679 -0.1394 -0.5191
  107CHL1   C2414166   4.056   7.618  14.302 -1.0465 -0.6746  0.4349
  107CHL1  H24A14167   3.996   7.534  14.262  0.6282 -0.8459 -1.9151
  107CHL1  H24B14168   3.999   7.713  14.289  1.7081  0.9493 -0.5885
  107CHL1   C2514169   4.184   7.629  14.207  0.1995 -0.0792  0.3143
  107CHL1   H2514170   4.253   7.543  14.222 -0.7547 -0.6066  1.9085
  107CHL1   C2614171   4.131   7.633  14.057 -0.2411 -0.3672 -0.1547
  107CHL1  H26A14172   4.066   7.722  14.050  1.4903  0.9226 -0.4646
  107CHL1  H26B14173   4.215   7.660  13.991  1.1824  0.5317  1.9221
  107CHL1  H26C14174   4.084   7.534  14.036 -2.4786  0.8078 -0.9934
  107CHL1   C2714175   4.255   7.764  14.240  0.2487  0.1826 -0.4369
  107CHL1  H27A14176   4.275   7.782  14.348 -0.5669  2.0064 -0.5514
  107CHL1  H27B14177   4.348   7.757  14.179  2.4859  1.8859  2.5072
  107CHL1  H27C14178   4.204   7.853  14.198 -0.5540 -0.4304 -0.7941
  108CHL1    C314179   6.293   2.257  15.667 -0.0905  0.0978  0.2062
  108CHL1    H314180   6.360   2.343  15.652 -1.1881  0.9451  0.0308
  108CHL1    O314181   6.337   2.177  15.777 -0.1693  0.0667  0.1887
  108CHL1   H3'14182   6.302   2.088  15.769  0.7964 -0.2831 -0.2372
  108CHL1    C414183   6.160   2.323  15.690 -0.2242 -0.6741  0.4267
  108CHL1   H4A14184   6.090   2.246  15.726 -0.1281 -1.5378 -1.1328
  108CHL1   H4B14185   6.172   2.394  15.775  1.4988 -1.6443  1.0406
  108CHL1    C514186   6.096   2.390  15.565 -0.4861  0.4011  0.4226
  108CHL1    C614187   6.063   2.523  15.565  0.8740 -0.0473  0.8390
  108CHL1    H614188   6.084   2.587  15.652  1.4011  0.3046  0.4646
  108CHL1    C714189   6.006   2.601  15.441 -0.1097  0.9093 -0.3329
  108CHL1   H7A14190   5.913   2.654  15.469  0.7695  2.1067  0.4012
  108CHL1   H7B14191   6.081   2.672  15.401  3.2799 -1.8243  0.6046
  108CHL1    C814192   5.977   2.503  15.313 -0.2390  0.1293  0.4823
  108CHL1    H814193   5.881   2.456  15.344  0.3205  0.9533  3.8658
  108CHL1   C1414194   5.956   2.585  15.186 -0.3950  0.0223  0.2204
  108CHL1   H1414195   6.052   2.639  15.168 -0.6662  0.7503  0.8904
  108CHL1   C1514196   5.859   2.704  15.189  0.2472 -0.2727  0.5122
  108CHL1  H15A14197   5.760   2.685  15.236 -0.7874  2.6200 -0.3064
  108CHL1  H15B14198   5.893   2.795  15.243  2.8703 -0.6817 -0.3127
  108CHL1   C1614199   5.840   2.739  15.041 -0.8347 -0.2405  0.5532
  108CHL1  H16A14200   5.733   2.746  15.014 -0.0051 -0.3766 -3.3189
  108CHL1  H16B14201   5.890   2.835  15.018  0.3973 -0.7680  0.9042
  108CHL1   C1714202   5.913   2.628  14.957  0.0140  0.2141 -0.1388
  108CHL1   H1714203   6.017   2.660  14.937  0.2344 -0.9111 -0.8446
  108CHL1   C1314204   5.923   2.510  15.058 -0.5901 -0.3417  0.0806
  108CHL1   C1814205   5.788   2.445  15.081  0.1731 -0.3491  1.1483
  108CHL1  H18A14206   5.796   2.373  15.166  0.2426  0.2264  1.6330
  108CHL1  H18B14207   5.699   2.510  15.096 -0.6628 -1.2061  0.1011
  108CHL1  H18C14208   5.760   2.389  14.989 -0.6638 -0.2311  1.3268
  108CHL1   C1214209   6.034   2.406  15.038 -0.4195 -0.3371 -0.1035
  108CHL1  H12A14210   6.007   2.341  14.952 -0.5798  0.9375 -1.0398
  108CHL1  H12B14211   6.117   2.477  15.019 -2.0810  2.0611  1.0286
  108CHL1   C1114212   6.058   2.317  15.163  0.7837 -0.2088  0.0889
  108CHL1  H11A14213   5.968   2.252  15.175  1.5236 -0.9106  2.3746
  108CHL1  H11B14214   6.140   2.242  15.158 -0.9222 -2.4272  2.5543
  108CHL1    C914215   6.088   2.398  15.295  0.3856 -0.2417  0.1051
  108CHL1    H914216   6.188   2.445  15.284  0.4090  0.2664  2.1427
  108CHL1   C1014217   6.100   2.310  15.434 -0.4424 -0.0241 -0.2339
  108CHL1   C1914218   5.986   2.205  15.453  0.9788 -0.2794  0.6526
  108CHL1  H19A14219   6.001   2.135  15.538  0.2111 -0.9261  0.2756
  108CHL1  H19B14220   5.893   2.266  15.466  0.1264 -1.3588 -0.1600
  108CHL1  H19C14221   5.972   2.142  15.363 -0.7659 -1.7536  1.8649
  108CHL1    C114222   6.238   2.245  15.419  0.2336  0.2425 -1.0862
  108CHL1   H1A14223   6.228   2.153  15.357 -0.7947 -0.1583 -0.3686
  108CHL1   H1B14224   6.313   2.323  15.395  1.1185 -0.0569  0.5688
  108CHL1    C214225   6.293   2.171  15.542  0.3789  0.0343  0.1520
  108CHL1   H2A14226   6.395   2.132  15.522 -0.2433 -0.6627 -1.8881
  108CHL1   H2B14227   6.220   2.091  15.566 -1.7604  2.3402  1.9479
  108CHL1   C2014228   5.852   2.604  14.812  0.8754  0.0924  0.0594
  108CHL1   H2014229   5.759   2.545  14.827  0.4418  0.8159  0.2272
  108CHL1   C2114230   5.948   2.512  14.733 -0.3027  0.2778 -0.0991
  108CHL1  H21A14231   6.056   2.537  14.741 -0.4010  0.7293 -0.1427
  108CHL1  H21B14232   5.915   2.517  14.627 -3.6170  0.2178  0.8030
  108CHL1  H21C14233   5.937   2.407  14.768  1.1107 -0.1023 -0.7143
  108CHL1   C2214234   5.816   2.740  14.742 -0.2195  0.1621 -0.2002
  108CHL1  H22A14235   5.769   2.721  14.643 -1.3454 -0.5413  0.4411
  108CHL1  H22B14236   5.736   2.784  14.805  1.4340  0.6183  1.7025
  108CHL1   C2314237   5.936   2.832  14.715 -0.4081  0.7875 -0.7209
  108CHL1  H23A14238   5.989   2.869  14.805 -0.2328 -2.2124  0.4914
  108CHL1  H23B14239   6.006   2.773  14.653 -1.9112 -0.0359 -1.6964
  108CHL1   C2414240   5.902   2.953  14.621 -0.2065 -0.3824 -0.0961
  108CHL1  H24A14241   5.832   2.924  14.539  0.9818 -0.5540 -1.0874
  108CHL1  H24B14242   5.841   3.022  14.682 -0.4282 -1.1908  0.6237
  108CHL1   C2514243   6.030   3.015  14.562  0.5742  0.0577  0.2108
  108CHL1   H2514244   6.089   2.930  14.521 -0.7019 -1.0083  0.5506
  108CHL1   C2614245   5.996   3.113  14.449 -0.2181  0.6225 -0.1087
  108CHL1  H26A14246   5.900   3.161  14.478 -1.1335  0.4587 -2.6545
  108CHL1  H26B14247   6.081   3.177  14.417 -0.7009  0.1229 -2.5755
  108CHL1  H26C14248   5.974   3.055  14.358 -2.9283  1.7093 -0.2385
  108CHL1   C2714249   6.105   3.090  14.671  0.0697  0.0799  0.2778
  108CHL1  H27A14250   6.033   3.146  14.734 -1.7099  0.8519 -2.2489
  108CHL1  H27B14251   6.158   3.020  14.739 -2.2534 -1.6470  0.4476
  108CHL1  H27C14252   6.173   3.161  14.620 -0.5261  1.6098  1.5399
  109CHL1    C314253   3.113   0.018  15.185  0.1772  0.0158 -0.0731
  109CHL1    H314254   3.135   0.102  15.116 -0.5468 -0.9083 -1.4677
  109CHL1    O314255   3.127   0.065  15.319  0.0036 -0.1645  0.1200
  109CHL1   H3'14256   3.173   0.148  15.302 -0.6712 -0.4270 -3.9456
  109CHL1    C414257   2.972  -0.036  15.154 -0.0814  0.0142 -0.1775
  109CHL1   H4A14258   2.945  -0.124  15.216 -1.1359  0.2488 -0.2898
  109CHL1   H4B14259   2.906   0.050  15.179  1.5527  1.4720 -0.6871
  109CHL1    C514260   2.952  -0.068  15.011 -0.4434  0.1052 -0.3809
  109CHL1    C614261   2.862  -0.012  14.930 -0.0216 -0.7214  0.3358
  109CHL1    H614262   2.789   0.059  14.971  1.3531  1.0805 -0.1923
  109CHL1    C714263   2.842  -0.048  14.789 -0.3316  0.6852 -1.1938
  109CHL1   H7A14264   2.736  -0.077  14.772 -1.1246  0.5854  2.8110
  109CHL1   H7B14265   2.877   0.040  14.731 -0.0816  2.4181  1.4249
  109CHL1    C814266   2.932  -0.173  14.738  0.7927  0.5837 -0.1231
  109CHL1    H814267   2.868  -0.261  14.759  0.8291  0.6604  0.3247
  109CHL1   C1414268   2.956  -0.158  14.593 -0.3617  0.3031 -0.7883
  109CHL1   H1414269   3.015  -0.065  14.580 -0.5134  0.5505  0.2179
  109CHL1   C1514270   2.829  -0.125  14.501 -1.4324  0.3185  0.4622
  109CHL1  H15A14271   2.736  -0.177  14.531 -0.5649 -0.2553  2.3199
  109CHL1  H15B14272   2.821  -0.015  14.513 -0.3686  0.4259  0.2768
  109CHL1   C1614273   2.883  -0.171  14.365  0.0641 -0.1674  0.6815
  109CHL1  H16A14274   2.823  -0.257  14.327  0.4918  0.0269 -0.4500
  109CHL1  H16B14275   2.879  -0.083  14.298  0.7232 -1.9271 -1.8246
  109CHL1   C1714276   3.030  -0.231  14.381 -0.5747 -0.0230 -0.1477
  109CHL1   H1714277   3.104  -0.148  14.377  1.4980 -1.7574  0.3938
  109CHL1   C1314278   3.029  -0.274  14.528 -1.0382  0.5093  0.2625
  109CHL1   C1814279   2.948  -0.410  14.540  0.3554  0.6295 -0.3308
  109CHL1  H18A14280   2.854  -0.406  14.482  0.3824  0.8058 -0.3605
  109CHL1  H18B14281   3.004  -0.487  14.483 -1.5277 -1.0432 -0.0327
  109CHL1  H18C14282   2.936  -0.450  14.644 -0.6927 -1.8990 -1.3441
  109CHL1   C1214283   3.168  -0.283  14.598  0.5408  0.0955  0.1937
  109CHL1  H12A14284   3.233  -0.361  14.552  1.4049  0.3483  0.9611
  109CHL1  H12B14285   3.225  -0.189  14.584  1.2629 -0.4585 -0.7354
  109CHL1   C1114286   3.162  -0.297  14.752  0.3919  0.0854 -0.3737
  109CHL1  H11A14287   3.102  -0.389  14.769 -0.8960  0.5344 -2.1415
  109CHL1  H11B14288   3.259  -0.312  14.803  0.2577  2.3105  0.6334
  109CHL1    C914289   3.071  -0.180  14.808 -0.0114  0.3569 -0.5636
  109CHL1    H914290   3.120  -0.090  14.765  0.3926  0.1349 -0.5762
  109CHL1   C1014291   3.063  -0.179  14.965  0.5054 -1.1542  0.4928
  109CHL1   C1914292   3.028  -0.320  15.010  0.1498 -0.4169 -0.0023
  109CHL1  H19A14293   3.006  -0.323  15.119  0.3710 -0.5352  0.0392
  109CHL1  H19B14294   2.938  -0.368  14.965  0.3767  0.2554 -1.2119
  109CHL1  H19C14295   3.109  -0.394  14.994 -2.0144 -3.2151  1.0547
  109CHL1    C114296   3.205  -0.140  15.023 -0.0479  0.7275 -0.0491
  109CHL1   H1A14297   3.265  -0.233  15.016  1.3281  1.6061 -0.1690
  109CHL1   H1B14298   3.249  -0.057  14.965 -0.3678  1.7874  1.1633
  109CHL1    C214299   3.214  -0.094  15.173 -0.3550  0.3815 -0.3380
  109CHL1   H2A14300   3.320  -0.066  15.186 -0.0627  0.1414 -1.9398
  109CHL1   H2B14301   3.191  -0.176  15.244 -2.0740  0.3591 -0.8712
  109CHL1   C2014302   3.073  -0.325  14.270  0.0578 -0.2695 -0.0912
  109CHL1   H2014303   3.013  -0.418  14.277 -0.6154  0.2979  2.7384
  109CHL1   C2114304   3.218  -0.360  14.277  0.3063 -0.2598  0.0785
  109CHL1  H21A14305   3.286  -0.284  14.321  0.0595 -0.6949  1.2440
  109CHL1  H21B14306   3.268  -0.388  14.181 -0.4851 -1.9233  0.1246
  109CHL1  H21C14307   3.233  -0.442  14.350  1.9083  0.1290  0.2270
  109CHL1   C2214308   3.052  -0.256  14.129  0.1810  0.4815  0.5770
  109CHL1  H22A14309   3.062  -0.339  14.057 -0.4353  0.0100  1.0192
  109CHL1  H22B14310   2.951  -0.208  14.127  0.1442  0.3830  0.0178
  109CHL1   C2314311   3.155  -0.152  14.090 -0.6588 -0.2815  0.0545
  109CHL1  H23A14312   3.174  -0.071  14.164  1.0377 -1.1656  0.6289
  109CHL1  H23B14313   3.250  -0.205  14.067  0.5746  1.4636  0.9227
  109CHL1   C2414314   3.116  -0.078  13.961  0.1983  0.0966 -0.0594
  109CHL1  H24A14315   3.022  -0.029  13.996  0.6359  0.6499  0.3568
  109CHL1  H24B14316   3.188   0.005  13.942 -2.2470  2.9199  1.9641
  109CHL1   C2514317   3.105  -0.160  13.840 -0.2435 -0.4868  0.6013
  109CHL1   H2514318   3.037  -0.248  13.847  0.7374 -1.3072  0.1375
  109CHL1   C2614319   3.032  -0.082  13.726  0.2496 -0.0658  0.0783
  109CHL1  H26A14320   2.992  -0.147  13.645  0.9614 -1.0608  0.5084
  109CHL1  H26B14321   2.941  -0.037  13.772 -0.1304  0.6388 -1.3204
  109CHL1  H26C14322   3.097  -0.001  13.686  1.2640 -0.6990  0.4144
  109CHL1   C2714323   3.237  -0.242  13.801 -0.4413 -0.0181  0.1110
  109CHL1  H27A14324   3.241  -0.266  13.693  1.9289 -2.6533  0.6622
  109CHL1  H27B14325   3.327  -0.179  13.821  0.2221 -1.1575  0.8043
  109CHL1  H27C14326   3.244  -0.336  13.859 -2.0373 -1.3073 -1.6559
  110CHL1    C314327   0.625   5.350  15.241  0.2895  0.3700 -0.8933
  110CHL1    H314328   0.606   5.459  15.230  0.8407  0.3988 -1.6542
  110CHL1    O314329   0.682   5.318  15.369 -1.0240  0.4342 -0.2509
  110CHL1   H3'14330   0.761   5.372  15.370 -0.2488 -0.6520 -0.9984
  110CHL1    C414331   0.497   5.266  15.216 -0.1354 -0.1861 -0.5009
  110CHL1   H4A14332   0.518   5.162  15.249 -1.2868 -0.2711  0.0435
  110CHL1   H4B14333   0.418   5.294  15.289 -1.6964  0.6145 -2.3965
  110CHL1    C514334   0.434   5.282  15.073 -0.1536  0.0594 -1.0617
  110CHL1    C614335   0.311   5.328  15.048 -0.0365  0.2204 -0.7421
  110CHL1    H614336   0.247   5.345  15.136 -1.0465 -1.3866 -1.1257
  110CHL1    C714337   0.256   5.336  14.904  0.5358 -0.2745 -0.1641
  110CHL1   H7A14338   0.157   5.286  14.897 -0.4464  1.6509 -0.7860
  110CHL1   H7B14339   0.230   5.442  14.886  0.2142  0.1337  2.3202
  110CHL1    C814340   0.353   5.285  14.793  0.1420  0.1526 -0.7437
  110CHL1    H814341   0.335   5.176  14.808 -0.7013  0.6168  2.1387
  110CHL1   C1414342   0.312   5.340  14.657  0.4616 -0.6609  0.6931
  110CHL1   H1414343   0.333   5.448  14.642 -1.2404 -0.5826 -1.7814
  110CHL1   C1514344   0.169   5.332  14.615 -0.3564  0.4475  0.3279
  110CHL1  H15A14345   0.130   5.233  14.647 -1.5671  0.6044 -0.5907
  110CHL1  H15B14346   0.104   5.410  14.662  1.1056  1.0308  1.4492
  110CHL1   C1614347   0.172   5.353  14.458 -0.2890  0.1583 -0.1588
  110CHL1  H16A14348   0.125   5.265  14.407  1.3203  1.1283 -3.6218
  110CHL1  H16B14349   0.109   5.436  14.421 -1.6212  0.0070  1.6183
  110CHL1   C1714350   0.322   5.360  14.420 -0.4315  0.1325  0.2279
  110CHL1   H1714351   0.357   5.466  14.421 -1.5335  0.5521  2.5305
  110CHL1   C1314352   0.404   5.296  14.539 -0.1404 -0.2757  0.0650
  110CHL1   C1814353   0.396   5.141  14.528  0.4182  0.5391 -0.1332
  110CHL1  H18A14354   0.456   5.093  14.448 -1.6643 -1.7610 -0.4433
  110CHL1  H18B14355   0.432   5.092  14.622 -0.7808 -1.2281 -0.5339
  110CHL1  H18C14356   0.289   5.122  14.505  0.3572 -0.6891  1.0217
  110CHL1   C1214357   0.552   5.339  14.571 -0.2254 -0.9488  0.2649
  110CHL1  H12A14358   0.625   5.308  14.493 -0.7645 -1.8354  0.0976
  110CHL1  H12B14359   0.561   5.449  14.574  0.4003 -0.9257 -1.1778
  110CHL1   C1114360   0.599   5.275  14.707 -0.2062  0.2830  1.1657
  110CHL1  H11A14361   0.614   5.166  14.688  2.3243  1.1288 -2.9744
  110CHL1  H11B14362   0.700   5.317  14.729  1.3946 -2.6256 -0.0252
  110CHL1    C914363   0.501   5.314  14.821  0.4449  0.0312  0.4930
  110CHL1    H914364   0.495   5.424  14.827  0.2235  0.0541 -0.0543
  110CHL1   C1014365   0.544   5.265  14.964 -0.2090 -0.3685 -0.9771
  110CHL1   C1914366   0.581   5.116  14.956  0.0208 -0.1456  0.0271
  110CHL1  H19A14367   0.511   5.066  14.885  0.9393  1.3905 -2.0312
  110CHL1  H19B14368   0.683   5.088  14.922  0.0798 -0.0979  0.1616
  110CHL1  H19C14369   0.581   5.062  15.053  2.6314 -0.6673 -0.1871
  110CHL1    C114370   0.671   5.347  15.004 -0.2766 -0.4766  1.1022
  110CHL1   H1A14371   0.751   5.317  14.934 -0.1073  3.5609 -0.7001
  110CHL1   H1B14372   0.659   5.455  14.982  1.2354 -0.4668  0.1820
  110CHL1    C214373   0.721   5.314  15.138 -0.1002 -0.0753 -0.1749
  110CHL1   H2A14374   0.814   5.370  15.158 -0.9920  1.7199 -0.8035
  110CHL1   H2B14375   0.747   5.206  15.142 -0.6290 -0.2824 -1.5364
  110CHL1   C2014376   0.357   5.301  14.280  0.5650  0.1253 -0.0698
  110CHL1   H2014377   0.362   5.190  14.285  3.2664  0.2280  1.4053
  110CHL1   C2114378   0.495   5.343  14.227 -0.3568  0.4406 -0.0971
  110CHL1  H21A14379   0.580   5.291  14.276  0.2862 -0.1477 -1.7394
  110CHL1  H21B14380   0.516   5.452  14.221 -1.9247  0.7964  0.4895
  110CHL1  H21C14381   0.516   5.293  14.129 -0.7236 -1.1657  0.6006
  110CHL1   C2214382   0.243   5.321  14.173  0.0209  0.7440 -0.1481
  110CHL1  H22A14383   0.279   5.267  14.083  0.3426  0.1411  0.3412
  110CHL1  H22B14384   0.145   5.283  14.208  0.0897  0.2847 -0.4538
  110CHL1   C2314385   0.227   5.462  14.118 -0.0276  0.4315 -0.2699
  110CHL1  H23A14386   0.228   5.531  14.205 -0.3766  0.3877 -0.2300
  110CHL1  H23B14387   0.318   5.499  14.066 -1.1406  1.9839 -1.2163
  110CHL1   C2414388   0.098   5.500  14.032 -0.0476  0.5134 -0.2097
  110CHL1  H24A14389   0.103   5.446  13.935  2.3339 -0.2379  0.2374
  110CHL1  H24B14390   0.006   5.461  14.079 -0.1356  0.2511 -0.5894
  110CHL1   C2514391   0.088   5.649  14.004  0.1462  0.2293  0.8369
  110CHL1   H2514392   0.093   5.703  14.101  1.3735  0.1000  0.8626
  110CHL1   C2614393   0.209   5.705  13.928 -0.2234 -0.1849 -0.0581
  110CHL1  H26A14394   0.223   5.650  13.833 -1.6198 -0.4169 -0.1548
  110CHL1  H26B14395   0.181   5.809  13.898 -0.8513  0.2606  1.9186
  110CHL1  H26C14396   0.299   5.713  13.992 -0.4766 -0.4524  0.3398
  110CHL1   C2714397  -0.044   5.684  13.935  0.2359  0.5234 -0.0272
  110CHL1  H27A14398  -0.066   5.792  13.953 -0.0860  0.1726  1.9888
  110CHL1  H27B14399  -0.032   5.666  13.826  0.4137 -0.0306  0.0839
  110CHL1  H27C14400  -0.124   5.618  13.973  1.3491  0.0732  1.6306
  111CHL1    C314401   3.500   0.155  15.103 -0.0538 -0.1082  0.1361
  111CHL1    H314402   3.391   0.158  15.080  0.1610 -0.6942 -1.0208
  111CHL1    O314403   3.527   0.143  15.244 -0.3582 -0.4044  0.0916
  111CHL1   H3'14404   3.623   0.138  15.246 -0.3250 -0.5854 -1.2164
  111CHL1    C414405   3.560   0.032  15.031  0.3858  1.2645  0.4760
  111CHL1   H4A14406   3.670   0.021  15.045  0.4960  1.2782 -0.2857
  111CHL1   H4B14407   3.518  -0.060  15.075  1.2748 -0.3375 -1.8511
  111CHL1    C514408   3.547   0.039  14.877  0.4969 -0.0372  0.4181
  111CHL1    C614409   3.491  -0.057  14.806  0.4413  0.3936  1.0515
  111CHL1    H614410   3.454  -0.148  14.856 -0.0941 -0.5441 -0.9582
  111CHL1    C714411   3.479  -0.048  14.657  0.5379 -0.4915  0.3733
  111CHL1   H7A14412   3.507  -0.142  14.605 -1.8861 -0.4467 -1.1786
  111CHL1   H7B14413   3.372  -0.042  14.626  1.5170  0.8840 -3.1869
  111CHL1    C814414   3.556   0.066  14.589 -0.2343  0.2746 -0.3259
  111CHL1    H814415   3.664   0.039  14.589  0.3234  2.2115 -2.5912
  111CHL1   C1414416   3.513   0.081  14.453  0.8788  0.2019 -0.2066
  111CHL1   H1414417   3.410   0.125  14.456  0.6570 -0.0378 -2.4932
  111CHL1   C1514418   3.509  -0.048  14.359 -0.6357  0.4797  0.2526
  111CHL1  H15A14419   3.609  -0.096  14.367 -0.4254  0.5556 -1.5378
  111CHL1  H15B14420   3.425  -0.112  14.393  1.6628 -0.7721  4.2688
  111CHL1   C1614421   3.498   0.014  14.218 -0.5455  0.1761 -0.1409
  111CHL1  H16A14422   3.589  -0.024  14.169 -1.8276  0.2710 -2.7710
  111CHL1  H16B14423   3.410  -0.026  14.164  0.8634 -1.4716 -1.2760
  111CHL1   C1714424   3.513   0.169  14.233 -0.4565 -0.4981  0.1944
  111CHL1   H1714425   3.406   0.197  14.247 -1.1767 -1.1760 -3.0673
  111CHL1   C1314426   3.585   0.186  14.373  0.5301 -0.4744  0.1227
  111CHL1   C1814427   3.731   0.159  14.362 -0.1766  0.6647 -0.3144
  111CHL1  H18A14428   3.778   0.250  14.321 -1.8284  1.0571 -1.4663
  111CHL1  H18B14429   3.774   0.132  14.461 -0.2758  0.4505 -0.3285
  111CHL1  H18C14430   3.771   0.075  14.301 -0.7744 -0.5733  0.9174
  111CHL1   C1214431   3.548   0.316  14.444  0.0206  0.0651 -0.1090
  111CHL1  H12A14432   3.599   0.403  14.399  0.1869 -0.3575 -0.7601
  111CHL1  H12B14433   3.443   0.352  14.432 -0.4929 -1.2439  0.2296
  111CHL1   C1114434   3.586   0.322  14.595  0.7841 -0.3225 -0.1119
  111CHL1  H11A14435   3.697   0.333  14.595  0.6828  1.3418  1.6675
  111CHL1  H11B14436   3.536   0.410  14.642  0.0038 -0.4409 -0.7093
  111CHL1    C914437   3.536   0.194  14.671 -0.0333 -0.4414 -0.3850
  111CHL1    H914438   3.425   0.206  14.669 -0.1656 -1.4714  0.0854
  111CHL1   C1014439   3.590   0.178  14.813  0.2190  0.1720  0.0990
  111CHL1   C1914440   3.745   0.185  14.806  0.2702 -0.2240 -0.2342
  111CHL1  H19A14441   3.770   0.291  14.782 -2.2499  0.4952  0.0415
  111CHL1  H19B14442   3.800   0.157  14.898 -0.5854  0.1920  0.4108
  111CHL1  H19C14443   3.779   0.116  14.726  3.5133  2.0924 -1.0798
  111CHL1    C114444   3.538   0.298  14.900 -0.9937  0.7160  0.1499
  111CHL1   H1A14445   3.587   0.391  14.865 -2.7899  0.6361 -2.9624
  111CHL1   H1B14446   3.430   0.311  14.878 -1.3398  1.0195  1.9074
  111CHL1    C214447   3.563   0.279  15.052 -0.0616 -0.3075  0.1599
  111CHL1   H2A14448   3.511   0.366  15.096  1.8195  1.5554 -1.1218
  111CHL1   H2B14449   3.666   0.297  15.090 -0.7088  0.0140  1.8474
  111CHL1   C2014450   3.562   0.254  14.114  0.0922 -0.0237  0.2608
  111CHL1   H2014451   3.669   0.274  14.138 -0.0146 -1.5574  2.2211
  111CHL1   C2114452   3.481   0.381  14.103  0.5030  0.2095 -0.2745
  111CHL1  H21A14453   3.523   0.448  14.025 -1.2623  1.4977 -0.1816
  111CHL1  H21B14454   3.477   0.429  14.204  2.8502 -1.7374  0.8395
  111CHL1  H21C14455   3.381   0.364  14.059 -0.1031  1.8979  0.3293
  111CHL1   C2214456   3.553   0.177  13.980  0.2066  0.5277  0.1662
  111CHL1  H22A14457   3.614   0.086  13.997  0.1165  0.5346  0.5387
  111CHL1  H22B14458   3.450   0.142  13.961  0.2459 -0.5342  1.7445
  111CHL1   C2314459   3.608   0.257  13.858  0.0880 -0.3359  0.0011
  111CHL1  H23A14460   3.536   0.338  13.838  1.2294  0.1483 -2.4281
  111CHL1  H23B14461   3.695   0.314  13.897  0.3712 -0.6051 -0.2353
  111CHL1   C2414462   3.662   0.188  13.733 -0.0631 -0.2625 -0.7731
  111CHL1  H24A14463   3.713   0.260  13.665  0.5192 -0.7995 -0.9078
  111CHL1  H24B14464   3.740   0.114  13.761  2.3142  2.3924  0.1071
  111CHL1   C2514465   3.556   0.119  13.649  0.0037  0.5358  0.0601
  111CHL1   H2514466   3.532   0.026  13.706  1.4155 -0.2645 -0.6030
  111CHL1   C2614467   3.426   0.201  13.622 -0.3669  0.0818 -0.3368
  111CHL1  H26A14468   3.446   0.309  13.607  0.9083 -0.0107  0.5263
  111CHL1  H26B14469   3.358   0.173  13.539  1.7116 -0.9506 -1.8084
  111CHL1  H26C14470   3.362   0.198  13.713  0.1739  4.5121  0.4234
  111CHL1   C2714471   3.616   0.085  13.509 -0.0084 -0.1315 -0.6276
  111CHL1  H27A14472   3.621   0.174  13.444  2.6317 -0.9158 -1.5970
  111CHL1  H27B14473   3.719   0.044  13.510  0.9073  1.9578 -2.1824
  111CHL1  H27C14474   3.548   0.011  13.461  1.8121 -1.4629 -1.2874
  112CHL1    C314475   4.815   0.676  15.597  0.4824  0.5903 -0.3225
  112CHL1    H314476   4.781   0.777  15.627 -0.3564  0.3079 -0.2895
  112CHL1    O314477   4.857   0.602  15.713  0.0934  0.3255 -0.1745
  112CHL1   H3'14478   4.947   0.633  15.724  0.3162  0.0367 -1.0661
  112CHL1    C414479   4.701   0.599  15.539  0.3275 -0.0474 -0.2258
  112CHL1   H4A14480   4.736   0.496  15.516  0.0420  0.0947 -1.3930
  112CHL1   H4B14481   4.613   0.579  15.604 -0.0483  0.5335 -0.5457
  112CHL1    C514482   4.654   0.657  15.402 -0.3683 -0.1626 -0.5394
  112CHL1    C614483   4.534   0.723  15.388 -0.0179 -0.1361  0.2618
  112CHL1    H614484   4.469   0.743  15.475 -0.9338 -0.0866 -0.4116
  112CHL1    C714485   4.484   0.780  15.257 -0.1635  0.0787  0.0791
  112CHL1   H7A14486   4.376   0.753  15.252 -0.3525 -0.5015  4.0437
  112CHL1   H7B14487   4.472   0.890  15.255 -0.3842  0.0481 -0.6453
  112CHL1    C814488   4.566   0.721  15.144  0.4185  0.1991  0.3197
  112CHL1    H814489   4.540   0.613  15.137 -0.6277  0.3850  1.0805
  112CHL1   C1414490   4.527   0.796  15.024  0.1401  0.1205  0.6909
  112CHL1   H1414491   4.567   0.896  15.050 -0.6651 -0.0343  2.6394
  112CHL1   C1514492   4.378   0.815  14.998  0.0440 -0.2213  0.0321
  112CHL1  H15A14493   4.320   0.725  15.029  1.9143 -1.6017 -0.2969
  112CHL1  H15B14494   4.336   0.902  15.054 -1.0253  0.9114 -2.3752
  112CHL1   C1614495   4.368   0.854  14.846 -0.2183  0.0204  0.4096
  112CHL1  H16A14496   4.327   0.761  14.799  3.0805 -1.2199 -0.2618
  112CHL1  H16B14497   4.310   0.946  14.824  0.4593  0.5415  0.7621
  112CHL1   C1714498   4.516   0.856  14.795 -0.3842  0.1491 -0.3407
  112CHL1   H1714499   4.571   0.949  14.821 -2.0750  0.5192  2.3157
  112CHL1   C1314500   4.589   0.758  14.886 -0.4217 -0.1623  0.1799
  112CHL1   C1814501   4.563   0.610  14.848 -0.4033 -0.5013  0.0143
  112CHL1  H18A14502   4.456   0.595  14.823 -0.0915 -2.0083 -0.4997
  112CHL1  H18B14503   4.625   0.590  14.758  0.9735 -0.4073  0.9068
  112CHL1  H18C14504   4.589   0.548  14.936  1.2074  0.8648  0.5642
  112CHL1   C1214505   4.738   0.789  14.907  0.9340  0.0352 -0.0966
  112CHL1  H12A14506   4.791   0.744  14.820  0.1715  0.9502 -1.0511
  112CHL1  H12B14507   4.750   0.898  14.920  1.1928 -0.0540  0.4859
  112CHL1   C1114508   4.792   0.713  15.034  0.0601  0.2717 -0.5294
  112CHL1  H11A14509   4.786   0.605  15.011 -1.6498 -0.2477  1.9804
  112CHL1  H11B14510   4.902   0.729  15.045 -0.0539 -0.5588  2.6474
  112CHL1    C914511   4.716   0.734  15.169 -0.5553  0.2659  0.2928
  112CHL1    H914512   4.736   0.836  15.207 -0.8404  0.2101  0.6002
  112CHL1   C1014513   4.765   0.652  15.296 -0.0814 -0.0604 -0.2084
  112CHL1   C1914514   4.797   0.506  15.255 -0.5230 -0.5741 -0.4170
  112CHL1  H19A14515   4.720   0.451  15.198 -1.0495  0.9331 -1.2160
  112CHL1  H19B14516   4.881   0.520  15.184  0.5792 -1.0039  0.7573
  112CHL1  H19C14517   4.834   0.446  15.341 -1.0299 -2.0362 -1.1881
  112CHL1    C114518   4.886   0.732  15.364 -0.4432 -0.3024  0.4379
  112CHL1   H1A14519   4.967   0.718  15.290 -0.7070 -2.0310  0.4218
  112CHL1   H1B14520   4.851   0.837  15.375 -1.3224 -0.7348  2.0702
  112CHL1    C214521   4.933   0.685  15.501  0.3916  0.4235 -0.6867
  112CHL1   H2A14522   5.021   0.742  15.537  1.1102 -0.6049 -0.7588
  112CHL1   H2B14523   4.973   0.583  15.482 -1.8213 -0.7941  0.8132
  112CHL1   C2014524   4.523   0.839  14.636 -0.4844  0.6488 -0.3414
  112CHL1   H2014525   4.489   0.734  14.620 -2.8847  1.1392  1.0902
  112CHL1   C2114526   4.668   0.841  14.582 -0.7692  0.0138 -0.1724
  112CHL1  H21A14527   4.702   0.944  14.605 -1.0598  0.4702 -1.6471
  112CHL1  H21B14528   4.682   0.838  14.471  3.4380  1.6708  0.1043
  112CHL1  H21C14529   4.727   0.763  14.633  0.0017  0.5460 -0.2295
  112CHL1   C2214530   4.428   0.933  14.560  0.0919 -0.3473  0.2639
  112CHL1  H22A14531   4.321   0.918  14.587  0.6884  0.8462  3.8586
  112CHL1  H22B14532   4.457   1.036  14.590  0.9232 -0.7566  0.9136
  112CHL1   C2314533   4.428   0.937  14.406 -0.0381  0.5609 -0.2602
  112CHL1  H23A14534   4.526   0.979  14.375 -0.1559  0.4395 -0.8098
  112CHL1  H23B14535   4.431   0.835  14.363 -2.6120  1.9063 -4.1274
  112CHL1   C2414536   4.308   1.028  14.348  0.0777 -0.4306  0.4254
  112CHL1  H24A14537   4.214   1.023  14.407 -0.8146 -0.9983 -1.0124
  112CHL1  H24B14538   4.341   1.134  14.359 -0.8003 -0.2353  1.3758
  112CHL1   C2514539   4.277   1.011  14.199  0.4397 -0.2059 -0.7029
  112CHL1   H2514540   4.204   1.091  14.174 -0.0634 -0.4648 -0.1030
  112CHL1   C2614541   4.402   1.037  14.113  0.3256 -0.0297 -0.4459
  112CHL1  H26A14542   4.364   1.062  14.011  1.7945  1.9780 -0.5467
  112CHL1  H26B14543   4.450   1.131  14.145 -1.8295  0.7144  0.8224
  112CHL1  H26C14544   4.472   0.951  14.117 -2.8620 -2.8156  0.6385
  112CHL1   C2714545   4.224   0.869  14.175 -0.2020 -0.2949 -0.1819
  112CHL1  H27A14546   4.292   0.784  14.196  1.6971  0.8994 -1.1785
  112CHL1  H27B14547   4.131   0.857  14.235  1.9125 -0.6246  3.3148
  112CHL1  H27C14548   4.203   0.871  14.066  2.0912 -1.0916 -0.7020
  113CHL1    C314549   0.271   5.777  15.326  0.1468 -0.3916 -0.5775
  113CHL1    H314550   0.190   5.852  15.339 -0.1168 -0.6849 -0.5195
  113CHL1    O314551   0.296   5.729  15.453  0.3406 -0.3910 -0.7270
  113CHL1   H3'14552   0.388   5.702  15.455 -0.4002 -3.2226  0.7546
  113CHL1    C414553   0.226   5.664  15.242 -0.1392 -0.3269 -0.3330
  113CHL1   H4A14554   0.302   5.584  15.254 -1.7653 -1.7446  1.0011
  113CHL1   H4B14555   0.131   5.616  15.274 -0.6349  0.4021 -0.6607
  113CHL1    C514556   0.220   5.703  15.095  0.2542 -0.0883  0.2942
  113CHL1    C614557   0.105   5.694  15.028 -0.2593 -0.3640  0.2598
  113CHL1    H614558   0.019   5.647  15.078  0.5093 -0.1270  1.8370
  113CHL1    C714559   0.100   5.726  14.880 -0.1578 -0.6993 -0.3093
  113CHL1   H7A14560   0.040   5.652  14.822 -0.1385 -0.7411 -0.2772
  113CHL1   H7B14561   0.046   5.822  14.864  1.8788  0.3227 -1.3147
  113CHL1    C814562   0.231   5.749  14.811  0.4245  0.3836  0.3904
  113CHL1    H814563   0.285   5.652  14.807  1.4775  0.9805 -0.5276
  113CHL1   C1414564   0.210   5.814  14.676 -0.3885 -0.5947  0.3149
  113CHL1   H1414565   0.169   5.916  14.694  0.2837  0.1633 -2.0044
  113CHL1   C1514566   0.120   5.749  14.575  0.0898  0.1019  0.2124
  113CHL1  H15A14567   0.124   5.638  14.589 -1.2317  0.1947  1.6112
  113CHL1  H15B14568   0.016   5.779  14.598 -0.0690  0.4227 -0.8891
  113CHL1   C1614569   0.176   5.787  14.439  0.3664  0.2733  0.6658
  113CHL1  H16A14570   0.222   5.696  14.394 -0.5338 -0.3090  0.8941
  113CHL1  H16B14571   0.097   5.827  14.372  0.7187 -2.6383 -1.7111
  113CHL1   C1714572   0.286   5.890  14.466 -0.1871 -0.5877  0.3287
  113CHL1   H1714573   0.240   5.990  14.481  1.2663  0.2016 -0.3397
  113CHL1   C1314574   0.345   5.845  14.599 -0.5131  0.0778 -0.1971
  113CHL1   C1814575   0.428   5.710  14.582 -0.1489 -0.1041 -0.1311
  113CHL1  H18A14576   0.518   5.721  14.518  0.0940 -2.9336 -0.3829
  113CHL1  H18B14577   0.459   5.668  14.680 -1.0380  1.1514  0.7257
  113CHL1  H18C14578   0.364   5.632  14.536 -0.7733  0.4055 -0.1349
  113CHL1   C1214579   0.413   5.952  14.681 -0.1397 -0.2851  0.3262
  113CHL1  H12A14580   0.503   5.993  14.631 -1.1528  1.1738 -0.3579
  113CHL1  H12B14581   0.343   6.037  14.680  0.6609  0.4006  1.0952
  113CHL1   C1114582   0.439   5.900  14.826  0.1130 -0.1539  0.5313
  113CHL1  H11A14583   0.513   5.817  14.822  0.5778  0.2954 -2.2895
  113CHL1  H11B14584   0.474   5.989  14.884 -3.1041 -0.0384  2.5789
  113CHL1    C914585   0.314   5.840  14.896  0.7052  0.7012 -0.5920
  113CHL1    H914586   0.253   5.932  14.911  0.0180  0.4914 -1.9320
  113CHL1   C1014587   0.332   5.775  15.039 -0.7637  0.2778  0.1857
  113CHL1   C1914588   0.450   5.673  15.025 -0.1710 -0.0635 -0.3079
  113CHL1  H19A14589   0.543   5.724  14.991  1.0276 -2.4026 -0.7369
  113CHL1  H19B14590   0.469   5.625  15.124  0.4611  0.3261 -0.2366
  113CHL1  H19C14591   0.427   5.594  14.950  2.4215 -0.9740 -0.2380
  113CHL1    C114592   0.382   5.892  15.131 -0.1072 -0.1474  1.5284
  113CHL1   H1A14593   0.471   5.942  15.086 -0.6047 -1.6245 -1.3913
  113CHL1   H1B14594   0.303   5.970  15.132 -0.3440 -0.3284 -0.1528
  113CHL1    C214595   0.403   5.846  15.276 -0.7184 -0.1377  0.0379
  113CHL1   H2A14596   0.427   5.922  15.353 -1.9744 -1.8188  2.2112
  113CHL1   H2B14597   0.482   5.767  15.277  1.1911  1.6754 -0.0232
  113CHL1   C2014598   0.378   5.909  14.336  0.4414  0.5378 -0.1852
  113CHL1   H2014599   0.418   5.808  14.312 -0.3528  0.4068 -0.9818
  113CHL1   C2114600   0.500   6.004  14.362  0.3445 -0.4205 -0.2459
  113CHL1  H21A14601   0.537   6.045  14.265  1.2590 -1.9989 -0.5989
  113CHL1  H21B14602   0.580   5.954  14.420  0.0032  1.1159  1.6442
  113CHL1  H21C14603   0.452   6.094  14.406 -1.9713 -1.9689  0.5853
  113CHL1   C2214604   0.308   5.934  14.210  1.0289  0.3567 -0.1333
  113CHL1  H22A14605   0.376   5.917  14.123 -0.1810  0.1282 -1.0559
  113CHL1  H22B14606   0.223   5.865  14.194 -0.8030  1.9728  1.9144
  113CHL1   C2314607   0.257   6.081  14.194 -0.3494  0.4082 -0.5113
  113CHL1  H23A14608   0.192   6.112  14.278  0.3175  0.1205  0.1266
  113CHL1  H23B14609   0.340   6.155  14.193 -0.7656  0.9999  1.9136
  113CHL1   C2414610   0.188   6.089  14.054  0.2005  1.1786 -0.0830
  113CHL1  H24A14611   0.270   6.076  13.980  2.2688  0.3366  2.2104
  113CHL1  H24B14612   0.108   6.013  14.045  0.3737  0.9771  0.0549
  113CHL1   C2514613   0.112   6.214  14.026 -0.7782  0.2802  0.7934
  113CHL1   H2514614   0.190   6.292  14.008 -0.3886 -0.6478 -2.1286
  113CHL1   C2614615   0.031   6.201  13.894 -0.1686  0.2170 -0.8981
  113CHL1  H26A14616  -0.012   6.298  13.860  1.3242  1.3733  0.3442
  113CHL1  H26B14617   0.082   6.152  13.809  0.3579 -1.2923  0.2532
  113CHL1  H26C14618  -0.054   6.132  13.911  0.8145 -0.9103 -0.4937
  113CHL1   C2714619   0.019   6.258  14.139 -0.1968 -0.5495 -0.2238
  113CHL1  H27A14620  -0.045   6.177  14.181 -2.1176  0.9289 -0.1546
  113CHL1  H27B14621   0.083   6.301  14.219  3.3296 -2.1434 -1.9674
  113CHL1  H27C14622  -0.048   6.341  14.109  1.4165  0.7523 -0.3850
  114CHL1    C314623   5.506   7.874  15.380 -0.5624 -0.6493 -0.1934
  114CHL1    H314624   5.591   7.823  15.331  0.4579  0.7579  0.0722
  114CHL1    O314625   5.546   7.913  15.517  0.2839 -0.1839  0.2464
  114CHL1   H3'14626   5.557   7.827  15.557  0.1087  0.0961  0.9164
  114CHL1    C414627   5.466   7.998  15.289  0.7079 -0.1287 -0.7317
  114CHL1   H4A14628   5.380   8.047  15.340  1.5660 -1.0208  1.7579
  114CHL1   H4B14629   5.548   8.073  15.294 -0.1229  0.8336 -1.3294
  114CHL1    C514630   5.424   7.957  15.151 -0.7106  0.6720  0.5355
  114CHL1    C614631   5.489   7.990  15.036  0.2134  0.0052 -0.0643
  114CHL1    H614632   5.579   8.054  15.037  0.1427  0.1272 -0.8443
  114CHL1    C714633   5.455   7.943  14.897  0.5188  0.4711 -0.0523
  114CHL1   H7A14634   5.464   8.018  14.815  1.4400 -0.6306 -0.9991
  114CHL1   H7B14635   5.522   7.861  14.864 -1.7013 -0.9063 -1.4196
  114CHL1    C814636   5.311   7.891  14.899  0.7195  0.1112 -0.5394
  114CHL1    H814637   5.239   7.975  14.903 -0.1911 -0.6511 -0.7227
  114CHL1   C1414638   5.286   7.829  14.769  0.0602  0.3438 -0.1551
  114CHL1   H1414639   5.365   7.754  14.749  0.0756  0.2353  0.3106
  114CHL1   C1514640   5.288   7.922  14.646 -0.0806  0.0334 -0.4978
  114CHL1  H15A14641   5.218   8.003  14.675 -0.9009 -0.9265  0.2628
  114CHL1  H15B14642   5.385   7.969  14.621 -0.5674  0.2481 -2.1722
  114CHL1   C1614643   5.220   7.848  14.542  0.2967 -0.1260  1.1548
  114CHL1  H16A14644   5.154   7.919  14.488  0.2332 -1.3842 -0.4892
  114CHL1  H16B14645   5.281   7.798  14.465 -0.6709  1.0396 -0.4257
  114CHL1   C1714646   5.136   7.733  14.610 -0.8045  0.4119 -0.4879
  114CHL1   H1714647   5.202   7.643  14.609  0.1708  1.0695  0.9037
  114CHL1   C1314648   5.144   7.765  14.758  0.2101 -0.2505  0.3230
  114CHL1   C1814649   5.029   7.866  14.789  0.3834  0.0351 -0.5321
  114CHL1  H18A14650   5.032   7.916  14.888  0.2900 -0.9496 -0.0230
  114CHL1  H18B14651   5.013   7.942  14.710  0.2830  1.6127  0.9450
  114CHL1  H18C14652   4.938   7.802  14.791  1.4991 -1.6096  1.7814
  114CHL1   C1214653   5.132   7.649  14.857 -0.0552  0.1252  0.5351
  114CHL1  H12A14654   5.028   7.610  14.855 -0.1920  0.3502 -3.1129
  114CHL1  H12B14655   5.201   7.569  14.825 -1.8581 -1.1437 -0.3645
  114CHL1   C1114656   5.164   7.695  14.999  0.0547  1.1213  0.2483
  114CHL1  H11A14657   5.071   7.740  15.040  0.8882  2.6485  0.5459
  114CHL1  H11B14658   5.178   7.605  15.062  0.2532  0.5731 -0.5718
  114CHL1    C914659   5.290   7.781  15.008  0.6012 -0.7036  0.2019
  114CHL1    H914660   5.377   7.713  15.001  0.5981 -0.5698 -1.5607
  114CHL1   C1014661   5.304   7.851  15.151  0.2415  0.6994  0.1106
  114CHL1   C1914662   5.180   7.926  15.190 -0.0488  0.3775  0.3433
  114CHL1  H19A14663   5.195   7.986  15.282 -1.5487  2.9648 -0.9663
  114CHL1  H19B14664   5.159   8.007  15.116 -0.9235 -1.0044 -0.9795
  114CHL1  H19C14665   5.087   7.866  15.196 -1.6208  2.5200 -0.9626
  114CHL1    C114666   5.332   7.731  15.253  0.0790 -0.6824  0.0354
  114CHL1   H1A14667   5.241   7.667  15.262  0.4219 -1.4020 -1.2746
  114CHL1   H1B14668   5.410   7.661  15.215 -0.2373 -2.1634  1.9628
  114CHL1    C214669   5.374   7.788  15.390 -0.2650  0.2646  0.2521
  114CHL1   H2A14670   5.375   7.698  15.455 -1.6051 -1.3655 -1.8608
  114CHL1   H2B14671   5.295   7.855  15.430 -2.7560 -2.6469  0.6064
  114CHL1   C2014672   5.003   7.700  14.550  0.5784 -0.1233  0.6220
  114CHL1   H2014673   4.929   7.782  14.562  0.3698 -0.3804  1.0992
  114CHL1   C2114674   4.939   7.574  14.610 -0.6074 -0.2968 -0.5569
  114CHL1  H21A14675   5.011   7.491  14.622 -0.4275 -0.1408 -0.5621
  114CHL1  H21B14676   4.871   7.517  14.542 -0.4124  0.0872 -1.0786
  114CHL1  H21C14677   4.880   7.595  14.701 -0.0082 -0.9902 -0.0007
  114CHL1   C2214678   5.013   7.688  14.391 -0.5542  0.4749 -0.8632
  114CHL1  H22A14679   4.914   7.682  14.340 -2.1199 -0.0504  2.0097
  114CHL1  H22B14680   5.048   7.786  14.352  0.3036  1.2223  1.6396
  114CHL1   C2314681   5.100   7.571  14.344 -0.2467 -0.0766 -0.2192
  114CHL1  H23A14682   5.200   7.598  14.385  0.8257  1.2458 -3.3573
  114CHL1  H23B14683   5.061   7.473  14.379  0.6437  0.1292  1.4481
  114CHL1   C2414684   5.111   7.565  14.187 -0.9263  0.5343  0.0318
  114CHL1  H24A14685   5.020   7.509  14.157  0.6103 -1.3461 -1.4013
  114CHL1  H24B14686   5.112   7.660  14.128  0.1813 -0.1722 -1.1385
  114CHL1   C2514687   5.222   7.471  14.135 -0.1976  0.6953 -0.5362
  114CHL1   H2514688   5.320   7.508  14.174 -1.1681  0.1306  2.6662
  114CHL1   C2614689   5.206   7.329  14.185 -0.7694 -0.3524 -0.1162
  114CHL1  H26A14690   5.216   7.325  14.296  0.5429  1.6478 -0.1132
  114CHL1  H26B14691   5.113   7.276  14.155 -2.9555  1.1749  3.3675
  114CHL1  H26C14692   5.290   7.267  14.146 -1.7396 -1.7835  0.0089
  114CHL1   C2714693   5.221   7.457  13.988  0.9625 -0.0895  0.9928
  114CHL1  H27A14694   5.213   7.554  13.934 -2.4587 -1.6010 -1.6467
  114CHL1  H27B14695   5.295   7.389  13.940 -1.6726 -1.6066 -1.2734
  114CHL1  H27C14696   5.128   7.408  13.952  1.3522  0.2192 -0.5066
  115CHL1    C314697   2.158   1.159  15.026 -0.0220 -0.1573 -0.2327
  115CHL1    H314698   2.265   1.168  14.997 -0.0828  2.5521  0.1187
  115CHL1    O314699   2.155   1.168  15.166 -0.5452  0.7807 -0.6058
  115CHL1   H3'14700   2.061   1.182  15.178 -0.0528  3.5540  0.8785
  115CHL1    C414701   2.075   1.266  14.960  0.3343  0.4993  0.3682
  115CHL1   H4A14702   1.967   1.252  14.982 -0.1558  0.1784 -1.9222
  115CHL1   H4B14703   2.108   1.367  14.990  2.0666 -0.0084  0.2475
  115CHL1    C514704   2.084   1.252  14.804 -0.4086 -0.1398  1.0313
  115CHL1    C614705   2.146   1.352  14.736  0.7380 -0.3517  0.4828
  115CHL1    H614706   2.180   1.445  14.784 -1.5479  0.9049 -0.1737
  115CHL1    C714707   2.168   1.340  14.591  0.3309 -0.1258 -0.5066
  115CHL1   H7A14708   2.153   1.436  14.536  2.5785  0.8917  0.5344
  115CHL1   H7B14709   2.275   1.311  14.589  0.5896  0.7208  0.3568
  115CHL1    C814710   2.083   1.234  14.521  0.1584  0.4608  0.1958
  115CHL1    H814711   1.980   1.275  14.518 -0.0817 -0.1537 -0.2086
  115CHL1   C1414712   2.136   1.214  14.372  0.5265 -0.3880 -0.1219
  115CHL1   H1414713   2.239   1.174  14.388  0.8028  0.2006 -0.4045
  115CHL1   C1514714   2.150   1.336  14.288 -0.1600  0.1047  0.1814
  115CHL1  H15A14715   2.067   1.408  14.302 -0.0513  0.4830 -0.9516
  115CHL1  H15B14716   2.246   1.390  14.307  1.0312 -1.8328 -0.0066
  115CHL1   C1614717   2.151   1.281  14.141  0.4761  0.0462  0.3890
  115CHL1  H16A14718   2.065   1.329  14.091  0.3149 -0.7684 -0.1308
  115CHL1  H16B14719   2.243   1.311  14.087  0.6780  0.2279  0.8250
  115CHL1   C1714720   2.123   1.131  14.153  0.4124 -0.3411 -0.3820
  115CHL1   H1714721   2.223   1.081  14.159  0.6000 -0.5245 -3.5260
  115CHL1   C1314722   2.049   1.111  14.291 -0.1797  0.3265  0.3350
  115CHL1   C1814723   1.897   1.159  14.270 -0.5287  0.0824 -0.6944
  115CHL1  H18A14724   1.892   1.235  14.189  0.2221  0.1467 -0.6827
  115CHL1  H18B14725   1.845   1.065  14.240  0.9033 -1.1349  0.4501
  115CHL1  H18C14726   1.855   1.197  14.366 -0.3414  1.0918 -0.9995
  115CHL1   C1214727   2.071   0.980  14.369 -0.2577  1.4137 -0.0064
  115CHL1  H12A14728   2.019   0.898  14.315  2.7609 -0.4088 -0.3728
  115CHL1  H12B14729   2.180   0.957  14.368 -0.4232  0.5853 -1.0635
  115CHL1   C1114730   2.020   0.985  14.522  0.0935  0.0301  0.5327
  115CHL1  H11A14731   1.909   0.981  14.522  0.0613  0.2515  2.0219
  115CHL1  H11B14732   2.040   0.884  14.565 -0.4715 -2.1854 -3.8411
  115CHL1    C914733   2.093   1.102  14.603  0.6346  0.3632 -0.2525
  115CHL1    H914734   2.200   1.072  14.616  0.0835 -0.5825  2.7959
  115CHL1   C1014735   2.042   1.117  14.753  1.1588  0.1140  0.1380
  115CHL1   C1914736   1.886   1.109  14.754 -0.3156  0.1809  0.6003
  115CHL1  H19A14737   1.834   1.150  14.844  2.3249  0.7342  1.9845
  115CHL1  H19B14738   1.841   1.161  14.667 -1.9968 -1.0878  0.6626
  115CHL1  H19C14739   1.845   1.006  14.748 -0.5438  0.2774  0.4861
  115CHL1    C114740   2.101   0.991  14.826 -0.0383 -0.5532 -0.8217
  115CHL1   H1A14741   2.054   0.893  14.807  2.5578 -1.9904 -0.2910
  115CHL1   H1B14742   2.210   0.986  14.803 -0.4750  1.4331 -4.1448
  115CHL1    C214743   2.095   1.021  14.984 -0.3487  0.0825  0.4469
  115CHL1   H2A14744   2.139   0.934  15.037 -0.9578 -0.4493  0.0891
  115CHL1   H2B14745   1.987   1.027  15.011 -0.5795  3.5036 -0.7085
  115CHL1   C2014746   2.057   1.077  14.028 -0.2474 -0.2579  0.0143
  115CHL1   H2014747   1.953   1.115  14.024  0.1727  0.8887 -0.4620
  115CHL1   C2114748   2.057   0.923  14.034  0.0157  0.6464 -0.0350
  115CHL1  H21A14749   2.002   0.872  13.952  1.9999 -3.5602  0.9878
  115CHL1  H21B14750   2.014   0.899  14.134 -1.1843  1.5808 -0.2977
  115CHL1  H21C14751   2.156   0.874  14.042 -0.9083 -1.1029  1.4238
  115CHL1   C2214752   2.136   1.118  13.897  0.8092  0.0478  0.4610
  115CHL1  H22A14753   2.143   1.227  13.878  0.8273 -0.2354 -1.3206
  115CHL1  H22B14754   2.240   1.081  13.913  0.4975 -2.2679 -2.0212
  115CHL1   C2314755   2.083   1.052  13.771  0.7027  0.4089  0.3402
  115CHL1  H23A14756   2.117   0.946  13.767  0.0728  0.2302 -0.5113
  115CHL1  H23B14757   1.974   1.057  13.792  0.3959 -0.3100 -0.9465
  115CHL1   C2414758   2.124   1.126  13.640 -0.0502  0.0284  0.0215
  115CHL1  H24A14759   2.085   1.230  13.645  0.0175  0.0992 -0.8103
  115CHL1  H24B14760   2.234   1.137  13.628 -0.1733  0.5993 -0.6902
  115CHL1   C2514761   2.080   1.044  13.518  0.6214  0.0049 -0.0840
  115CHL1   H2514762   2.107   0.937  13.534  0.7524 -0.0838 -0.8580
  115CHL1   C2614763   1.931   1.060  13.504 -0.1015  0.6114 -0.0787
  115CHL1  H26A14764   1.900   1.158  13.462 -0.4274 -0.4292 -2.4448
  115CHL1  H26B14765   1.894   0.988  13.427 -0.6219  0.8609 -0.0661
  115CHL1  H26C14766   1.884   1.032  13.600  2.0045 -1.3443  0.4706
  115CHL1   C2714767   2.141   1.091  13.387 -0.3196  0.2509  0.6643
  115CHL1  H27A14768   2.100   1.039  13.298  1.0044 -0.2191  0.3136
  115CHL1  H27B14769   2.130   1.201  13.381 -1.2801  0.2133  1.4886
  115CHL1  H27C14770   2.251   1.076  13.393 -0.0793  1.0308 -1.0610
  116CHL1    C314771   3.875   0.652  15.322 -0.0776  0.8682 -0.5974
  116CHL1    H314772   3.831   0.551  15.322 -1.8140  1.5843 -1.4832
  116CHL1    O314773   3.881   0.698  15.452  0.0446 -0.2210 -0.4005
  116CHL1   H3'14774   3.941   0.631  15.488 -0.4164 -0.8526 -0.7908
  116CHL1    C414775   4.006   0.655  15.257 -1.1954  0.2761  0.5235
  116CHL1   H4A14776   4.054   0.753  15.274  0.4158 -0.9025  3.5264
  116CHL1   H4B14777   4.064   0.585  15.322  0.2340 -0.2465 -1.2254
  116CHL1    C514778   4.014   0.612  15.113  0.3182  1.0957  0.5417
  116CHL1    C614779   4.091   0.510  15.069 -0.1460 -0.1818 -0.3985
  116CHL1    H614780   4.161   0.461  15.139 -0.1626 -0.9761 -0.9174
  116CHL1    C714781   4.089   0.467  14.929 -0.7480  0.3507  0.3229
  116CHL1   H7A14782   4.191   0.445  14.891 -1.4259  0.6235 -1.8150
  116CHL1   H7B14783   4.041   0.368  14.913  2.7564 -1.6544  1.3091
  116CHL1    C814784   4.032   0.569  14.829  0.3679 -0.2632 -0.0231
  116CHL1    H814785   4.107   0.651  14.819 -0.8439  1.0378  1.1803
  116CHL1   C1414786   4.003   0.500  14.691 -0.6237 -0.1002 -0.8246
  116CHL1   H1414787   3.930   0.418  14.709 -0.6687  0.0353 -0.3610
  116CHL1   C1514788   4.124   0.427  14.632  0.0200  0.5608  0.1790
  116CHL1  H15A14789   4.214   0.491  14.631  1.7875 -1.7939  0.1198
  116CHL1  H15B14790   4.146   0.332  14.684  1.4227 -0.6924 -2.4806
  116CHL1   C1614791   4.076   0.397  14.487 -0.4147  0.3764 -0.5001
  116CHL1  H16A14792   4.162   0.433  14.426 -0.3430  1.4762  0.2117
  116CHL1  H16B14793   4.040   0.294  14.466  0.7162 -0.6421  2.1453
  116CHL1   C1714794   3.958   0.491  14.467 -0.6096  0.6589  0.9840
  116CHL1   H1714795   3.867   0.432  14.490 -0.2325 -0.3036  0.0962
  116CHL1   C1314796   3.954   0.586  14.584 -0.1451 -0.3521 -0.1073
  116CHL1   C1814797   4.043   0.709  14.552 -0.5392  0.0841 -0.4857
  116CHL1  H18A14798   3.995   0.773  14.475  1.3951 -0.1546 -1.9644
  116CHL1  H18B14799   4.074   0.766  14.643  0.1131 -0.3009 -0.4610
  116CHL1  H18C14800   4.140   0.672  14.513 -0.2656  0.6699 -0.3825
  116CHL1   C1214801   3.811   0.631  14.635  0.2328 -0.0607 -0.4162
  116CHL1  H12A14802   3.762   0.703  14.567  1.3645  0.4085 -0.7685
  116CHL1  H12B14803   3.744   0.543  14.648  1.9544 -1.6219 -1.5661
  116CHL1   C1114804   3.818   0.697  14.770  0.0240  0.0879 -0.4882
  116CHL1  H11A14805   3.862   0.799  14.764  1.5707 -0.4780  0.4935
  116CHL1  H11B14806   3.717   0.706  14.815  0.3969 -1.7863  0.8495
  116CHL1    C914807   3.901   0.619  14.881  0.1858  0.3400  0.0148
  116CHL1    H914808   3.840   0.528  14.905  1.2122 -0.7225 -1.2884
  116CHL1   C1014809   3.910   0.693  15.018 -0.6796  0.1173  0.0242
  116CHL1   C1914810   3.989   0.825  14.998  0.0883  0.2229 -0.0936
  116CHL1  H19A14811   4.087   0.804  14.949 -1.6595 -2.9743 -2.6614
  116CHL1  H19B14812   3.933   0.889  14.926  0.5310  0.3663 -0.3164
  116CHL1  H19C14813   3.995   0.875  15.097 -1.5371 -1.5439  0.9661
  116CHL1    C114814   3.773   0.708  15.094  0.7252 -0.1567  0.3977
  116CHL1   H1A14815   3.698   0.773  15.042  0.8847 -0.6879 -0.5208
  116CHL1   H1B14816   3.734   0.604  15.085 -0.4517  0.0085  2.8201
  116CHL1    C214817   3.774   0.745  15.244 -0.4837  0.2930  0.5183
  116CHL1   H2A14818   3.674   0.743  15.294 -0.1469  0.3438  1.2029
  116CHL1   H2B14819   3.812   0.849  15.247  1.7157 -0.4606  0.3279
  116CHL1   C2014820   3.931   0.550  14.325 -0.8382  0.2207 -0.5114
  116CHL1   H2014821   4.008   0.627  14.305  0.8780 -1.5796 -1.1609
  116CHL1   C2114822   3.793   0.623  14.322 -0.8696 -0.4106  0.3145
  116CHL1  H21A14823   3.789   0.730  14.353  0.5851  0.8683 -3.3104
  116CHL1  H21B14824   3.715   0.571  14.381  0.4114 -0.1412  2.3541
  116CHL1  H21C14825   3.772   0.635  14.214  2.1554  5.4201 -0.0522
  116CHL1   C2214826   3.944   0.447  14.206  0.3011 -0.5625 -0.5874
  116CHL1  H22A14827   4.025   0.381  14.245 -0.6391 -1.3058  0.1665
  116CHL1  H22B14828   3.850   0.387  14.207 -0.5690  0.6695  2.1590
  116CHL1   C2314829   3.970   0.519  14.076 -1.0609  0.9689  0.5134
  116CHL1  H23A14830   3.871   0.551  14.035 -1.7369 -0.0031  1.3415
  116CHL1  H23B14831   4.040   0.601  14.100  0.1310  0.0152  0.3944
  116CHL1   C2414832   4.031   0.424  13.964 -0.0465 -0.3486 -0.0973
  116CHL1  H24A14833   4.121   0.378  14.011  1.4352  0.3160 -2.1261
  116CHL1  H24B14834   3.959   0.343  13.939  1.4382 -1.6784 -0.2522
  116CHL1   C2514835   4.073   0.498  13.838 -0.5942  0.5901 -0.3303
  116CHL1   H2514836   4.113   0.418  13.772  0.0158 -2.2415  3.1194
  116CHL1   C2614837   3.949   0.553  13.769  0.3514  0.0591 -0.4098
  116CHL1  H26A14838   3.903   0.638  13.824 -1.6217 -0.6322 -0.8718
  116CHL1  H26B14839   3.976   0.589  13.667 -1.6910 -0.0175 -1.0299
  116CHL1  H26C14840   3.873   0.473  13.760  0.8306 -0.3901 -0.4801
  116CHL1   C2714841   4.179   0.604  13.852  0.1853  0.6742 -0.2200
  116CHL1  H27A14842   4.280   0.559  13.859  0.3277  0.7325 -1.5243
  116CHL1  H27B14843   4.169   0.665  13.759 -2.8564  1.5043  0.5342
  116CHL1  H27C14844   4.172   0.680  13.932  1.3148 -0.8252  1.3613
  117CHL1    C314845   6.278   0.048  15.825  0.1315 -0.1647 -0.0739
  117CHL1    H314846   6.263   0.140  15.764 -2.1508  0.3596  1.1585
  117CHL1    O314847   6.276   0.081  15.964 -0.5153 -0.1687 -0.1826
  117CHL1   H3'14848   6.358   0.129  15.977  0.6909 -2.5192  1.5239
  117CHL1    C414849   6.160  -0.051  15.791 -0.8405  0.3492  0.8646
  117CHL1   H4A14850   6.176  -0.132  15.864 -0.0012  0.7276  1.1129
  117CHL1   H4B14851   6.065   0.001  15.817 -1.5939  0.0922 -1.1681
  117CHL1    C514852   6.153  -0.087  15.644  1.0810 -0.1953 -0.4485
  117CHL1    C614853   6.047  -0.057  15.561 -0.2268  0.8189  0.1917
  117CHL1    H614854   5.965  -0.005  15.613 -1.4778 -3.2614  2.8383
  117CHL1    C714855   6.043  -0.102  15.414 -0.6355 -0.2261  0.0050
  117CHL1   H7A14856   5.946  -0.155  15.397  0.2187 -1.9802  0.4061
  117CHL1   H7B14857   6.061  -0.013  15.350  1.6453 -1.6724 -1.5041
  117CHL1    C814858   6.151  -0.209  15.384 -0.0944 -0.3917  0.4669
  117CHL1    H814859   6.099  -0.295  15.432  0.0030 -0.9904 -0.4884
  117CHL1   C1414860   6.164  -0.237  15.233 -0.0988 -0.0736 -0.8816
  117CHL1   H1414861   6.203  -0.142  15.192 -0.9097  0.8936  0.5301
  117CHL1   C1514862   6.039  -0.279  15.158 -0.3788  0.3352 -0.4728
  117CHL1  H15A14863   5.984  -0.357  15.216  0.5550 -1.1675 -1.5383
  117CHL1  H15B14864   5.969  -0.197  15.132  0.5002  0.5453 -2.3623
  117CHL1   C1614865   6.106  -0.344  15.038  0.0987 -0.7261  0.0541
  117CHL1  H16A14866   6.076  -0.451  15.032  0.5955 -1.0237  2.1273
  117CHL1  H16B14867   6.077  -0.283  14.951  0.9822  0.2628  0.4271
  117CHL1   C1714868   6.261  -0.337  15.045  0.2890  0.2349 -0.3567
  117CHL1   H1714869   6.288  -0.237  15.005  1.3385  0.0126 -0.2093
  117CHL1   C1314870   6.278  -0.335  15.199  0.1314 -0.2267  0.3400
  117CHL1   C1814871   6.254  -0.479  15.257 -0.1922  0.3456  0.3396
  117CHL1  H18A14872   6.166  -0.525  15.206  1.4641 -1.7412 -0.7847
  117CHL1  H18B14873   6.337  -0.550  15.237 -0.8853  0.0832 -2.0052
  117CHL1  H18C14874   6.238  -0.473  15.367 -0.2603  2.0325  0.2631
  117CHL1   C1214875   6.411  -0.282  15.255 -0.1774  0.2580  0.2419
  117CHL1  H12A14876   6.484  -0.364  15.236  0.1341  0.7207 -0.5856
  117CHL1  H12B14877   6.455  -0.202  15.193  1.3121  0.3653  1.3883
  117CHL1   C1114878   6.409  -0.252  15.397  0.0468  0.2691  1.3971
  117CHL1  H11A14879   6.403  -0.350  15.449 -1.9516 -0.0691  0.6263
  117CHL1  H11B14880   6.508  -0.207  15.423  0.3546  1.1042 -0.9542
  117CHL1    C914881   6.289  -0.167  15.443  0.2487 -0.1416 -0.2993
  117CHL1    H914882   6.319  -0.065  15.408  0.5169  1.1169  3.2052
  117CHL1   C1014883   6.282  -0.155  15.601  0.7218 -0.3196  0.3560
  117CHL1   C1914884   6.264  -0.296  15.664  0.1831  0.2645  0.3018
  117CHL1  H19A14885   6.256  -0.299  15.775 -0.8611  1.6953  0.2946
  117CHL1  H19B14886   6.184  -0.359  15.619  0.3998 -0.9573  1.5327
  117CHL1  H19C14887   6.357  -0.349  15.635 -0.0398 -0.6766  1.2191
  117CHL1    C114888   6.404  -0.076  15.643  0.5393  0.9116  0.4798
  117CHL1   H1A14889   6.479  -0.156  15.624  0.5074  1.6347 -3.5565
  117CHL1   H1B14890   6.414   0.004  15.566 -1.2511  0.2782 -0.4823
  117CHL1    C214891   6.408  -0.021  15.788  0.2064 -0.4660 -0.0617
  117CHL1   H2A14892   6.493   0.050  15.798 -0.5812  0.5616 -0.4239
  117CHL1   H2B14893   6.426  -0.111  15.850 -1.1144  0.7416  2.2084
  117CHL1   C2014894   6.327  -0.437  14.948 -0.6926 -0.0704  0.4965
  117CHL1   H2014895   6.303  -0.541  14.978 -0.9758 -0.5036 -1.1490
  117CHL1   C2114896   6.478  -0.415  14.960  0.5651  0.1274 -0.1467
  117CHL1  H21A14897   6.503  -0.307  14.966  0.9766  0.0266 -0.0482
  117CHL1  H21B14898   6.536  -0.474  14.886 -0.1154  0.1061 -0.6787
  117CHL1  H21C14899   6.510  -0.453  15.059 -1.6202 -0.0662  0.5389
  117CHL1   C2214900   6.271  -0.433  14.803 -0.1250  0.2148  0.3384
  117CHL1  H22A14901   6.163  -0.458  14.807  0.0795 -0.8013 -0.2510
  117CHL1  H22B14902   6.276  -0.333  14.754 -0.0806 -0.8081 -1.8726
  117CHL1   C2314903   6.337  -0.539  14.717  0.2191 -0.0316  0.7879
  117CHL1  H23A14904   6.434  -0.503  14.675  0.2827  0.0741  1.0264
  117CHL1  H23B14905   6.364  -0.631  14.774  0.1442  0.3854  1.5106
  117CHL1   C2414906   6.250  -0.589  14.605  0.5531  0.2992  0.3817
  117CHL1  H24A14907   6.168  -0.641  14.659  0.0131  1.1100  0.3506
  117CHL1  H24B14908   6.212  -0.498  14.554  0.0879  0.3612  0.8285
  117CHL1   C2514909   6.319  -0.688  14.510  0.3238 -0.2311 -0.3346
  117CHL1   H2514910   6.427  -0.661  14.502  0.5798 -0.0728  2.6721
  117CHL1   C2614911   6.290  -0.833  14.557 -0.3944  0.1692  0.5585
  117CHL1  H26A14912   6.183  -0.854  14.581 -0.2027  1.0263  2.3521
  117CHL1  H26B14913   6.309  -0.894  14.466 -0.1700  2.9788 -1.4285
  117CHL1  H26C14914   6.340  -0.870  14.648  2.2946  1.3983 -0.3156
  117CHL1   C2714915   6.255  -0.678  14.363  0.3243 -0.1295 -0.4300
  117CHL1  H27A14916   6.249  -0.571  14.336 -3.8283  0.7028  2.6857
  117CHL1  H27B14917   6.310  -0.739  14.288 -0.2866  0.1139 -1.0846
  117CHL1  H27C14918   6.150  -0.714  14.374  0.8519 -1.0571  2.3874
  118CHL1    C314919   7.619   2.081  15.464  0.0992  0.0125 -0.2604
  118CHL1    H314920   7.529   2.138  15.434  1.1023  1.1319 -1.2556
  118CHL1    O314921   7.618   2.073  15.605  0.4763  0.2398 -0.0274
  118CHL1   H3'14922   7.671   1.997  15.630 -2.4421 -3.4105 -3.5242
  118CHL1    C414923   7.634   1.939  15.417 -0.1433  0.1923  0.4373
  118CHL1   H4A14924   7.725   1.901  15.468 -1.1920  0.8845  3.0124
  118CHL1   H4B14925   7.551   1.884  15.467  0.6355 -0.2530  1.2719
  118CHL1    C514926   7.631   1.930  15.265  0.1052 -0.6834 -0.3469
  118CHL1    C614927   7.548   1.852  15.196  0.1332 -0.3082  0.4834
  118CHL1    H614928   7.469   1.794  15.245 -0.6152 -0.8304 -1.2502
  118CHL1    C714929   7.565   1.838  15.043  0.2519 -0.3947 -0.1422
  118CHL1   H7A14930   7.539   1.739  15.000  2.7109 -0.9098 -0.6288
  118CHL1   H7B14931   7.498   1.915  14.998  0.4036 -1.2181 -1.8752
  118CHL1    C814932   7.702   1.887  14.990 -0.1794 -0.2111  0.4985
  118CHL1    H814933   7.771   1.804  15.018 -2.1841 -2.1458 -0.0643
  118CHL1   C1414934   7.705   1.900  14.832  0.6782  0.9392 -0.1205
  118CHL1   H1414935   7.641   1.990  14.821 -0.0349  0.5833  0.9548
  118CHL1   C1514936   7.648   1.787  14.743 -0.0295  0.7328  0.2327
  118CHL1  H15A14937   7.671   1.683  14.775  0.0726  0.9622  0.9232
  118CHL1  H15B14938   7.538   1.800  14.733 -0.2952 -1.0250  0.5471
  118CHL1   C1614939   7.702   1.814  14.603  0.0540 -0.0773  0.2907
  118CHL1  H16A14940   7.754   1.719  14.581 -0.7283 -0.1844 -1.2357
  118CHL1  H16B14941   7.623   1.846  14.532  0.4067 -1.6447 -0.8404
  118CHL1   C1714942   7.811   1.925  14.616  0.8900 -0.0346 -0.7576
  118CHL1   H1714943   7.758   2.021  14.596  0.2201 -0.2642 -0.1335
  118CHL1   C1314944   7.841   1.931  14.765  0.4367  0.3869  0.2382
  118CHL1   C1814945   7.947   1.823  14.806 -0.0733 -0.4118  0.8414
  118CHL1  H18A14946   7.975   1.817  14.914 -0.4327 -0.3257  0.9395
  118CHL1  H18B14947   7.911   1.723  14.775  1.2953 -0.9352  0.8466
  118CHL1  H18C14948   8.044   1.843  14.756 -0.0532  2.4400  1.8082
  118CHL1   C1214949   7.872   2.071  14.821 -0.3108  0.2298 -0.2189
  118CHL1  H12A14950   7.969   2.110  14.783  1.1040 -1.9370  0.9271
  118CHL1  H12B14951   7.796   2.145  14.786  0.6909  1.1507 -0.5256
  118CHL1   C1114952   7.878   2.075  14.980 -0.1658 -0.4003 -0.1614
  118CHL1  H11A14953   7.961   2.012  15.019 -0.5871 -0.9418 -0.1192
  118CHL1  H11B14954   7.895   2.180  15.013 -0.7473  0.6428 -2.9234
  118CHL1    C914955   7.744   2.016  15.047  0.5964 -0.3737  0.4991
  118CHL1    H914956   7.661   2.086  15.023  1.6397  1.2177  1.3376
  118CHL1   C1014957   7.750   2.010  15.205  0.4394 -0.0124  0.9966
  118CHL1   C1914958   7.883   1.931  15.242  0.2373  0.3874  0.1553
  118CHL1  H19A14959   7.874   1.825  15.210  1.6220  0.1961  0.3222
  118CHL1  H19B14960   7.974   1.979  15.200 -0.5009 -0.5488 -2.7028
  118CHL1  H19C14961   7.900   1.924  15.352  2.8740  0.4853 -0.1864
  118CHL1    C114962   7.751   2.159  15.266 -0.2815  0.1679  0.2520
  118CHL1   H1A14963   7.831   2.224  15.223  0.5627 -0.2384  1.1718
  118CHL1   H1B14964   7.662   2.205  15.217  0.0718 -0.8300 -1.4320
  118CHL1    C214965   7.735   2.171  15.419  0.6387 -0.3711  0.1684
  118CHL1   H2A14966   7.708   2.274  15.450 -0.3527 -0.4149 -0.5073
  118CHL1   H2B14967   7.828   2.140  15.471  0.9143  1.7200  1.0009
  118CHL1   C2014968   7.920   1.909  14.516  0.7559 -0.4894 -0.4207
  118CHL1   H2014969   7.974   1.813  14.535  0.9657 -0.1402  0.8350
  118CHL1   C2114970   8.014   2.028  14.521 -0.6486  0.2440  0.0628
  118CHL1  H21A14971   8.083   2.023  14.435 -0.4280 -2.2273  0.3122
  118CHL1  H21B14972   8.081   2.034  14.610  0.4027  2.6301 -0.8328
  118CHL1  H21C14973   7.953   2.120  14.513  1.5320  1.7144 -0.4842
  118CHL1   C2214974   7.869   1.894  14.370  0.6175 -0.2371  0.3159
  118CHL1  H22A14975   7.774   1.837  14.373  0.7585 -0.6256  4.6786
  118CHL1  H22B14976   7.831   1.995  14.345 -0.8268 -0.6450  0.7700
  118CHL1   C2314977   7.954   1.840  14.262  0.3116 -0.2273  0.1933
  118CHL1  H23A14978   7.912   1.869  14.163  0.3521  2.0463  0.7877
  118CHL1  H23B14979   8.056   1.883  14.261  0.1505  0.1688  0.3172
  118CHL1   C2414980   7.967   1.687  14.263 -0.3372  0.4458  0.0755
  118CHL1  H24A14981   8.019   1.659  14.357 -1.5002 -0.2289  0.5412
  118CHL1  H24B14982   7.865   1.643  14.265  0.3481 -1.2150  0.4184
  118CHL1   C2514983   8.043   1.633  14.136 -0.4945  0.2442  0.2796
  118CHL1   H2514984   8.144   1.678  14.129  1.0222 -2.6459  1.5821
  118CHL1   C2614985   8.071   1.485  14.156  0.4936  1.2323  0.1438
  118CHL1  H26A14986   8.159   1.460  14.092 -0.8511  0.1572 -1.3544
  118CHL1  H26B14987   8.107   1.464  14.258 -1.9848 -1.3081  0.5997
  118CHL1  H26C14988   7.988   1.416  14.131  1.7821 -0.3393  0.0511
  118CHL1   C2714989   7.974   1.651  13.999 -0.1219 -0.1184  0.2070
  118CHL1  H27A14990   7.891   1.577  13.990 -0.9590  0.6484  1.3635
  118CHL1  H27B14991   7.942   1.757  13.996  0.9658  0.2152 -0.0805
  118CHL1  H27C14992   8.057   1.635  13.926 -0.4715 -2.2758  0.2065
  119CHL1    C314993   0.688   0.148  15.301 -0.0663  0.2646 -0.2771
  119CHL1    H314994   0.772   0.126  15.232  0.6913  1.8372  0.0966
  119CHL1    O314995   0.668   0.033  15.387 -0.6659  0.2242 -0.0825
  119CHL1   H3'14996   0.759   0.006  15.404 -0.7971  0.6199  1.3942
  119CHL1    C414997   0.729   0.264  15.397 -0.0947  0.2883 -0.0950
  119CHL1   H4A14998   0.653   0.269  15.479 -0.0421  0.8481 -0.0763
  119CHL1   H4B14999   0.826   0.231  15.439 -0.4556 -0.9282 -0.1915
  119CHL1    C515000   0.740   0.395  15.321 -0.0791  0.1621  0.0348
  119CHL1    C615001   0.850   0.464  15.326 -0.1895  0.6017 -0.4839
  119CHL1    H615002   0.931   0.429  15.393 -0.1064  1.5930 -0.0416
  119CHL1    C715003   0.868   0.592  15.262  0.1082  0.2332  0.0851
  119CHL1   H7A15004   0.915   0.658  15.339 -0.4367 -0.5790  1.1323
  119CHL1   H7B15005   0.925   0.584  15.167 -0.7637 -1.5870 -0.3199
  119CHL1    C815006   0.728   0.646  15.212 -0.6862 -0.7732  0.0278
  119CHL1    H815007   0.686   0.691  15.305  1.0883  1.2678 -0.0908
  119CHL1   C1415008   0.750   0.760  15.109  0.3198  0.4704 -0.4395
  119CHL1   H1415009   0.805   0.711  15.025  1.7881 -1.0970  1.3419
  119CHL1   C1515010   0.840   0.880  15.139 -0.3545 -0.5871  0.4183
  119CHL1  H15A15011   0.820   0.929  15.237 -1.3383 -1.1195  0.5001
  119CHL1  H15B15012   0.943   0.839  15.143  0.1586  0.4219 -1.3685
  119CHL1   C1615013   0.825   0.987  15.025 -0.2128 -0.0433  0.2840
  119CHL1  H16A15014   0.791   1.080  15.076  0.2835  0.0310  0.4781
  119CHL1  H16B15015   0.919   0.998  14.966  0.4011  0.4718  1.3380
  119CHL1   C1715016   0.711   0.926  14.936  0.1832  0.5541 -0.2145
  119CHL1   H1715017   0.768   0.869  14.860 -1.6048  1.0060 -1.9660
  119CHL1   C1315018   0.636   0.821  15.029 -0.0540 -0.4001  0.1215
  119CHL1   C1815019   0.543   0.892  15.132 -0.6321 -0.0106 -0.1821
  119CHL1  H18A15020   0.469   0.951  15.074 -1.0271  1.9335  2.1168
  119CHL1  H18B15021   0.501   0.813  15.198 -1.3667 -0.7417 -1.5050
  119CHL1  H18C15022   0.600   0.962  15.197  0.2771 -1.0503  0.1815
  119CHL1   C1215023   0.569   0.703  14.952 -0.0719  0.1933 -0.5420
  119CHL1  H12A15024   0.482   0.742  14.894 -0.4034  1.1474  0.5513
  119CHL1  H12B15025   0.646   0.665  14.881  0.6093  0.6970 -0.0925
  119CHL1   C1115026   0.528   0.602  15.060  0.5206  0.1143 -0.0113
  119CHL1  H11A15027   0.444   0.647  15.119  0.2928 -0.0184 -0.2340
  119CHL1  H11B15028   0.475   0.523  15.003  0.4723  0.3309 -0.2707
  119CHL1    C915029   0.645   0.540  15.138  0.5105  0.3337  0.0646
  119CHL1    H915030   0.711   0.503  15.057 -0.2492  1.2192 -0.9943
  119CHL1   C1015031   0.612   0.424  15.229 -0.4854  0.3386  0.0102
  119CHL1   C1915032   0.499   0.466  15.325 -0.4141 -0.5536  0.8415
  119CHL1  H19A15033   0.472   0.384  15.396  0.4660 -1.3475  0.2870
  119CHL1  H19B15034   0.531   0.557  15.380 -0.1015 -0.5703  0.6876
  119CHL1  H19C15035   0.411   0.485  15.260  0.0489 -1.0575  0.0473
  119CHL1    C115036   0.573   0.303  15.145  0.2265 -0.3791 -0.6577
  119CHL1   H1A15037   0.480   0.323  15.088 -0.6952 -1.0148  0.5875
  119CHL1   H1B15038   0.646   0.282  15.064 -0.6902 -1.0110 -1.3412
  119CHL1    C215039   0.555   0.181  15.231  0.0271 -0.1500  0.2144
  119CHL1   H2A15040   0.537   0.089  15.172 -1.7404  1.1940 -1.4712
  119CHL1   H2B15041   0.480   0.197  15.312 -0.1601  2.6280 -0.4173
  119CHL1   C2015042   0.622   1.029  14.871  0.2651 -0.9797 -0.2007
  119CHL1   H2015043   0.552   1.078  14.942 -0.0651 -0.8780 -0.5910
  119CHL1   C2115044   0.541   0.975  14.755 -0.0618  0.4711 -0.2414
  119CHL1  H21A15045   0.447   0.926  14.791 -0.0206 -0.6058 -1.5089
  119CHL1  H21B15046   0.607   0.895  14.714 -0.4472 -0.9033  1.6717
  119CHL1  H21C15047   0.506   1.048  14.679 -2.3780 -2.6796 -2.4684
  119CHL1   C2215048   0.694   1.152  14.811 -0.2186  0.2875  0.5549
  119CHL1  H22A15049   0.617   1.215  14.760 -1.2214  0.4470  2.2103
  119CHL1  H22B15050   0.744   1.211  14.890  0.2234  1.4303 -0.5442
  119CHL1   C2315051   0.803   1.121  14.711 -0.7458 -0.3691 -0.3139
  119CHL1  H23A15052   0.881   1.048  14.742 -1.2766  0.1667  2.5458
  119CHL1  H23B15053   0.765   1.083  14.614  2.4763  0.6785 -2.1135
  119CHL1   C2415054   0.886   1.247  14.674  0.2274 -0.3008  0.4695
  119CHL1  H24A15055   0.819   1.334  14.658 -0.2858 -0.2600  2.6061
  119CHL1  H24B15056   0.938   1.278  14.766  1.7164 -1.3163  0.0037
  119CHL1   C2515057   0.993   1.232  14.557  0.4596  0.6182  0.1112
  119CHL1   H2515058   1.042   1.331  14.557 -0.5928  1.1616  0.8056
  119CHL1   C2615059   1.095   1.132  14.603 -0.1377 -0.2590 -0.4631
  119CHL1  H26A15060   1.059   1.028  14.586 -0.7946 -0.2782  0.9777
  119CHL1  H26B15061   1.189   1.154  14.547  0.2789  1.4482  0.8151
  119CHL1  H26C15062   1.112   1.156  14.710  1.1037  3.4342 -1.3668
  119CHL1   C2715063   0.945   1.201  14.410 -0.2500 -0.2288 -0.9534
  119CHL1  H27A15064   0.864   1.275  14.391  0.6244  0.8325 -0.6737
  119CHL1  H27B15065   1.031   1.217  14.341 -0.5782 -0.7791 -1.4958
  119CHL1  H27C15066   0.911   1.096  14.410 -0.6625 -0.0984 -1.1463
  120CHL1    C315067   7.995   7.723  15.583  0.2059 -0.2002  0.4381
  120CHL1    H315068   8.002   7.614  15.601 -0.7877 -0.4906 -0.7799
  120CHL1    O315069   8.023   7.803  15.696 -0.1287 -0.2331 -0.0858
  120CHL1   H3'15070   8.029   7.897  15.675 -0.7343 -0.1860 -0.0565
  120CHL1    C415071   8.092   7.776  15.467  1.3537 -0.4461  0.3193
  120CHL1   H4A15072   8.086   7.886  15.453  0.5033 -0.6348 -0.9663
  120CHL1   H4B15073   8.198   7.762  15.495  0.8414  0.4898  2.9770
  120CHL1    C515074   8.059   7.705  15.337  0.5075 -0.0354  0.1974
  120CHL1    C615075   8.149   7.624  15.273  0.0333  0.2858 -0.1354
  120CHL1    H615076   8.245   7.594  15.319  0.2107 -0.4177 -0.9404
  120CHL1    C715077   8.120   7.565  15.136  0.8925  0.9206 -0.0954
  120CHL1   H7A15078   8.203   7.590  15.067  0.4512  2.6213 -0.0564
  120CHL1   H7B15079   8.130   7.455  15.126 -0.1089  0.7380  0.7169
  120CHL1    C815080   7.995   7.620  15.070 -0.1787 -0.3008 -0.1870
  120CHL1    H815081   8.013   7.727  15.049 -1.8451  0.2469  0.9760
  120CHL1   C1415082   7.965   7.545  14.948  0.8539 -0.2165  0.1111
  120CHL1   H1415083   7.951   7.436  14.968  0.8891 -0.3367 -0.4962
  120CHL1   C1515084   8.070   7.557  14.833 -0.1661  0.5919 -0.3981
  120CHL1  H15A15085   8.112   7.660  14.828 -0.6746  1.0178  2.3119
  120CHL1  H15B15086   8.148   7.482  14.856 -0.3723  0.7395  0.8690
  120CHL1   C1615087   7.992   7.506  14.718  0.0118 -0.1506  0.4296
  120CHL1  H16A15088   8.008   7.584  14.641  1.3353  0.5277  1.3399
  120CHL1  H16B15089   8.032   7.419  14.663 -0.4706  0.5012 -0.9872
  120CHL1   C1715090   7.844   7.500  14.756  0.3355  0.5647  0.5597
  120CHL1   H1715091   7.817   7.394  14.777 -1.5071  0.6263 -1.1099
  120CHL1   C1315092   7.828   7.581  14.886 -0.5024  0.8877 -0.3594
  120CHL1   C1815093   7.821   7.732  14.841  0.0200  0.0977 -0.7411
  120CHL1  H18A15094   7.717   7.766  14.821  1.1603  3.0190 -2.3855
  120CHL1  H18B15095   7.856   7.798  14.923  3.8326 -0.0403 -2.0508
  120CHL1  H18C15096   7.893   7.756  14.759  0.6769  0.0526 -0.1862
  120CHL1   C1215097   7.726   7.542  14.982 -0.1247  0.1602  0.4013
  120CHL1  H12A15098   7.624   7.547  14.937  0.4070  0.8337 -0.7670
  120CHL1  H12B15099   7.735   7.436  15.014 -0.2001 -0.5692 -1.8212
  120CHL1   C1115100   7.737   7.632  15.105  0.1022 -0.5237 -0.5762
  120CHL1  H11A15101   7.715   7.736  15.074 -0.7320 -0.9735 -1.5807
  120CHL1  H11B15102   7.673   7.596  15.188  0.5028 -0.4616 -0.2404
  120CHL1    C915103   7.884   7.628  15.166 -0.6283  0.5163 -0.1520
  120CHL1    H915104   7.886   7.526  15.209  2.1066  0.8199  0.5781
  120CHL1   C1015105   7.914   7.727  15.284 -0.2528 -0.0625 -0.4856
  120CHL1   C1915106   7.910   7.874  15.233 -0.6723 -0.6719 -1.1975
  120CHL1  H19A15107   7.973   7.905  15.147 -0.7654 -0.2971 -1.1293
  120CHL1  H19B15108   7.802   7.887  15.213 -1.3480 -1.9549  1.1477
  120CHL1  H19C15109   7.932   7.941  15.319 -0.4541 -1.3081 -0.7421
  120CHL1    C115110   7.819   7.696  15.404 -0.8890  0.0905 -0.3129
  120CHL1   H1A15111   7.728   7.746  15.364  1.1133  3.6819 -0.8865
  120CHL1   H1B15112   7.816   7.587  15.425  0.6329 -0.1628 -1.2305
  120CHL1    C215113   7.852   7.753  15.539 -0.1204 -0.6340 -0.3410
  120CHL1   H2A15114   7.772   7.727  15.612 -0.2236  3.8359  1.4453
  120CHL1   H2B15115   7.835   7.862  15.526 -1.2235 -0.6138  0.9698
  120CHL1   C2015116   7.752   7.544  14.636  0.5388 -0.0757 -0.4679
  120CHL1   H2015117   7.777   7.649  14.607  1.3845 -0.0473  0.3395
  120CHL1   C2115118   7.603   7.542  14.674  0.5690 -0.3818 -0.2127
  120CHL1  H21A15119   7.582   7.609  14.760  0.3526 -2.0687  1.1034
  120CHL1  H21B15120   7.573   7.436  14.690 -0.5839  0.0744  0.7464
  120CHL1  H21C15121   7.541   7.577  14.589 -2.5134  0.2804  2.1450
  120CHL1   C2215122   7.756   7.448  14.513 -0.0606 -0.6252 -0.0317
  120CHL1  H22A15123   7.862   7.451  14.483 -0.0415  1.5534  0.0436
  120CHL1  H22B15124   7.719   7.346  14.537 -0.8894 -0.2698  0.2479
  120CHL1   C2315125   7.675   7.500  14.387  0.3176  0.1517 -0.3197
  120CHL1  H23A15126   7.567   7.498  14.411  0.7677  0.2670  1.8989
  120CHL1  H23B15127   7.703   7.605  14.361 -0.2729  0.0900 -1.2570
  120CHL1   C2415128   7.686   7.401  14.267 -0.9922  0.2550 -0.3583
  120CHL1  H24A15129   7.791   7.377  14.242  0.3082  2.0639  2.7610
  120CHL1  H24B15130   7.655   7.300  14.301  0.2079  0.2082  0.6465
  120CHL1   C2515131   7.612   7.420  14.138  0.6135 -0.7752  0.4488
  120CHL1   H2515132   7.509   7.455  14.161  1.1207  1.6785 -0.6520
  120CHL1   C2615133   7.680   7.537  14.065 -0.3593  0.0915  0.3129
  120CHL1  H26A15134   7.671   7.633  14.121  1.2268  3.1302 -4.0301
  120CHL1  H26B15135   7.783   7.509  14.035 -0.8127 -0.5627 -0.6792
  120CHL1  H26C15136   7.627   7.556  13.969 -0.6797 -0.9946  0.2622
  120CHL1   C2715137   7.604   7.290  14.052 -0.6905 -0.7247 -0.3560
  120CHL1  H27A15138   7.707   7.293  14.012 -0.5970  0.3860 -0.0722
  120CHL1  H27B15139   7.575   7.197  14.106  2.3572 -2.3210 -1.2928
  120CHL1  H27C15140   7.529   7.301  13.971 -2.7588  0.8953  1.6214
  121CHL1    C315141   4.410   3.622  13.033 -0.0543 -0.1987  0.2033
  121CHL1    H315142   4.309   3.667  13.026 -1.3918 -2.6366  2.0486
  121CHL1    O315143   4.452   3.611  12.898  0.4942 -0.1935  0.1352
  121CHL1   H3'15144   4.534   3.563  12.883  0.2051 -0.7799  0.3852
  121CHL1    C415145   4.508   3.720  13.105  0.4187 -0.3499 -0.2689
  121CHL1   H4A15146   4.613   3.689  13.086  0.5714  0.5929 -1.0862
  121CHL1   H4B15147   4.502   3.824  13.066 -0.8793 -0.6270 -0.8844
  121CHL1    C515148   4.490   3.711  13.256  0.3212  0.1576 -0.6150
  121CHL1    C615149   4.481   3.820  13.334  0.2003  0.1844  0.3907
  121CHL1    H615150   4.492   3.916  13.282  3.0584 -0.7928 -1.0432
  121CHL1    C715151   4.471   3.822  13.478  0.0906 -0.0293  0.3185
  121CHL1   H7A15152   4.539   3.898  13.522  0.5172 -1.1695  1.7437
  121CHL1   H7B15153   4.367   3.834  13.513 -0.2883  2.1436 -1.3549
  121CHL1    C815154   4.506   3.685  13.540 -0.1082  0.3125  0.4279
  121CHL1    H815155   4.616   3.672  13.531 -0.1956  0.0326 -0.4158
  121CHL1   C1415156   4.469   3.685  13.686 -0.7438 -0.4855 -0.3376
  121CHL1   H1415157   4.360   3.701  13.695 -0.8694 -1.0225 -0.8373
  121CHL1   C1515158   4.523   3.803  13.769  0.2799  0.3692  0.1949
  121CHL1  H15A15159   4.630   3.817  13.743 -0.2538  0.7240 -1.9258
  121CHL1  H15B15160   4.469   3.897  13.745  0.3028  0.2686 -0.2537
  121CHL1   C1615161   4.511   3.751  13.912 -0.2261 -0.0250 -0.0200
  121CHL1  H16A15162   4.615   3.762  13.947  0.2039  0.8616 -1.4940
  121CHL1  H16B15163   4.439   3.809  13.973 -0.6916  0.5822 -1.1116
  121CHL1   C1715164   4.462   3.602  13.904  0.5565 -0.5795  0.2430
  121CHL1   H1715165   4.353   3.592  13.927  0.7446  0.0710  1.5373
  121CHL1   C1315166   4.494   3.557  13.759  0.0991 -0.8226 -0.8379
  121CHL1   C1815167   4.638   3.510  13.760 -0.4497 -0.0768  0.5166
  121CHL1  H18A15168   4.684   3.516  13.659  0.6651  2.7539  1.1093
  121CHL1  H18B15169   4.709   3.571  13.820 -0.4487 -0.5862  1.0408
  121CHL1  H18C15170   4.648   3.403  13.789 -5.2735 -1.1233 -0.7225
  121CHL1   C1215171   4.400   3.454  13.693 -0.1561 -0.6820  0.3370
  121CHL1  H12A15172   4.404   3.356  13.747  2.1083 -1.4660 -1.1071
  121CHL1  H12B15173   4.294   3.488  13.694  0.3779  1.0380  1.7160
  121CHL1   C1115174   4.430   3.432  13.540  0.0645  0.6465 -0.2005
  121CHL1  H11A15175   4.524   3.375  13.538 -0.4822 -0.3444  0.8670
  121CHL1  H11B15176   4.345   3.364  13.519 -0.1444  0.0687  2.2480
  121CHL1    C915177   4.431   3.572  13.464  0.2799  0.3126  0.3152
  121CHL1    H915178   4.323   3.600  13.466  0.2147  0.0482  0.7256
  121CHL1   C1015179   4.475   3.565  13.317  0.2974 -0.1287 -0.1491
  121CHL1   C1915180   4.615   3.494  13.309 -0.5339  0.5485 -0.3846
  121CHL1  H19A15181   4.641   3.486  13.201 -0.9917  0.9317 -0.5301
  121CHL1  H19B15182   4.696   3.543  13.367  0.6337 -1.8875  0.1699
  121CHL1  H19C15183   4.608   3.391  13.350 -1.3775 -0.1436 -2.1761
  121CHL1    C115184   4.360   3.480  13.242 -0.0627  0.6011  0.1586
  121CHL1   H1A15185   4.366   3.376  13.281 -0.2732  0.5928  0.1689
  121CHL1   H1B15186   4.259   3.516  13.272  0.0155  1.1279 -0.1952
  121CHL1    C215187   4.385   3.478  13.091  0.0488 -0.0234  0.2239
  121CHL1   H2A15188   4.299   3.440  13.032  0.9444 -0.1312 -1.0514
  121CHL1   H2B15189   4.473   3.414  13.067 -0.1205  0.2797 -1.3212
  121CHL1   C2015190   4.518   3.522  14.022 -0.2656  0.1572 -0.2682
  121CHL1   H2015191   4.628   3.512  14.022 -0.1911  0.4063 -2.3944
  121CHL1   C2115192   4.460   3.373  14.009  0.3435 -0.0534 -0.1273
  121CHL1  H21A15193   4.350   3.382  14.019  0.3635 -0.7642  0.9932
  121CHL1  H21B15194   4.500   3.311  14.093 -0.8680 -0.4312  0.1952
  121CHL1  H21C15195   4.485   3.317  13.916 -0.5598  1.5466 -1.3709
  121CHL1   C2215196   4.482   3.591  14.157  0.2335  0.7687 -0.3992
  121CHL1  H22A15197   4.518   3.696  14.152  2.5295  0.0081 -0.9587
  121CHL1  H22B15198   4.371   3.594  14.165  0.3278 -1.0240  4.1402
  121CHL1   C2315199   4.533   3.517  14.288 -1.1268  0.0395  0.4525
  121CHL1  H23A15200   4.510   3.580  14.376 -1.3220 -0.1964  0.5718
  121CHL1  H23B15201   4.477   3.422  14.304  0.6465 -1.2345 -0.5356
  121CHL1   C2415202   4.687   3.494  14.293  0.0595 -0.3091 -0.0727
  121CHL1  H24A15203   4.720   3.447  14.198 -0.7589 -0.5009 -0.2685
  121CHL1  H24B15204   4.737   3.593  14.301 -1.2772  0.3530  0.3165
  121CHL1   C2515205   4.740   3.417  14.416 -0.0595 -1.0526  0.3959
  121CHL1   H2515206   4.850   3.409  14.399  0.2702  2.6611  0.1606
  121CHL1   C2615207   4.714   3.493  14.551 -0.4272 -0.2391  0.2314
  121CHL1  H26A15208   4.766   3.443  14.635  0.6498  0.8290  0.2351
  121CHL1  H26B15209   4.755   3.596  14.536 -0.3812 -0.3852 -0.7511
  121CHL1  H26C15210   4.604   3.504  14.562 -0.6692 -0.1149 -1.8341
  121CHL1   C2715211   4.682   3.273  14.439  0.0105 -0.7196  0.6895
  121CHL1  H27A15212   4.723   3.220  14.527 -1.0746 -0.8797  1.1097
  121CHL1  H27B15213   4.574   3.283  14.464 -0.3086 -0.4618 -0.7149
  121CHL1  H27C15214   4.693   3.210  14.348 -0.8563 -1.0876  0.8315
  122CHL1    C315215   4.094   4.606  13.077  0.2186 -0.6984  0.5334
  122CHL1    H315216   4.205   4.603  13.083  0.1972 -1.8700  0.5324
  122CHL1    O315217   4.055   4.560  12.946 -0.1742 -0.2594  0.1920
  122CHL1   H3'15218   3.960   4.567  12.934  0.0995  2.1998 -1.2403
  122CHL1    C415219   4.031   4.514  13.181  0.4307 -0.1595 -0.3607
  122CHL1   H4A15220   3.923   4.496  13.166  0.0353  1.2632  0.5102
  122CHL1   H4B15221   4.086   4.420  13.160  0.7340 -0.1892  0.5013
  122CHL1    C515222   4.071   4.561  13.321  0.0597  0.1770  0.1386
  122CHL1    C615223   4.137   4.480  13.410  0.1645  0.4305 -1.0672
  122CHL1    H615224   4.162   4.376  13.384 -1.2122  0.2131 -1.5715
  122CHL1    C715225   4.182   4.522  13.549  0.1993  0.8975  1.0298
  122CHL1   H7A15226   4.161   4.439  13.620  0.4614  1.3468  1.6338
  122CHL1   H7B15227   4.293   4.527  13.541  0.0165  2.4017 -1.5980
  122CHL1    C815228   4.107   4.653  13.592  0.1827  0.7713 -0.3044
  122CHL1    H815229   4.003   4.621  13.611  0.6691  0.3284  1.9618
  122CHL1   C1415230   4.168   4.713  13.717 -0.3409  0.0401 -0.1012
  122CHL1   H1415231   4.274   4.734  13.694  0.1834 -1.3881  0.8418
  122CHL1   C1515232   4.179   4.615  13.840 -0.2101 -0.6509 -0.5691
  122CHL1  H15A15233   4.086   4.557  13.858  1.0068 -2.3503  0.4986
  122CHL1  H15B15234   4.258   4.538  13.825  1.0512  0.4804 -0.0218
  122CHL1   C1615235   4.211   4.713  13.960 -0.5842  0.0930  0.6192
  122CHL1  H16A15236   4.124   4.703  14.028 -3.8039  2.8430 -2.6919
  122CHL1  H16B15237   4.316   4.701  13.995  0.1007  1.3178 -0.8641
  122CHL1   C1715238   4.196   4.862  13.897 -0.2443 -0.0334 -0.0298
  122CHL1   H1715239   4.298   4.889  13.862 -0.3709 -1.4935 -1.6373
  122CHL1   C1315240   4.115   4.845  13.767  0.6711 -0.7801 -0.2610
  122CHL1   C1815241   3.961   4.818  13.801 -0.8670 -0.2143  1.1373
  122CHL1  H18A15242   3.900   4.783  13.715 -0.8086  2.5715 -0.1572
  122CHL1  H18B15243   3.941   4.740  13.878  0.8937 -1.9532 -0.1042
  122CHL1  H18C15244   3.908   4.911  13.830  0.6798  0.9327  0.4102
  122CHL1   C1215245   4.146   4.953  13.655  0.3679  0.5546  0.6307
  122CHL1  H12A15246   4.107   5.051  13.689  0.7212 -0.0682  3.0065
  122CHL1  H12B15247   4.252   4.953  13.621 -0.3704 -1.4902 -2.0647
  122CHL1   C1115248   4.066   4.909  13.520  0.2629  0.1643 -0.5372
  122CHL1  H11A15249   3.960   4.909  13.553 -0.5215  1.5867 -2.8237
  122CHL1  H11B15250   4.087   4.987  13.444  0.9141  1.3814  0.8313
  122CHL1    C915251   4.102   4.760  13.479 -0.0523 -0.3012  0.2321
  122CHL1    H915252   4.210   4.766  13.455 -0.1981  0.4806 -0.2580
  122CHL1   C1015253   4.036   4.709  13.354 -0.9248  0.4109  0.0064
  122CHL1   C1915254   3.883   4.717  13.381 -0.1027  0.4500  0.1654
  122CHL1  H19A15255   3.837   4.818  13.388  0.0185  0.3993  1.9855
  122CHL1  H19B15256   3.829   4.672  13.294 -1.1266 -0.8095  1.4132
  122CHL1  H19C15257   3.850   4.674  13.478 -2.2006  1.2636 -0.1243
  122CHL1    C115258   4.072   4.796  13.235  0.2182 -0.1440 -0.5833
  122CHL1   H1A15259   4.010   4.888  13.231  0.0066 -0.3012 -0.9005
  122CHL1   H1B15260   4.178   4.831  13.239 -0.2229  1.1367  1.4036
  122CHL1    C215261   4.040   4.751  13.096 -0.4348  0.9493  0.6767
  122CHL1   H2A15262   4.092   4.805  13.014 -0.2861  0.3556  0.3760
  122CHL1   H2B15263   3.930   4.740  13.092 -0.4819  1.5046  0.3876
  122CHL1   C2015264   4.145   4.962  14.006  1.3373  0.9594 -0.4349
  122CHL1   H2015265   4.041   4.938  14.037  1.1399  0.3175 -1.5547
  122CHL1   C2115266   4.145   5.102  13.943  0.1997 -1.5792  0.0701
  122CHL1  H21A15267   4.133   5.190  14.010 -3.0866  1.2168 -3.6484
  122CHL1  H21B15268   4.070   5.115  13.862  2.3614 -0.7389 -1.9410
  122CHL1  H21C15269   4.236   5.123  13.882 -1.4921  1.6259 -1.6648
  122CHL1   C2215270   4.230   4.974  14.138  0.2222  0.1292 -0.3866
  122CHL1  H22A15271   4.247   4.871  14.176  0.9456  0.6153  0.6438
  122CHL1  H22B15272   4.326   5.027  14.121  1.8217 -2.8017 -1.1513
  122CHL1   C2315273   4.144   5.042  14.247 -0.0060 -0.6071  0.0742
  122CHL1  H23A15274   4.115   5.142  14.208 -2.3525 -1.0147  0.6513
  122CHL1  H23B15275   4.048   4.985  14.249  0.3907 -1.3518 -0.8145
  122CHL1   C2415276   4.214   5.069  14.381 -0.3296  0.0358 -0.3085
  122CHL1  H24A15277   4.256   4.972  14.414  0.7354  1.2276  2.0634
  122CHL1  H24B15278   4.305   5.127  14.354  0.6969 -0.9530  0.9173
  122CHL1   C2515279   4.152   5.153  14.496  0.0886  0.0456  0.3855
  122CHL1   H2515280   4.064   5.097  14.535  2.6693 -4.0156  1.0368
  122CHL1   C2615281   4.264   5.158  14.603 -0.1098 -0.2320 -0.9972
  122CHL1  H26A15282   4.215   5.189  14.698 -1.2106  0.3110 -1.7100
  122CHL1  H26B15283   4.305   5.055  14.613  1.3648  0.4665  0.5063
  122CHL1  H26C15284   4.343   5.231  14.576 -0.9232  1.9057  2.0248
  122CHL1   C2715285   4.106   5.294  14.446 -0.4892 -0.2707 -0.7691
  122CHL1  H27A15286   4.198   5.350  14.418  1.6595 -3.3242 -0.3577
  122CHL1  H27B15287   4.034   5.292  14.361  0.0885 -1.6284 -1.2696
  122CHL1  H27C15288   4.056   5.352  14.526  2.3233  0.5553  0.5334
  123CHL1    C315289   5.160   3.610  13.175  0.9296 -0.4731  0.8709
  123CHL1    H315290   5.266   3.641  13.165  1.2963 -1.5671  1.2115
  123CHL1    O315291   5.117   3.539  13.053  0.3180  0.7059 -0.0850
  123CHL1   H3'15292   5.147   3.448  13.067  0.5783  0.9595  1.1179
  123CHL1    C415293   5.152   3.520  13.295 -0.1745  0.2683 -0.5307
  123CHL1   H4A15294   5.053   3.476  13.319 -1.0827  3.7004  3.3692
  123CHL1   H4B15295   5.219   3.432  13.290 -1.3092 -0.8416  2.0874
  123CHL1    C515296   5.180   3.597  13.427 -0.2849 -0.1211  0.5572
  123CHL1    C615297   5.277   3.549  13.505 -0.0515  0.4773 -0.5968
  123CHL1    H615298   5.345   3.470  13.472 -0.0828  1.1384 -2.3735
  123CHL1    C715299   5.311   3.615  13.633 -0.1361  0.0942 -0.2198
  123CHL1   H7A15300   5.336   3.534  13.705  2.0827 -0.4018 -1.4749
  123CHL1   H7B15301   5.406   3.669  13.613  1.0257 -1.3325  1.1153
  123CHL1    C815302   5.200   3.711  13.692 -0.3770  0.0092  1.1953
  123CHL1    H815303   5.121   3.642  13.729 -1.7053  1.7241  1.6700
  123CHL1   C1415304   5.252   3.791  13.810  0.6248  0.2333  0.3121
  123CHL1   H1415305   5.341   3.843  13.768  0.5084 -0.9205 -1.4288
  123CHL1   C1515306   5.308   3.709  13.931 -0.3755 -0.8053 -0.4408
  123CHL1  H15A15307   5.237   3.631  13.964 -2.7573  1.8096  1.0807
  123CHL1  H15B15308   5.408   3.671  13.900  0.5439  0.5479  0.7315
  123CHL1   C1615309   5.320   3.819  14.037 -0.0398  0.0591  0.5266
  123CHL1  H16A15310   5.286   3.764  14.127 -0.4157 -0.0735  0.3066
  123CHL1  H16B15311   5.427   3.850  14.039  0.4851 -1.6580  0.8516
  123CHL1   C1715312   5.236   3.937  13.990  0.0094 -0.1729 -0.3459
  123CHL1   H1715313   5.300   4.018  13.949 -0.6426  0.3221 -0.4111
  123CHL1   C1315314   5.147   3.893  13.868  0.3711 -0.1614  0.1194
  123CHL1   C1815315   5.022   3.815  13.912 -0.2961  0.2100 -0.4884
  123CHL1  H18A15316   5.046   3.747  13.996  0.3367 -0.2639 -1.0370
  123CHL1  H18B15317   4.943   3.882  13.953  0.4022  2.0743 -2.0468
  123CHL1  H18C15318   4.965   3.758  13.835 -0.9707  0.9900 -0.5848
  123CHL1   C1215319   5.126   3.992  13.748 -0.4175  0.5710  0.3984
  123CHL1  H12A15320   5.050   4.066  13.779 -3.7447 -2.3836 -0.0537
  123CHL1  H12B15321   5.223   4.040  13.724 -1.0606  1.5284 -0.3384
  123CHL1   C1115322   5.052   3.922  13.627 -0.5197 -0.3954 -0.9296
  123CHL1  H11A15323   4.945   3.908  13.653 -0.4863  1.3065  0.2887
  123CHL1  H11B15324   5.056   4.005  13.554  0.0650 -0.1110 -0.5865
  123CHL1    C915325   5.142   3.803  13.579  0.3779 -0.0901  0.2707
  123CHL1    H915326   5.227   3.862  13.540 -1.1685  1.2613 -1.2385
  123CHL1   C1015327   5.086   3.717  13.459 -0.5435  0.7208 -0.1632
  123CHL1   C1915328   4.949   3.653  13.491 -0.3325 -0.1979 -0.1194
  123CHL1  H19A15329   4.951   3.577  13.572 -0.2902  0.2956  0.3464
  123CHL1  H19B15330   4.879   3.736  13.515  0.5323  0.0002  1.9124
  123CHL1  H19C15331   4.906   3.601  13.402  0.2791  0.4120 -0.7843
  123CHL1    C115332   5.093   3.798  13.331  0.0203 -0.4344  0.3117
  123CHL1   H1A15333   5.019   3.880  13.331  1.2292  0.7002  0.6166
  123CHL1   H1B15334   5.196   3.841  13.327  0.6208 -1.8084  0.5037
  123CHL1    C215335   5.066   3.728  13.195 -0.1706 -0.7008 -0.0253
  123CHL1   H2A15336   5.079   3.804  13.115  0.1425  1.7938  2.2580
  123CHL1   H2B15337   4.959   3.699  13.194 -0.1438 -0.9254 -2.4768
  123CHL1   C2015338   5.162   4.001  14.099  0.0999  0.6781 -0.3167
  123CHL1   H2015339   5.091   3.922  14.131 -0.1490  0.1151 -2.1645
  123CHL1   C2115340   5.079   4.124  14.059  0.1860  0.0430 -0.0049
  123CHL1  H21A15341   5.004   4.093  13.983 -1.3742  0.5378  1.2716
  123CHL1  H21B15342   5.136   4.211  14.019  1.0087 -0.0938  0.8509
  123CHL1  H21C15343   5.027   4.159  14.151  2.0711  0.0351  1.0983
  123CHL1   C2215344   5.258   4.057  14.220 -0.0018  0.3422 -0.4940
  123CHL1  H22A15345   5.304   3.968  14.269  1.2782  1.8049  1.0828
  123CHL1  H22B15346   5.342   4.112  14.173 -1.0049 -0.4386 -3.3849
  123CHL1   C2315347   5.184   4.137  14.330 -0.1689 -0.2274  0.7385
  123CHL1  H23A15348   5.148   4.237  14.297 -1.6916 -1.2185 -0.8098
  123CHL1  H23B15349   5.100   4.080  14.375 -1.4498  0.7903 -0.2796
  123CHL1   C2415350   5.280   4.176  14.448 -0.3985 -0.6960 -0.6898
  123CHL1  H24A15351   5.347   4.098  14.491  0.8462 -0.1704 -1.6245
  123CHL1  H24B15352   5.355   4.243  14.400 -1.0334  0.0502 -0.6567
  123CHL1   C2515353   5.209   4.260  14.561 -0.3716 -0.6285  0.1161
  123CHL1   H2515354   5.136   4.330  14.514 -0.9670 -0.7482  0.8451
  123CHL1   C2615355   5.145   4.164  14.659  0.4284  0.0478  0.0207
  123CHL1  H26A15356   5.072   4.103  14.602  0.8115 -0.8378  0.4442
  123CHL1  H26B15357   5.220   4.109  14.721 -2.0232 -1.5233  1.7821
  123CHL1  H26C15358   5.085   4.223  14.731 -0.3874  0.9076 -1.3297
  123CHL1   C2715359   5.297   4.366  14.626 -0.7847  0.2100  0.0672
  123CHL1  H27A15360   5.249   4.415  14.713  1.7240 -1.4383  2.5768
  123CHL1  H27B15361   5.387   4.321  14.674 -0.4547  0.4739 -0.2974
  123CHL1  H27C15362   5.332   4.444  14.555 -0.6700  0.5860  0.5316
  124CHL1    C315363   4.483   5.438  12.993 -0.1387 -1.1131 -0.0625
  124CHL1    H315364   4.434   5.386  13.078  0.9130 -0.8309  0.7505
  124CHL1    O315365   4.484   5.354  12.882 -0.1830  0.3792 -0.7179
  124CHL1   H3'15366   4.559   5.378  12.826 -1.6300  2.1069 -2.0444
  124CHL1    C415367   4.408   5.563  12.957 -0.1352 -0.0125 -0.9845
  124CHL1   H4A15368   4.450   5.607  12.864 -0.4987  0.5709 -0.8797
  124CHL1   H4B15369   4.303   5.535  12.936 -0.5732 -1.1681  2.1889
  124CHL1    C515370   4.407   5.672  13.064  0.5680  0.2474 -0.1226
  124CHL1    C615371   4.293   5.716  13.115 -0.1321  0.4871 -0.0266
  124CHL1    H615372   4.197   5.679  13.077  0.6085  0.0607 -1.5382
  124CHL1    C715373   4.295   5.808  13.232 -0.1499 -0.7986 -0.1744
  124CHL1   H7A15374   4.213   5.881  13.219  0.8539  0.8275  2.0429
  124CHL1   H7B15375   4.267   5.751  13.323 -0.9176  1.2190  0.9120
  124CHL1    C815376   4.423   5.890  13.254 -0.7502  0.0146 -0.8449
  124CHL1    H815377   4.415   5.965  13.172 -5.6337 -0.0558 -0.7162
  124CHL1   C1415378   4.418   5.958  13.389  0.3650  0.6178 -0.5399
  124CHL1   H1415379   4.412   5.876  13.464 -1.4046  2.0603  1.0188
  124CHL1   C1515380   4.311   6.059  13.420  0.1099  0.5673 -0.0705
  124CHL1  H15A15381   4.308   6.125  13.331  1.0962  0.3974 -0.2331
  124CHL1  H15B15382   4.214   6.006  13.435  0.8780 -0.4124  1.7532
  124CHL1   C1615383   4.349   6.132  13.547  0.9916 -0.5060  0.1179
  124CHL1  H16A15384   4.332   6.240  13.531  2.3325 -0.0967  1.2136
  124CHL1  H16B15385   4.292   6.094  13.634 -0.2991 -0.1032 -0.5390
  124CHL1   C1715386   4.499   6.085  13.572  0.7308  0.0908  0.0896
  124CHL1   H1715387   4.484   5.994  13.634 -1.5905  0.8738  0.7963
  124CHL1   C1315388   4.544   6.033  13.427  0.0603  0.5291  0.9079
  124CHL1   C1815389   4.571   6.160  13.338 -0.7118  0.2182 -0.5805
  124CHL1  H18A15390   4.604   6.125  13.238  1.5745 -1.2370  0.6017
  124CHL1  H18B15391   4.492   6.237  13.324 -0.7404  0.1687 -0.6908
  124CHL1  H18C15392   4.664   6.211  13.373 -1.2297  3.1336 -3.0183
  124CHL1   C1215393   4.662   5.931  13.431 -0.5608 -0.0031 -0.4604
  124CHL1  H12A15394   4.758   5.986  13.444 -1.5278  2.1187 -1.7845
  124CHL1  H12B15395   4.641   5.860  13.513 -0.3519  0.9654  0.4600
  124CHL1   C1115396   4.676   5.865  13.293 -0.0454 -0.5860 -0.0069
  124CHL1  H11A15397   4.714   5.944  13.225 -1.9979  0.7205  0.3317
  124CHL1  H11B15398   4.753   5.787  13.309  0.0133 -0.3860  0.7612
  124CHL1    C915399   4.543   5.797  13.250 -0.4172  0.4397  0.8447
  124CHL1    H915400   4.523   5.731  13.337  0.5359 -2.0318 -0.7328
  124CHL1   C1015401   4.547   5.707  13.119 -0.0882 -0.2010  0.0533
  124CHL1   C1915402   4.622   5.795  13.014  0.3682 -0.3453 -0.1703
  124CHL1  H19A15403   4.731   5.814  13.025  0.4745  0.5029 -2.2282
  124CHL1  H19B15404   4.606   5.750  12.914  0.5113  1.2327 -0.9327
  124CHL1  H19C15405   4.571   5.893  13.010 -0.1312 -0.3499  3.0946
  124CHL1    C115406   4.623   5.573  13.151 -0.2360 -0.2999  0.3386
  124CHL1   H1A15407   4.729   5.600  13.170 -0.6871 -0.3660  3.5707
  124CHL1   H1B15408   4.585   5.530  13.246  2.7566 -1.1849  1.2346
  124CHL1    C215409   4.632   5.469  13.036  0.5565  0.2653 -0.0973
  124CHL1   H2A15410   4.687   5.377  13.065 -0.5596 -0.7834 -1.2477
  124CHL1   H2B15411   4.682   5.526  12.954 -0.2632  0.6974 -0.3012
  124CHL1   C2015412   4.586   6.186  13.654 -0.3456 -0.2611  0.1192
  124CHL1   H2015413   4.636   6.256  13.583 -2.5368 -0.2256 -1.4616
  124CHL1   C2115414   4.709   6.105  13.714  0.3854 -0.1587 -0.2433
  124CHL1  H21A15415   4.765   6.159  13.793 -1.1580  0.6752  0.3330
  124CHL1  H21B15416   4.786   6.091  13.636 -0.0751 -1.7735 -0.4511
  124CHL1  H21C15417   4.658   6.012  13.749 -0.5616  0.6916  0.7030
  124CHL1   C2215418   4.524   6.264  13.770  0.6512 -0.7001 -0.3763
  124CHL1  H22A15419   4.593   6.341  13.810 -1.6448  1.8784 -1.0576
  124CHL1  H22B15420   4.436   6.312  13.720  1.2955  2.6122  1.3987
  124CHL1   C2315421   4.466   6.188  13.886 -0.3031  0.1647 -0.2985
  124CHL1  H23A15422   4.401   6.103  13.856 -1.8633  1.3964 -0.5339
  124CHL1  H23B15423   4.552   6.150  13.944 -0.3164 -1.0545 -1.0356
  124CHL1   C2415424   4.386   6.289  13.972  0.0731 -0.2134 -0.5112
  124CHL1  H24A15425   4.450   6.378  13.986 -0.7913  0.5445 -1.2268
  124CHL1  H24B15426   4.305   6.327  13.906  0.6127 -0.0908 -1.1115
  124CHL1   C2515427   4.315   6.238  14.101 -0.4548  0.1899  0.1918
  124CHL1   H2515428   4.223   6.178  14.082  0.2875 -0.2047 -2.5373
  124CHL1   C2615429   4.410   6.143  14.179 -0.3724  0.3205  0.3372
  124CHL1  H26A15430   4.416   6.043  14.130  1.3358 -0.9904  3.0064
  124CHL1  H26B15431   4.514   6.178  14.192  0.4233 -1.4514 -0.8260
  124CHL1  H26C15432   4.374   6.125  14.282 -1.4884 -0.4339 -0.1621
  124CHL1   C2715433   4.275   6.355  14.183  0.0025  0.1055  0.1927
  124CHL1  H27A15434   4.200   6.329  14.260  1.6893 -0.9709  1.5296
  124CHL1  H27B15435   4.366   6.406  14.220  1.6833 -0.4866 -2.8176
  124CHL1  H27C15436   4.220   6.423  14.114  0.6087  2.2881  1.7470
  125CHL1    C315437   4.962   5.442  13.476  0.5731  0.4014  0.2892
  125CHL1    H315438   4.928   5.358  13.540  0.8462 -0.5057 -0.7179
  125CHL1    O315439   4.982   5.406  13.340  0.4860  0.1262 -0.3033
  125CHL1   H3'15440   4.927   5.331  13.317  1.0486 -0.3719 -0.0730
  125CHL1    C415441   4.858   5.548  13.479  0.3144  0.1738 -0.2224
  125CHL1   H4A15442   4.889   5.635  13.416 -1.0983  1.3802  0.6708
  125CHL1   H4B15443   4.765   5.508  13.432 -0.9693  2.6358  0.0384
  125CHL1    C515444   4.826   5.610  13.614 -0.4241  0.1767 -0.3684
  125CHL1    C615445   4.698   5.621  13.651  0.2530  0.4026  0.4934
  125CHL1    H615446   4.628   5.576  13.579  0.4713 -0.1643  0.6313
  125CHL1    C715447   4.651   5.679  13.785  0.3372  0.1647  0.0741
  125CHL1   H7A15448   4.563   5.746  13.776  1.0219  0.8033 -3.4108
  125CHL1   H7B15449   4.615   5.591  13.843  1.1234  0.4528  1.0263
  125CHL1    C815450   4.771   5.749  13.860 -0.3735  0.7507 -0.2470
  125CHL1    H815451   4.797   5.851  13.826  1.3394  0.9531  1.4916
  125CHL1   C1415452   4.737   5.750  14.009  0.2882 -0.4688  0.5299
  125CHL1   H1415453   4.731   5.642  14.033 -0.5651 -0.6067 -0.2573
  125CHL1   C1515454   4.594   5.816  14.043  0.1646  0.1222  0.5028
  125CHL1  H15A15455   4.570   5.911  13.991 -1.5853 -0.1311  0.7884
  125CHL1  H15B15456   4.516   5.744  14.007  3.5320 -3.0113 -1.2175
  125CHL1   C1615457   4.611   5.835  14.193  0.2200 -0.4360  0.2996
  125CHL1  H16A15458   4.586   5.940  14.219 -1.0085 -0.7401  0.4123
  125CHL1  H16B15459   4.528   5.781  14.245 -0.7003  0.0692 -0.6012
  125CHL1   C1715460   4.760   5.797  14.235 -0.3752  0.3407  0.1484
  125CHL1   H1715461   4.760   5.686  14.249  1.4563 -0.0151 -2.1034
  125CHL1   C1315462   4.840   5.817  14.103  0.0409  0.1636 -0.0499
  125CHL1   C1815463   4.860   5.969  14.065 -0.3014 -0.8517  0.0433
  125CHL1  H18A15464   4.946   5.985  13.996 -1.0000 -1.5807 -1.0098
  125CHL1  H18B15465   4.773   6.010  14.011  0.1360 -0.9193 -0.7311
  125CHL1  H18C15466   4.883   6.040  14.148  2.3566 -0.9802 -0.5023
  125CHL1   C1215467   4.966   5.739  14.088  0.5535  0.0453 -0.3017
  125CHL1  H12A15468   5.045   5.792  14.146 -0.0618 -0.1540  0.7484
  125CHL1  H12B15469   4.953   5.637  14.129  2.1358  0.0579  0.3287
  125CHL1   C1115470   5.017   5.723  13.944  0.1327 -0.6478  0.5062
  125CHL1  H11A15471   5.050   5.826  13.917 -2.7878  0.5362  1.1044
  125CHL1  H11B15472   5.114   5.667  13.942  0.6088  0.1787 -1.3681
  125CHL1    C915473   4.907   5.666  13.846 -0.0151 -0.2845 -0.5591
  125CHL1    H915474   4.893   5.560  13.877  1.4118 -1.0998 -2.5031
  125CHL1   C1015475   4.946   5.644  13.699 -0.0972  0.3030 -0.5568
  125CHL1   C1915476   4.996   5.777  13.644 -0.6956  0.4107 -0.5533
  125CHL1  H19A15477   5.104   5.797  13.658 -1.2797  2.5909  1.7419
  125CHL1  H19B15478   4.987   5.782  13.533  0.4026  0.2285 -0.6553
  125CHL1  H19C15479   4.946   5.869  13.682 -0.1699 -0.2466  1.9313
  125CHL1    C115480   5.062   5.539  13.688 -0.1254 -0.1567  0.0420
  125CHL1   H1A15481   5.157   5.579  13.728 -1.0029  2.4089 -0.2454
  125CHL1   H1B15482   5.024   5.453  13.748 -0.5693  1.7476  2.6924
  125CHL1    C215483   5.089   5.489  13.543  0.3787 -0.2916 -0.2813
  125CHL1   H2A15484   5.154   5.399  13.554 -2.1802 -2.2180  0.1876
  125CHL1   H2B15485   5.149   5.567  13.493  0.8571  0.2942  1.1510
  125CHL1   C2015486   4.808   5.865  14.367  0.9109 -0.9310 -0.7123
  125CHL1   H2015487   4.807   5.975  14.352 -1.8303 -0.4792  1.7851
  125CHL1   C2115488   4.948   5.817  14.401 -0.1237 -0.4506  0.0038
  125CHL1  H21A15489   5.027   5.868  14.342 -1.0957  1.7352  0.4780
  125CHL1  H21B15490   4.954   5.709  14.378  0.5553 -0.0785 -1.7040
  125CHL1  H21C15491   4.982   5.833  14.506  2.6701 -2.0035 -0.5676
  125CHL1   C2215492   4.716   5.834  14.485  0.4105 -0.2583  0.1295
  125CHL1  H22A15493   4.612   5.869  14.465  1.0728  0.7579 -1.7475
  125CHL1  H22B15494   4.699   5.726  14.504 -0.1387 -0.1931  0.0164
  125CHL1   C2315495   4.736   5.914  14.613  0.3557 -0.5032  0.3233
  125CHL1  H23A15496   4.827   5.879  14.668  0.4332 -1.1485 -0.2138
  125CHL1  H23B15497   4.749   6.020  14.582  0.2379 -0.8808 -1.0540
  125CHL1   C2415498   4.623   5.907  14.706  0.4206 -0.3869  0.0691
  125CHL1  H24A15499   4.526   5.919  14.653 -0.1548 -0.0345  1.1526
  125CHL1  H24B15500   4.611   5.804  14.746 -0.0153 -0.7791 -1.0363
  125CHL1   C2515501   4.626   6.006  14.832 -0.8103  0.2562  0.3046
  125CHL1   H2515502   4.696   6.089  14.805  0.2241 -0.9566 -0.8987
  125CHL1   C2615503   4.487   6.053  14.871  0.0750 -0.3318  0.6964
  125CHL1  H26A15504   4.502   6.140  14.939 -0.5565  1.2330 -1.0913
  125CHL1  H26B15505   4.440   6.096  14.780 -0.8382  2.1596  2.2518
  125CHL1  H26C15506   4.429   5.969  14.915  0.9445 -0.6729  1.2222
  125CHL1   C2715507   4.682   5.936  14.949 -0.5808  0.7109 -0.5254
  125CHL1  H27A15508   4.702   6.004  15.035  2.9614  0.3303 -0.8950
  125CHL1  H27B15509   4.621   5.852  14.988 -3.2707  3.5631  1.8985
  125CHL1  H27C15510   4.780   5.896  14.916 -2.2370 -2.3939 -2.1260
  126CHL1    C315511   1.843   5.981  12.951 -0.4418  0.2844  0.7368
  126CHL1    H315512   1.817   5.876  12.925 -0.4136 -0.2654  2.8153
  126CHL1    O315513   1.846   6.064  12.833  0.3161  0.3934  0.1231
  126CHL1   H3'15514   1.865   6.154  12.859  3.6017 -0.2922  0.4712
  126CHL1    C415515   1.735   6.034  13.037  0.0020  0.7309 -0.3773
  126CHL1   H4A15516   1.766   6.140  13.049  2.5593  0.0228 -0.1839
  126CHL1   H4B15517   1.641   6.037  12.977 -1.0584 -1.7896  1.0008
  126CHL1    C515518   1.715   5.979  13.173  0.3811  0.2991 -0.8398
  126CHL1    C615519   1.597   5.933  13.207  1.2867 -0.4784  0.0119
  126CHL1    H615520   1.514   5.936  13.135  1.7316  0.0073 -0.4848
  126CHL1    C715521   1.568   5.877  13.338 -0.0628 -0.2656  0.3374
  126CHL1   H7A15522   1.469   5.914  13.374  1.2582  3.2455  0.6574
  126CHL1   H7B15523   1.566   5.766  13.326 -0.5450 -0.3229  0.8761
  126CHL1    C815524   1.680   5.908  13.436  0.2875 -0.0191 -0.0845
  126CHL1    H815525   1.667   6.016  13.459 -0.6362  0.4039 -2.2868
  126CHL1   C1415526   1.666   5.830  13.561 -0.2723 -0.5778  0.5020
  126CHL1   H1415527   1.675   5.724  13.528  3.4238 -0.7673  1.6873
  126CHL1   C1515528   1.531   5.838  13.633  0.3802 -0.1790 -0.1773
  126CHL1  H15A15529   1.508   5.946  13.645  0.5699 -0.1404 -0.1677
  126CHL1  H15B15530   1.443   5.786  13.588  0.3973  0.3262 -0.8110
  126CHL1   C1615531   1.561   5.778  13.770  0.9699 -0.2024  1.0404
  126CHL1  H16A15532   1.506   5.832  13.850 -0.5076 -1.2765  0.7968
  126CHL1  H16B15533   1.527   5.672  13.766  1.7479 -0.4223 -1.0626
  126CHL1   C1715534   1.713   5.770  13.779  0.2491 -1.0986  0.0605
  126CHL1   H1715535   1.750   5.668  13.752  1.0430 -0.2353 -2.3702
  126CHL1   C1315536   1.773   5.855  13.668 -1.0219  0.4440  0.1316
  126CHL1   C1815537   1.777   6.004  13.710 -0.7211  0.8202 -0.2504
  126CHL1  H18A15538   1.867   6.011  13.774 -0.7087 -0.9854  0.0054
  126CHL1  H18B15539   1.786   6.069  13.620  0.2027 -0.2519 -0.9681
  126CHL1  H18C15540   1.691   6.023  13.777 -0.2778  2.7101 -0.1656
  126CHL1   C1215541   1.912   5.815  13.615  0.3258  0.6409 -0.4753
  126CHL1  H12A15542   1.993   5.838  13.688  0.0744  0.3859 -0.1077
  126CHL1  H12B15543   1.924   5.705  13.606  0.1345  0.7359 -2.1325
  126CHL1   C1115544   1.940   5.885  13.481 -0.7588  0.2763 -0.3415
  126CHL1  H11A15545   1.959   5.987  13.518 -0.5972  0.8684 -1.9749
  126CHL1  H11B15546   2.036   5.849  13.438 -0.9720  0.2049 -0.7658
  126CHL1    C915547   1.822   5.882  13.379  0.1307 -1.0000 -0.1632
  126CHL1    H915548   1.815   5.777  13.344 -0.3377 -0.9064 -0.3521
  126CHL1   C1015549   1.843   5.966  13.253 -0.4799 -0.5997 -0.7648
  126CHL1   C1915550   1.886   6.113  13.297  0.5869 -0.1952  0.2956
  126CHL1  H19A15551   1.922   6.185  13.221  0.1662  1.7927  1.8980
  126CHL1  H19B15552   1.815   6.170  13.362  0.1445  2.3411 -2.2129
  126CHL1  H19C15553   1.980   6.111  13.355 -0.9556 -1.3363  2.9755
  126CHL1    C115554   1.956   5.900  13.165  0.2106  0.6074 -0.3181
  126CHL1   H1A15555   2.057   5.880  13.207 -0.2243 -2.0675 -0.3487
  126CHL1   H1B15556   1.910   5.804  13.133  1.8287 -1.2256  2.3460
  126CHL1    C215557   1.976   5.971  13.028 -0.8735 -0.1138 -0.4664
  126CHL1   H2A15558   2.042   5.910  12.962 -0.8197 -1.1732  0.5337
  126CHL1   H2B15559   2.019   6.072  13.044 -1.7404  0.1509  0.2613
  126CHL1   C2015560   1.762   5.792  13.922 -0.4937 -0.4094  0.0503
  126CHL1   H2015561   1.747   5.898  13.952  2.2091  0.1146 -0.1910
  126CHL1   C2115562   1.917   5.760  13.941 -0.0300  0.2937  0.5151
  126CHL1  H21A15563   1.936   5.760  14.050  2.1473 -1.6670  0.2229
  126CHL1  H21B15564   1.993   5.827  13.896 -0.0640  0.2558  0.3992
  126CHL1  H21C15565   1.947   5.658  13.909  0.2436  0.3794  0.4914
  126CHL1   C2215566   1.691   5.703  14.032 -0.1810  0.2466  0.4539
  126CHL1  H22A15567   1.714   5.738  14.135  0.8482 -2.4256  1.2122
  126CHL1  H22B15568   1.581   5.702  14.017 -0.1130 -3.0920 -0.7361
  126CHL1   C2315569   1.724   5.556  14.026 -0.2925  0.2138  0.1796
  126CHL1  H23A15570   1.712   5.520  13.922 -1.3826  1.1945 -0.0568
  126CHL1  H23B15571   1.830   5.537  14.054  0.6992  0.4089 -3.0939
  126CHL1   C2415572   1.640   5.461  14.124 -0.3943 -0.7617 -0.0490
  126CHL1  H24A15573   1.690   5.480  14.221  1.1959 -2.4144 -0.4930
  126CHL1  H24B15574   1.534   5.496  14.130 -1.1179 -2.5499 -1.3332
  126CHL1   C2515575   1.643   5.312  14.093 -0.2653  0.3059 -0.4411
  126CHL1   H2515576   1.747   5.286  14.065  0.6562  1.8876  1.3028
  126CHL1   C2615577   1.622   5.230  14.226  0.1573 -0.0394 -0.3268
  126CHL1  H26A15578   1.541   5.283  14.281 -1.3653 -0.4745 -2.0493
  126CHL1  H26B15579   1.593   5.124  14.211  2.4392 -0.7824  0.1683
  126CHL1  H26C15580   1.711   5.231  14.292 -0.2828 -0.2305  0.2779
  126CHL1   C2715581   1.536   5.277  13.989 -0.7964 -0.4900  0.1521
  126CHL1  H27A15582   1.517   5.169  13.972 -1.8728 -0.1840 -0.7214
  126CHL1  H27B15583   1.441   5.325  14.020 -0.9381 -0.5005 -0.2656
  126CHL1  H27C15584   1.574   5.310  13.890 -1.1803  0.0046  0.1638
  127CHL1    C315585   2.729   6.757  12.853 -0.2792  0.5368  0.3320
  127CHL1    H315586   2.827   6.719  12.889  0.3750  2.6925  0.9484
  127CHL1    O315587   2.735   6.841  12.745 -0.4237  0.2546  0.3560
  127CHL1   H3'15588   2.655   6.892  12.761 -1.7208 -1.3134 -0.8226
  127CHL1    C415589   2.636   6.639  12.812  0.5070  0.4671  1.0476
  127CHL1   H4A15590   2.542   6.680  12.769  0.3324 -0.8598  0.0999
  127CHL1   H4B15591   2.674   6.579  12.727 -3.7946 -2.1129  0.6027
  127CHL1    C515592   2.588   6.553  12.931 -0.1698  0.2930 -0.3535
  127CHL1    C615593   2.601   6.419  12.933 -0.9956 -0.7837  0.5231
  127CHL1    H615594   2.638   6.360  12.848  1.4928  0.8041  0.3957
  127CHL1    C715595   2.552   6.333  13.039 -0.3210 -0.7556 -0.1876
  127CHL1   H7A15596   2.493   6.252  12.990 -1.4100  0.7445 -1.4684
  127CHL1   H7B15597   2.639   6.291  13.094 -0.1367  1.6677  1.4980
  127CHL1    C815598   2.464   6.409  13.148  0.0655  0.7540 -0.8031
  127CHL1    H815599   2.364   6.407  13.099 -0.4803  0.3609  0.2859
  127CHL1   C1415600   2.450   6.327  13.272  0.1344 -0.4728 -0.6889
  127CHL1   H1415601   2.546   6.317  13.327  0.1686 -0.0478 -0.6675
  127CHL1   C1515602   2.420   6.177  13.245  0.1746  0.5590  0.1316
  127CHL1  H15A15603   2.353   6.174  13.157  0.3942  0.4915 -0.0345
  127CHL1  H15B15604   2.517   6.131  13.217  1.0542  2.4806 -0.1708
  127CHL1   C1615605   2.358   6.137  13.382  0.6557  0.0371  0.7694
  127CHL1  H16A15606   2.268   6.075  13.362 -0.5022  1.0857  2.5513
  127CHL1  H16B15607   2.435   6.071  13.429  2.1246  1.1426 -0.0094
  127CHL1   C1715608   2.344   6.271  13.466  0.1622  0.0566 -0.7583
  127CHL1   H1715609   2.436   6.271  13.528 -0.1907 -1.1162 -0.2119
  127CHL1   C1315610   2.348   6.391  13.368 -0.2344  0.2522  0.2746
  127CHL1   C1815611   2.212   6.400  13.300  0.2244  0.0832 -0.4057
  127CHL1  H18A15612   2.136   6.432  13.375 -0.7946 -0.4959 -1.1668
  127CHL1  H18B15613   2.215   6.470  13.214 -2.8014  0.1152 -0.6025
  127CHL1  H18C15614   2.173   6.301  13.268 -0.5753  0.3794 -0.3818
  127CHL1   C1215615   2.411   6.523  13.425  0.3195  0.8009  0.0343
  127CHL1  H12A15616   2.343   6.576  13.495 -2.4018 -0.4350 -1.5154
  127CHL1  H12B15617   2.506   6.485  13.469 -0.7414 -0.7978  1.0550
  127CHL1   C1115618   2.446   6.620  13.311 -0.0923 -0.9865 -0.2694
  127CHL1  H11A15619   2.346   6.662  13.289  0.8910  2.8480  1.7003
  127CHL1  H11B15620   2.501   6.712  13.341 -1.0161 -1.3635  2.9593
  127CHL1    C915621   2.510   6.549  13.189 -1.4285  0.7825  0.2958
  127CHL1    H915622   2.608   6.520  13.231 -1.9887 -1.2067  0.3396
  127CHL1   C1015623   2.530   6.631  13.058 -0.2661  0.2304  0.0247
  127CHL1   C1915624   2.401   6.704  13.032  0.9282  0.2283  0.3866
  127CHL1  H19A15625   2.376   6.781  13.109  0.0437  0.4889 -0.1507
  127CHL1  H19B15626   2.395   6.747  12.930 -1.3129  0.8120  0.7153
  127CHL1  H19C15627   2.311   6.639  13.032  1.2286 -0.2163 -0.8568
  127CHL1    C115628   2.638   6.747  13.088 -0.0635  0.0996  0.4300
  127CHL1   H1A15629   2.606   6.816  13.169 -0.4280  0.2211  0.1862
  127CHL1   H1B15630   2.729   6.691  13.119  0.4266  0.4568 -0.3275
  127CHL1    C215631   2.670   6.836  12.966 -0.0001  0.1075  0.4621
  127CHL1   H2A15632   2.734   6.921  12.998 -1.5167  1.7474 -0.7113
  127CHL1   H2B15633   2.576   6.885  12.932  0.3178  0.3671 -0.0511
  127CHL1   C2015634   2.224   6.262  13.562 -0.4103  0.1112  0.8317
  127CHL1   H2015635   2.137   6.264  13.493  1.2800  2.3050 -1.3989
  127CHL1   C2115636   2.237   6.369  13.664  0.2234  0.3327 -0.8672
  127CHL1  H21A15637   2.342   6.393  13.689 -0.3206  1.0698  0.8798
  127CHL1  H21B15638   2.180   6.354  13.758  0.8043 -1.2462 -0.7326
  127CHL1  H21C15639   2.190   6.461  13.623 -0.1511 -0.1166 -1.4688
  127CHL1   C2215640   2.202   6.128  13.635 -0.5173  0.5759  0.1316
  127CHL1  H22A15641   2.112   6.136  13.700  1.0584  3.0945  2.1886
  127CHL1  H22B15642   2.189   6.050  13.557  0.7502  0.0552  0.4138
  127CHL1   C2315643   2.329   6.073  13.714  0.8009  0.2651  0.4788
  127CHL1  H23A15644   2.400   6.050  13.632  1.8140  3.7002  0.2211
  127CHL1  H23B15645   2.366   6.159  13.775 -2.0491  1.8459  0.1571
  127CHL1   C2415646   2.302   5.954  13.804  0.1392  0.9417 -0.0019
  127CHL1  H24A15647   2.235   5.986  13.887  0.0223 -0.9311  0.6562
  127CHL1  H24B15648   2.249   5.873  13.750  0.8793  0.7627 -0.4704
  127CHL1   C2515649   2.421   5.875  13.868  0.7153  0.5962  0.2528
  127CHL1   H2515650   2.494   5.868  13.784 -0.4187 -1.4855 -0.6226
  127CHL1   C2615651   2.485   5.954  13.987  0.1350 -0.3608  0.4492
  127CHL1  H26A15652   2.589   5.916  13.997  0.7198  0.3101 -2.2760
  127CHL1  H26B15653   2.477   6.062  13.964 -2.3237 -0.6406 -0.2242
  127CHL1  H26C15654   2.430   5.934  14.081 -1.2008  3.4333  0.6398
  127CHL1   C2715655   2.400   5.734  13.923  0.6638  0.1924  0.0299
  127CHL1  H27A15656   2.322   5.721  14.001 -1.1890  2.5585 -1.2547
  127CHL1  H27B15657   2.354   5.682  13.836  1.5352  0.0477 -0.3511
  127CHL1  H27C15658   2.498   5.684  13.939  1.9914  1.9646 -1.8867
  128CHL1    C315659   2.227   1.733  13.149  0.1736 -0.1449 -0.3232
  128CHL1    H315660   2.232   1.843  13.162 -0.8810 -0.1374  0.1317
  128CHL1    O315661   2.276   1.714  13.018 -0.4029  0.3631  0.2764
  128CHL1   H3'15662   2.310   1.624  13.008  3.9149  1.6952  0.8868
  128CHL1    C415663   2.325   1.672  13.249 -0.3821  0.1133 -0.4037
  128CHL1   H4A15664   2.335   1.565  13.220  2.4591  0.0415  0.4927
  128CHL1   H4B15665   2.427   1.708  13.225  0.3520 -2.4171 -1.3736
  128CHL1    C515666   2.276   1.685  13.389  0.4774 -0.3518  0.1602
  128CHL1    C615667   2.348   1.757  13.474  0.0176  0.2071 -0.0753
  128CHL1    H615668   2.445   1.796  13.441 -0.3627  2.7606  1.6032
  128CHL1    C715669   2.314   1.772  13.624 -0.4987  0.1819  1.1101
  128CHL1   H7A15670   2.403   1.742  13.683 -0.1735 -1.4544 -0.1508
  128CHL1   H7B15671   2.282   1.877  13.643 -3.0611 -0.1270 -0.9382
  128CHL1    C815672   2.199   1.682  13.667 -0.1964  0.4135 -0.4624
  128CHL1    H815673   2.233   1.577  13.672 -1.8173 -0.0847  2.6937
  128CHL1   C1415674   2.148   1.718  13.805  0.3171  0.5298  0.1809
  128CHL1   H1415675   2.118   1.823  13.781  1.3055  0.5905 -0.8960
  128CHL1   C1515676   2.257   1.735  13.914  0.2598  0.6309  0.3304
  128CHL1  H15A15677   2.323   1.645  13.918 -2.6817 -1.7224 -0.5911
  128CHL1  H15B15678   2.311   1.832  13.906  1.8386 -0.1949  0.5545
  128CHL1   C1615679   2.167   1.733  14.035 -0.3145 -0.2037 -0.0500
  128CHL1  H16A15680   2.186   1.641  14.093  1.4626  0.1053 -0.0687
  128CHL1  H16B15681   2.181   1.823  14.099 -0.7139 -0.1370 -0.0536
  128CHL1   C1715682   2.017   1.708  13.989  0.2780 -0.3243 -0.2555
  128CHL1   H1715683   1.972   1.809  13.974 -2.1937 -1.3374 -0.2187
  128CHL1   C1315684   2.027   1.646  13.849 -0.4565 -0.2740 -0.6070
  128CHL1   C1815685   2.068   1.504  13.872  0.8650 -0.2509 -0.3706
  128CHL1  H18A15686   2.135   1.489  13.959 -0.3492  0.1926  0.6767
  128CHL1  H18B15687   1.983   1.434  13.889  0.8339 -0.5383 -1.5901
  128CHL1  H18C15688   2.123   1.468  13.782  2.1878  2.0931 -0.5724
  128CHL1   C1215689   1.917   1.664  13.743  0.5363 -0.9748 -0.8383
  128CHL1  H12A15690   1.827   1.606  13.772  0.6102 -0.9046 -0.4644
  128CHL1  H12B15691   1.889   1.772  13.741  0.0711 -0.8855  3.0530
  128CHL1   C1115692   1.955   1.617  13.601 -0.0889  0.6846  0.1254
  128CHL1  H11A15693   1.965   1.506  13.605 -1.7685  0.4619 -0.9607
  128CHL1  H11B15694   1.873   1.644  13.532 -1.0045 -0.6006  0.6772
  128CHL1    C915695   2.087   1.686  13.559 -0.3437  0.3372  0.1979
  128CHL1    H915696   2.070   1.795  13.546  1.6614  0.5786 -0.8868
  128CHL1   C1015697   2.132   1.638  13.419 -0.4132  0.4460  0.0348
  128CHL1   C1915698   2.136   1.485  13.415 -0.1842  0.0903 -0.2014
  128CHL1  H19A15699   2.035   1.440  13.408 -0.5459  1.1152 -3.0777
  128CHL1  H19B15700   2.179   1.440  13.322  0.2501 -0.3737  0.2206
  128CHL1  H19C15701   2.191   1.439  13.500  2.0726 -0.9725 -2.1111
  128CHL1    C115702   2.041   1.702  13.311  0.6923  0.1998 -0.0795
  128CHL1   H1A15703   1.940   1.657  13.314  1.0813 -0.8215 -1.3832
  128CHL1   H1B15704   2.027   1.812  13.321  0.2793  0.1092  0.3784
  128CHL1    C215705   2.089   1.670  13.166 -0.5156 -0.4061 -0.1511
  128CHL1   H2A15706   2.021   1.709  13.088 -1.4353 -1.7412 -0.0352
  128CHL1   H2B15707   2.105   1.563  13.144  0.8316 -0.2042 -0.2571
  128CHL1   C2015708   1.943   1.647  14.112 -0.1562  0.4019  0.2120
  128CHL1   H2015709   1.991   1.551  14.139  1.1759  0.9643 -0.1166
  128CHL1   C2115710   1.798   1.623  14.068  0.3402  0.2607 -0.4165
  128CHL1  H21A15711   1.795   1.557  13.978 -2.3731  0.8982 -0.8840
  128CHL1  H21B15712   1.765   1.726  14.044  1.3516  0.3420 -1.5672
  128CHL1  H21C15713   1.742   1.586  14.156  2.0363  0.3961  0.7742
  128CHL1   C2215714   1.944   1.739  14.247  0.2623 -0.2108  0.2233
  128CHL1  H22A15715   2.050   1.763  14.268  0.2404 -1.3960  1.8764
  128CHL1  H22B15716   1.891   1.836  14.240 -0.5833 -0.3576  3.1684
  128CHL1   C2315717   1.870   1.679  14.363 -0.4089 -0.6779  0.2870
  128CHL1  H23A15718   1.763   1.702  14.349 -0.2371  0.2366  0.3944
  128CHL1  H23B15719   1.887   1.570  14.348 -1.0282 -1.0344  1.9711
  128CHL1   C2415720   1.915   1.726  14.500  0.0444 -0.3484  0.2035
  128CHL1  H24A15721   2.013   1.678  14.516  0.0661 -0.1841  0.5626
  128CHL1  H24B15722   1.919   1.837  14.509 -1.3793 -0.2600  0.0127
  128CHL1   C2515723   1.809   1.686  14.604  0.9992 -0.4553  1.0583
  128CHL1   H2515724   1.716   1.722  14.555  1.5912 -0.2788  0.0201
  128CHL1   C2615725   1.795   1.530  14.613 -0.4894 -0.0648  0.5009
  128CHL1  H26A15726   1.890   1.495  14.659  1.2281  1.5411 -1.6502
  128CHL1  H26B15727   1.710   1.498  14.677  0.6844  0.2452  2.3098
  128CHL1  H26C15728   1.799   1.480  14.514  1.8571 -0.2842  0.6380
  128CHL1   C2715729   1.823   1.739  14.744  0.1898 -0.6503 -0.4647
  128CHL1  H27A15730   1.738   1.718  14.814 -1.2713  0.2244 -1.9173
  128CHL1  H27B15731   1.914   1.691  14.786 -0.7730 -1.3053  0.9870
  128CHL1  H27C15732   1.842   1.848  14.738 -2.0780 -0.1801 -0.0615
  129CHL1    C315733   7.216   6.151  13.043 -0.4598  0.1699 -0.1134
  129CHL1    H315734   7.323   6.167  13.019  0.6552 -2.2347  2.5838
  129CHL1    O315735   7.136   6.234  12.964 -0.1972  0.0210  0.2502
  129CHL1   H3'15736   7.050   6.218  13.004  0.5260 -0.8295  1.5548
  129CHL1    C415737   7.194   6.001  13.003 -0.7940  0.3762  0.0973
  129CHL1   H4A15738   7.087   5.978  13.021 -0.5374  0.5712  2.1504
  129CHL1   H4B15739   7.203   5.984  12.894  0.9782  0.9514  0.1261
  129CHL1    C515740   7.267   5.903  13.093  0.1492  0.1338  0.4367
  129CHL1    C615741   7.343   5.803  13.040 -0.3848 -0.0655 -0.0929
  129CHL1    H615742   7.340   5.778  12.933  0.1885  3.9393 -1.2499
  129CHL1    C715743   7.417   5.702  13.125 -0.4517  0.2004  0.3596
  129CHL1   H7A15744   7.412   5.596  13.092  0.0799  0.3505 -0.2103
  129CHL1   H7B15745   7.524   5.733  13.122 -0.3571  0.1505  2.0156
  129CHL1    C815746   7.395   5.704  13.276  0.2589  0.2090 -0.4424
  129CHL1    H815747   7.299   5.658  13.309  0.6732  0.3101  0.9566
  129CHL1   C1415748   7.503   5.635  13.366 -0.0567 -0.7082  0.4520
  129CHL1   H1415749   7.601   5.685  13.349 -0.0235  0.4495  3.4830
  129CHL1   C1515750   7.536   5.485  13.346 -0.3254  0.2176  0.2888
  129CHL1  H15A15751   7.448   5.423  13.323 -0.7733 -0.5567  3.5489
  129CHL1  H15B15752   7.610   5.478  13.263 -0.5685 -0.1854  0.1060
  129CHL1   C1615753   7.593   5.435  13.476 -0.2066  1.2640 -1.0164
  129CHL1  H16A15754   7.517   5.364  13.516  1.3715  1.2567  2.3335
  129CHL1  H16B15755   7.689   5.379  13.468 -1.3512 -0.8552 -0.5784
  129CHL1   C1715756   7.600   5.558  13.571  0.6688 -0.8826 -0.1216
  129CHL1   H1715757   7.690   5.615  13.541 -0.8612  0.7519 -1.9118
  129CHL1   C1315758   7.481   5.648  13.515 -0.0461 -0.2632 -0.0478
  129CHL1   C1815759   7.345   5.591  13.554 -0.5799 -0.0827  0.0005
  129CHL1  H18A15760   7.324   5.603  13.663 -0.5784  0.0815 -0.0171
  129CHL1  H18B15761   7.255   5.626  13.500 -0.0476  0.2639 -0.6767
  129CHL1  H18C15762   7.347   5.484  13.526 -2.1651  0.0894 -0.8543
  129CHL1   C1215763   7.484   5.803  13.555 -1.1253  0.8293  0.8299
  129CHL1  H12A15764   7.472   5.809  13.665  2.8505  1.5512  1.3778
  129CHL1  H12B15765   7.581   5.853  13.535 -0.0901 -0.8551  1.4830
  129CHL1   C1115766   7.376   5.878  13.476  0.2366  0.4028  1.0203
  129CHL1  H11A15767   7.281   5.839  13.519 -0.4347 -1.4809 -1.8864
  129CHL1  H11B15768   7.383   5.985  13.504 -0.9854  0.4779  1.1084
  129CHL1    C915769   7.375   5.847  13.320 -1.0644  0.1593 -0.0503
  129CHL1    H915770   7.470   5.894  13.286 -0.5488 -1.7896 -1.4850
  129CHL1   C1015771   7.261   5.926  13.238 -0.0196 -0.0763 -0.0267
  129CHL1   C1915772   7.126   5.873  13.287  0.0113  0.3667  0.2166
  129CHL1  H19A15773   7.131   5.872  13.398 -0.3573  2.3823  0.2857
  129CHL1  H19B15774   7.041   5.939  13.258 -0.8689  0.9102  3.6276
  129CHL1  H19C15775   7.106   5.767  13.261 -1.4586  0.3850  1.1849
  129CHL1    C115776   7.268   6.079  13.276 -0.2141  0.0685  0.1809
  129CHL1   H1A15777   7.264   6.092  13.386 -1.6727 -0.6557  0.2319
  129CHL1   H1B15778   7.369   6.117  13.248 -1.1244  1.1582 -1.9077
  129CHL1    C215779   7.187   6.171  13.185  0.5188 -0.2902 -0.5512
  129CHL1   H2A15780   7.220   6.274  13.213  0.4298  0.1832 -2.0679
  129CHL1   H2B15781   7.078   6.163  13.208  0.6809  1.0692  0.9165
  129CHL1   C2015782   7.596   5.521  13.719  0.0021  0.4566  0.3340
  129CHL1   H2015783   7.502   5.468  13.744 -0.1191 -0.9899 -2.7292
  129CHL1   C2115784   7.606   5.646  13.809  0.2260  0.2462 -0.3837
  129CHL1  H21A15785   7.504   5.688  13.815 -0.3487 -1.1780  0.2550
  129CHL1  H21B15786   7.672   5.723  13.764 -1.0092  0.7838 -1.3261
  129CHL1  H21C15787   7.653   5.615  13.906  2.0269  1.1245 -0.9213
  129CHL1   C2215788   7.707   5.415  13.758  0.0447 -0.2368 -0.5193
  129CHL1  H22A15789   7.695   5.413  13.869 -0.1894  0.9203 -0.5195
  129CHL1  H22B15790   7.688   5.308  13.733 -0.8087 -0.7017  1.8164
  129CHL1   C2315791   7.852   5.447  13.730  0.2083  0.4330 -0.0234
  129CHL1  H23A15792   7.855   5.463  13.620  0.6212  0.1624 -0.0558
  129CHL1  H23B15793   7.897   5.533  13.784  1.7546 -1.7897  2.5378
  129CHL1   C2415794   7.937   5.316  13.762 -0.1573 -0.5105 -0.7285
  129CHL1  H24A15795   7.954   5.296  13.870  2.4431 -2.2124 -1.3586
  129CHL1  H24B15796   7.878   5.234  13.715  0.0657 -1.5577  0.7609
  129CHL1   C2515797   8.081   5.322  13.710  0.7391 -0.1057 -0.1033
  129CHL1   H2515798   8.061   5.356  13.606 -0.6845  0.0418  0.1942
  129CHL1   C2615799   8.169   5.421  13.792 -0.4807  0.1272 -0.2783
  129CHL1  H26A15800   8.162   5.393  13.899  2.6355 -0.6404 -0.1854
  129CHL1  H26B15801   8.277   5.411  13.768 -0.6052 -2.1376 -0.0762
  129CHL1  H26C15802   8.136   5.525  13.771 -0.1167  0.2219 -0.3846
  129CHL1   C2715803   8.147   5.185  13.687  0.1260  0.6541  0.2758
  129CHL1  H27A15804   8.165   5.141  13.787  1.6531  0.0496 -0.2479
  129CHL1  H27B15805   8.093   5.112  13.622  1.3087  0.3271 -0.3682
  129CHL1  H27C15806   8.247   5.200  13.643  0.9331  0.6904  2.0546
  130CHL1    C315807   1.440   6.548  13.171  0.3581  0.1502 -1.0387
  130CHL1    H315808   1.420   6.439  13.181  1.9982 -0.1365 -0.7153
  130CHL1    O315809   1.559   6.583  13.103  0.3352 -0.3379 -0.2592
  130CHL1   H3'15810   1.552   6.548  13.014 -0.3070  1.4754 -0.9656
  130CHL1    C415811   1.313   6.616  13.101  0.2951  0.6695 -0.9553
  130CHL1   H4A15812   1.344   6.722  13.092  2.4172  0.2890  0.8750
  130CHL1   H4B15813   1.309   6.573  12.999  1.0788  0.3500 -0.8612
  130CHL1    C515814   1.182   6.606  13.181  0.5756 -0.2438  0.0365
  130CHL1    C615815   1.064   6.560  13.119 -0.1728 -0.5843 -0.7169
  130CHL1    H615816   1.072   6.526  13.015 -0.5011 -0.1639 -0.8851
  130CHL1    C715817   0.931   6.564  13.181  0.1592 -0.1302 -0.2153
  130CHL1   H7A15818   0.854   6.622  13.124 -2.2999 -0.7408  2.2727
  130CHL1   H7B15819   0.895   6.460  13.192 -0.7298  0.3742  2.3110
  130CHL1    C815820   0.922   6.620  13.323  0.4697 -0.3069 -0.2286
  130CHL1    H815821   0.909   6.730  13.320 -0.8840 -0.3912  1.1065
  130CHL1   C1415822   0.798   6.560  13.385  0.2196  0.0125 -0.1810
  130CHL1   H1415823   0.809   6.450  13.395 -1.3195 -0.0212  1.6389
  130CHL1   C1515824   0.657   6.580  13.325 -0.3445  0.3781 -0.8033
  130CHL1  H15A15825   0.647   6.681  13.280  1.3745  0.1835 -1.6659
  130CHL1  H15B15826   0.638   6.505  13.246 -0.3088  0.1356 -0.5845
  130CHL1   C1615827   0.563   6.555  13.441 -0.0397  0.2751 -0.1458
  130CHL1  H16A15828   0.509   6.652  13.450 -1.3916 -0.5926  1.7239
  130CHL1  H16B15829   0.494   6.470  13.424  1.7457 -1.2683  0.0923
  130CHL1   C1715830   0.651   6.528  13.571 -0.0509  0.4633  0.5071
  130CHL1   H1715831   0.678   6.421  13.564  1.5523  0.9451 -1.9837
  130CHL1   C1315832   0.786   6.597  13.534  0.4916  0.0725 -0.8186
  130CHL1   C1815833   0.755   6.761  13.546  0.1567  0.5613  0.4301
  130CHL1  H18A15834   0.648   6.783  13.523  0.6450  1.6314 -0.9391
  130CHL1  H18B15835   0.781   6.800  13.647  0.8139  0.0917  0.4525
  130CHL1  H18C15836   0.811   6.824  13.474  2.0752 -0.7700  0.6777
  130CHL1   C1215837   0.913   6.570  13.622 -0.9487 -0.2462 -0.0867
  130CHL1  H12A15838   0.899   6.600  13.728 -1.3332 -1.1208  0.1198
  130CHL1  H12B15839   0.932   6.460  13.615  1.4689  0.2078 -2.0897
  130CHL1   C1115840   1.045   6.628  13.550 -1.0834  0.3194 -0.6080
  130CHL1  H11A15841   1.031   6.738  13.542 -0.4473  0.4678  0.2550
  130CHL1  H11B15842   1.132   6.609  13.616 -1.1921  0.0503 -0.5422
  130CHL1    C915843   1.051   6.590  13.404 -0.0048  0.0137  0.2634
  130CHL1    H915844   1.042   6.479  13.403  0.5478 -0.0312 -0.8501
  130CHL1   C1015845   1.185   6.640  13.325  0.6410 -0.2367 -0.0337
  130CHL1   C1915846   1.194   6.792  13.336 -0.2444 -0.4190  0.4864
  130CHL1  H19A15847   1.220   6.810  13.442  0.9539 -1.9278  0.4911
  130CHL1  H19B15848   1.272   6.830  13.267 -0.5374  1.9995  1.3933
  130CHL1  H19C15849   1.104   6.851  13.306  0.7951 -0.2852 -2.8483
  130CHL1    C115850   1.307   6.581  13.392 -0.0999 -0.0676  0.6693
  130CHL1   H1A15851   1.332   6.616  13.494 -1.0785 -0.9795  1.2499
  130CHL1   H1B15852   1.278   6.475  13.410  1.6356 -0.9308 -1.1917
  130CHL1    C215853   1.443   6.602  13.314 -0.5453 -0.5339 -0.1704
  130CHL1   H2A15854   1.524   6.552  13.372 -1.5528 -0.8446  1.0194
  130CHL1   H2B15855   1.461   6.711  13.313 -0.8534 -0.4785  0.0973
  130CHL1   C2015856   0.573   6.559  13.701  0.7162 -0.3247 -0.8668
  130CHL1   H2015857   0.566   6.669  13.712 -0.4118 -0.3164 -1.4445
  130CHL1   C2115858   0.638   6.490  13.818 -0.5244 -0.4923  0.1751
  130CHL1  H21A15859   0.636   6.379  13.812 -1.2934 -0.4186 -1.2773
  130CHL1  H21B15860   0.587   6.509  13.915 -1.6862 -0.5340 -0.4037
  130CHL1  H21C15861   0.745   6.520  13.828 -0.8502  0.9709 -0.4388
  130CHL1   C2215862   0.423   6.523  13.679  0.0389  0.0656  0.0384
  130CHL1  H22A15863   0.357   6.565  13.600 -2.7313 -3.2552  0.3789
  130CHL1  H22B15864   0.417   6.415  13.656 -0.5191  0.2176 -0.5366
  130CHL1   C2315865   0.350   6.576  13.804 -0.0830  1.0180  0.7753
  130CHL1  H23A15866   0.373   6.519  13.897  0.5699  0.3239  0.2061
  130CHL1  H23B15867   0.386   6.679  13.820 -0.3367  1.1902  0.2548
  130CHL1   C2415868   0.200   6.582  13.774  0.7104 -0.6652  0.0581
  130CHL1  H24A15869   0.170   6.630  13.679 -1.5584  1.2272  1.6260
  130CHL1  H24B15870   0.158   6.479  13.783  0.1812 -0.3761  1.0506
  130CHL1   C2515871   0.134   6.666  13.890 -0.0100  0.6394  0.6836
  130CHL1   H2515872   0.196   6.627  13.973  0.7501 -0.2849 -0.2926
  130CHL1   C2615873   0.143   6.813  13.871  0.4541  1.0715  0.5523
  130CHL1  H26A15874   0.244   6.856  13.859  0.4787  1.1284  0.9324
  130CHL1  H26B15875   0.074   6.847  13.791 -0.4753  2.5942  1.9181
  130CHL1  H26C15876   0.097   6.867  13.957 -1.4365  0.5803 -0.0928
  130CHL1   C2715877  -0.010   6.620  13.924 -0.4216 -0.4641  0.6021
  130CHL1  H27A15878  -0.075   6.647  13.838 -1.5434 -0.7903  1.3266
  130CHL1  H27B15879  -0.014   6.509  13.926 -1.8829 -0.4191  1.4710
  130CHL1  H27C15880  -0.028   6.671  14.021  1.9486  2.4412 -0.3060
  131CHL1    C315881   2.808   5.506  13.216 -0.2821 -0.2355 -0.3762
  131CHL1    H315882   2.714   5.542  13.167  1.2488  0.2740 -3.1166
  131CHL1    O315883   2.833   5.380  13.158  0.0281 -0.0290 -0.3859
  131CHL1   H3'15884   2.925   5.356  13.162  0.1782  0.7204  1.6100
  131CHL1    C415885   2.920   5.597  13.161  0.0350 -0.6949 -0.5050
  131CHL1   H4A15886   3.022   5.564  13.190  0.0121  0.1699  0.6329
  131CHL1   H4B15887   2.919   5.588  13.050  2.1638 -0.6168 -0.5668
  131CHL1    C515888   2.907   5.739  13.211 -0.0329 -0.2465  0.2765
  131CHL1    C615889   2.883   5.837  13.131  0.2464  0.0997  0.1994
  131CHL1    H615890   2.887   5.827  13.021 -0.2836 -1.2044  0.2779
  131CHL1    C715891   2.866   5.983  13.181  0.1822  0.3345  0.0449
  131CHL1   H7A15892   2.926   6.058  13.126 -3.2682  2.4518 -1.1457
  131CHL1   H7B15893   2.761   6.017  13.172 -0.2133 -0.5792  1.0035
  131CHL1    C815894   2.889   6.006  13.337 -0.2180  0.5205  0.1765
  131CHL1    H815895   2.999   6.003  13.351  0.0033 -2.2334 -1.4831
  131CHL1   C1415896   2.832   6.138  13.387  0.0656  0.1943 -0.3016
  131CHL1   H1415897   2.725   6.130  13.357  0.4734  0.9226 -2.0314
  131CHL1   C1515898   2.886   6.268  13.324  0.6831 -0.7049  0.6552
  131CHL1  H15A15899   2.995   6.255  13.310  0.8833  0.3970  1.0848
  131CHL1  H15B15900   2.826   6.291  13.233  1.7347  0.4513  0.2327
  131CHL1   C1615901   2.841   6.373  13.429  0.1426 -0.2710 -0.0335
  131CHL1  H16A15902   2.940   6.411  13.462  1.5111 -3.3302 -0.3151
  131CHL1  H16B15903   2.782   6.458  13.388  1.2736  0.7697  0.4409
  131CHL1   C1715904   2.783   6.297  13.548 -0.6488 -0.3098 -0.4841
  131CHL1   H1715905   2.676   6.277  13.523 -0.1691 -1.1675 -1.9470
  131CHL1   C1315906   2.834   6.159  13.539 -0.4013 -0.1028  0.0884
  131CHL1   C1815907   2.983   6.163  13.598  0.4261 -0.2711  0.3279
  131CHL1  H18A15908   2.999   6.197  13.702 -0.5232  0.9990  0.0879
  131CHL1  H18B15909   3.026   6.062  13.578 -1.1406 -0.4739 -2.5118
  131CHL1  H18C15910   3.042   6.241  13.546 -0.5355  1.1000  1.2168
  131CHL1   C1215911   2.756   6.034  13.606  0.0825  0.5060 -0.3268
  131CHL1  H12A15912   2.765   6.041  13.717  1.1232 -0.7067 -0.3044
  131CHL1  H12B15913   2.650   6.034  13.574  0.7723  0.4008 -2.7682
  131CHL1   C1115914   2.824   5.901  13.562  0.1600 -0.6842  0.1069
  131CHL1  H11A15915   2.922   5.890  13.614  0.9564 -0.5234 -1.3069
  131CHL1  H11B15916   2.756   5.823  13.601  0.2998 -0.8863 -0.0498
  131CHL1    C915917   2.837   5.887  13.409 -0.0619  0.6334 -0.5980
  131CHL1    H915918   2.729   5.888  13.382 -0.3132  1.4508  0.3877
  131CHL1   C1015919   2.894   5.751  13.368  0.2718  0.0341  0.0220
  131CHL1   C1915920   3.032   5.730  13.425  0.1644  0.5684  0.4008
  131CHL1  H19A15921   3.100   5.814  13.399 -0.4305  1.6606  2.2047
  131CHL1  H19B15922   3.027   5.728  13.536 -0.5881  1.1041  0.3851
  131CHL1  H19C15923   3.070   5.633  13.388 -2.7667  0.2031 -2.0600
  131CHL1    C115924   2.802   5.638  13.433  0.1145 -0.3725  0.4707
  131CHL1   H1A15925   2.831   5.627  13.540  3.2864  0.5594 -0.2021
  131CHL1   H1B15926   2.694   5.664  13.422  0.3529 -0.0331 -1.2703
  131CHL1    C215927   2.817   5.496  13.372 -0.0350  0.4124  0.8014
  131CHL1   H2A15928   2.725   5.441  13.402 -0.7840  0.6019 -1.0276
  131CHL1   H2B15929   2.909   5.447  13.410 -0.2374 -0.3257  0.3577
  131CHL1   C2015930   2.791   6.380  13.685 -0.6194  0.2980  0.6333
  131CHL1   H2015931   2.899   6.395  13.707 -0.0481 -0.5332 -1.3760
  131CHL1   C2115932   2.723   6.306  13.805 -0.8230 -0.8396 -0.8675
  131CHL1  H21A15933   2.781   6.213  13.819 -0.0311 -0.2204  0.1573
  131CHL1  H21B15934   2.616   6.286  13.781 -1.5774 -0.1817  1.5968
  131CHL1  H21C15935   2.729   6.370  13.896  0.6285 -2.2334  0.0708
  131CHL1   C2215936   2.733   6.519  13.664 -0.2895 -0.7147 -0.6382
  131CHL1  H22A15937   2.789   6.563  13.579 -0.2778 -1.4723 -1.0313
  131CHL1  H22B15938   2.627   6.505  13.636  0.1412  0.8673 -3.4394
  131CHL1   C2315939   2.730   6.635  13.770 -0.1331  0.3148 -0.1860
  131CHL1  H23A15940   2.670   6.720  13.731 -0.6733  0.3889  0.7827
  131CHL1  H23B15941   2.669   6.595  13.854 -0.6322 -0.5839 -0.9482
  131CHL1   C2415942   2.862   6.684  13.812  0.5734  0.0790  0.0176
  131CHL1  H24A15943   2.933   6.603  13.839 -0.2928 -0.3370  1.1714
  131CHL1  H24B15944   2.916   6.738  13.732 -0.3116 -1.4917 -1.7098
  131CHL1   C2515945   2.840   6.763  13.938  0.2596  0.1996 -0.1993
  131CHL1   H2515946   2.771   6.714  14.010  0.8640  0.7099  0.7626
  131CHL1   C2615947   2.976   6.763  14.016 -0.5547 -0.1513 -0.1771
  131CHL1  H26A15948   2.972   6.823  14.109  1.1627  0.0491 -0.1875
  131CHL1  H26B15949   3.002   6.657  14.039  1.9762  0.3139 -0.5558
  131CHL1  H26C15950   3.058   6.801  13.951  0.7398 -2.2912  0.0930
  131CHL1   C2715951   2.786   6.906  13.926 -0.0689  0.5801 -0.0787
  131CHL1  H27A15952   2.801   6.959  14.023  2.3165  0.1816 -0.1682
  131CHL1  H27B15953   2.850   6.956  13.851  1.1083  0.5026  0.8353
  131CHL1  H27C15954   2.682   6.908  13.885 -0.1664 -1.4819 -0.0604
  132CHL1    C315955   3.837   8.310  12.806  0.2737  0.7388 -0.5011
  132CHL1    H315956   3.773   8.388  12.851 -0.7629 -1.4120  2.0372
  132CHL1    O315957   3.913   8.349  12.695 -0.1867  0.1116 -0.0859
  132CHL1   H3'15958   3.954   8.430  12.724 -2.6882  0.7318  2.0653
  132CHL1    C415959   3.935   8.261  12.914 -0.7317 -0.0742 -0.4962
  132CHL1   H4A15960   3.995   8.178  12.870 -1.1937 -1.7101  1.7484
  132CHL1   H4B15961   3.996   8.352  12.933 -1.1460  0.0388  0.3566
  132CHL1    C515962   3.861   8.222  13.038 -0.2155  0.1182 -0.0507
  132CHL1    C615963   3.886   8.266  13.162 -0.6139  0.6789 -1.3543
  132CHL1    H615964   3.972   8.335  13.165  0.3525 -0.3620 -3.4064
  132CHL1    C715965   3.825   8.222  13.292 -0.3061  0.0279 -0.3824
  132CHL1   H7A15966   3.907   8.200  13.364 -0.5086 -2.0145 -0.6957
  132CHL1   H7B15967   3.759   8.301  13.331  0.2705  1.1448 -1.5666
  132CHL1    C815968   3.744   8.090  13.261 -0.8537 -0.6055 -0.1743
  132CHL1    H815969   3.814   8.005  13.271 -3.7647 -3.0615  0.8345
  132CHL1   C1415970   3.647   8.063  13.379  0.3367  0.2559 -0.2110
  132CHL1   H1415971   3.569   8.141  13.366  1.1183  1.4147  1.6084
  132CHL1   C1515972   3.687   8.103  13.522 -0.5604 -0.4072  0.1283
  132CHL1  H15A15973   3.791   8.078  13.550 -0.1043  0.0432 -1.0857
  132CHL1  H15B15974   3.690   8.213  13.535 -0.3339 -0.3898 -0.0823
  132CHL1   C1615975   3.583   8.037  13.603 -0.2894  0.3086  0.1139
  132CHL1  H16A15976   3.622   7.961  13.674 -2.2321 -2.6883 -1.8432
  132CHL1  H16B15977   3.525   8.103  13.671  0.5177 -1.4312  2.6373
  132CHL1   C1715978   3.486   7.963  13.506 -0.0851 -0.0343 -0.2797
  132CHL1   H1715979   3.403   8.033  13.480 -0.4872 -0.3254  0.2104
  132CHL1   C1315980   3.563   7.936  13.379  0.1246  0.5834  0.1918
  132CHL1   C1815981   3.660   7.812  13.402  0.4032  0.0191  0.0383
  132CHL1  H18A15982   3.606   7.720  13.433  1.0597  0.2527  2.0517
  132CHL1  H18B15983   3.721   7.784  13.314 -1.9707 -0.0295 -1.6897
  132CHL1  H18C15984   3.724   7.825  13.492  3.1323 -0.1533 -1.7641
  132CHL1   C1215985   3.486   7.934  13.245  1.1575  0.7154 -0.0297
  132CHL1  H12A15986   3.446   7.831  13.235 -2.3884  1.5989  2.7828
  132CHL1  H12B15987   3.393   7.995  13.251 -0.1723 -1.3547  1.6003
  132CHL1   C1115988   3.565   7.966  13.119 -0.2057  0.1293 -0.0144
  132CHL1  H11A15989   3.628   7.875  13.101  0.0258  0.2291  0.2833
  132CHL1  H11B15990   3.485   7.991  13.046 -1.0014 -1.8547  0.0964
  132CHL1    C915991   3.665   8.085  13.134  0.3352 -0.4654 -0.1237
  132CHL1    H915992   3.598   8.172  13.151 -0.6855 -0.7598 -2.2947
  132CHL1   C1015993   3.751   8.112  13.011  0.6306  0.3331 -0.3452
  132CHL1   C1915994   3.822   7.979  12.975  0.4712  0.2463 -0.0822
  132CHL1  H19A15995   3.883   7.994  12.883 -3.1030  2.0247 -2.4052
  132CHL1  H19B15996   3.894   7.946  13.053  1.1487  1.0384 -0.3520
  132CHL1  H19C15997   3.756   7.897  12.941  0.0141  0.5259  0.1076
  132CHL1    C115998   3.664   8.157  12.890  0.0320 -0.5888  0.4853
  132CHL1   H1A15999   3.593   8.076  12.862  0.0320 -0.2738 -0.5006
  132CHL1   H1B16000   3.615   8.249  12.929  1.6415  0.5819 -0.1183
  132CHL1    C216001   3.747   8.196  12.767  0.3510  0.0416 -0.5332
  132CHL1   H2A16002   3.679   8.221  12.682  0.3773 -1.6060 -1.0724
  132CHL1   H2B16003   3.811   8.112  12.734 -0.2063 -0.2365 -0.9308
  132CHL1   C2016004   3.417   7.841  13.584 -0.1102 -0.3182 -1.2427
  132CHL1   H2016005   3.496   7.774  13.624 -0.4721  0.1359  0.2811
  132CHL1   C2116006   3.327   7.767  13.482 -0.6342  0.6675 -0.1920
  132CHL1  H21A16007   3.390   7.717  13.405  0.3379  0.1483  0.9140
  132CHL1  H21B16008   3.261   7.837  13.426 -0.2792 -0.1538 -1.6732
  132CHL1  H21C16009   3.269   7.690  13.538  0.3103  0.5420  0.6517
  132CHL1   C2216010   3.317   7.885  13.697  0.0882  0.2765  0.0479
  132CHL1  H22A16011   3.378   7.953  13.761  0.4907 -1.7826  2.0285
  132CHL1  H22B16012   3.223   7.929  13.660 -1.1850 -0.3316  2.3263
  132CHL1   C2316013   3.271   7.772  13.788  0.1156  0.1367 -0.2681
  132CHL1  H23A16014   3.195   7.709  13.737 -0.9549 -1.4624  3.0629
  132CHL1  H23B16015   3.351   7.699  13.813 -0.8807 -1.3659 -1.2795
  132CHL1   C2416016   3.202   7.812  13.921  0.2963  0.3920  0.6918
  132CHL1  H24A16017   3.288   7.854  13.978 -0.3644 -0.1493  2.1354
  132CHL1  H24B16018   3.128   7.891  13.897 -0.3432 -0.6452 -0.9689
  132CHL1   C2516019   3.136   7.694  13.995 -0.3854 -1.0136  0.6303
  132CHL1   H2516020   3.213   7.614  14.009  1.1607  0.4271  0.6448
  132CHL1   C2616021   3.106   7.743  14.131  0.5120 -0.8819 -0.3028
  132CHL1  H26A16022   3.197   7.787  14.177  0.2493  0.4081 -0.9689
  132CHL1  H26B16023   3.028   7.823  14.129  0.8192 -0.5690  0.2029
  132CHL1  H26C16024   3.069   7.656  14.190  1.7812 -0.7056  0.7965
  132CHL1   C2716025   3.012   7.628  13.925  0.3367 -0.4801  0.3291
  132CHL1  H27A16026   2.970   7.565  14.006  1.2184  0.7356  1.7780
  132CHL1  H27B16027   2.939   7.707  13.900  0.5041 -1.0225 -2.1001
  132CHL1  H27C16028   3.033   7.573  13.830  0.6433 -0.0044  0.1196
  133CHL1    C316029   0.573   2.629  13.137  0.4261 -0.0259  0.2755
  133CHL1    H316030   0.518   2.726  13.137  2.1407  1.0049 -0.5657
  133CHL1    O316031   0.623   2.609  13.006  0.0165 -0.2757 -0.7490
  133CHL1   H3'16032   0.687   2.538  13.012  0.8831  0.5861  1.0301
  133CHL1    C416033   0.688   2.648  13.234 -0.0447  0.5618 -0.1748
  133CHL1   H4A16034   0.761   2.567  13.212 -0.4834  0.3605 -0.9230
  133CHL1   H4B16035   0.736   2.744  13.206 -1.8509  1.3156 -0.8246
  133CHL1    C516036   0.641   2.641  13.376  0.2740 -0.9749 -0.4071
  133CHL1    C616037   0.675   2.734  13.461  0.1093  0.2110 -0.4490
  133CHL1    H616038   0.733   2.820  13.422  1.1678  0.0611  0.7134
  133CHL1    C716039   0.640   2.737  13.611 -0.3577 -0.1972 -0.4277
  133CHL1   H7A16040   0.737   2.748  13.664 -1.8128 -0.0393  2.3967
  133CHL1   H7B16041   0.567   2.816  13.639 -0.7400 -0.6841 -0.0275
  133CHL1    C816042   0.602   2.598  13.664 -0.5199  0.0878  0.6565
  133CHL1    H816043   0.698   2.544  13.673  0.3466  1.0312 -1.9325
  133CHL1   C1416044   0.537   2.605  13.794  0.0690 -0.2713  0.0716
  133CHL1   H1416045   0.454   2.678  13.789 -0.8810 -1.2715  0.5764
  133CHL1   C1516046   0.612   2.669  13.909  0.1716 -1.0701 -0.1049
  133CHL1  H15A16047   0.714   2.626  13.919  1.7121  1.8789 -1.7665
  133CHL1  H15B16048   0.629   2.778  13.898  0.3402 -0.7169  2.7930
  133CHL1   C1616049   0.537   2.635  14.036  0.5295 -0.2481 -0.7414
  133CHL1  H16A16050   0.608   2.602  14.114 -1.8805 -1.5714  1.0544
  133CHL1  H16B16051   0.487   2.725  14.079  0.4835 -0.4155 -0.4426
  133CHL1   C1716052   0.441   2.522  13.996  0.4823 -0.1851  0.7167
  133CHL1   H1716053   0.339   2.559  13.974  0.7404  0.1246  0.0039
  133CHL1   C1316054   0.492   2.476  13.855  0.4667 -0.1958 -0.2728
  133CHL1   C1816055   0.608   2.382  13.865  0.8121  0.5912 -0.2718
  133CHL1  H18A16056   0.686   2.421  13.934 -0.7288  0.3830  1.6567
  133CHL1  H18B16057   0.569   2.286  13.904  0.7063 -0.4218 -2.6620
  133CHL1  H18C16058   0.652   2.360  13.765  0.0295  0.9044 -0.6959
  133CHL1   C1216059   0.378   2.426  13.767  0.1170 -0.3504  0.3606
  133CHL1  H12A16060   0.339   2.329  13.804  1.6072 -0.6066  1.3621
  133CHL1  H12B16061   0.298   2.503  13.766  0.9022  0.5288 -2.0487
  133CHL1   C1116062   0.425   2.411  13.616 -0.3782  0.4403 -0.3310
  133CHL1  H11A16063   0.492   2.323  13.611 -1.9549 -0.9332  1.3604
  133CHL1  H11B16064   0.337   2.394  13.550 -0.0420  2.3215 -1.3358
  133CHL1    C916065   0.506   2.535  13.566  0.2989  0.5116  0.8403
  133CHL1    H916066   0.436   2.622  13.557 -0.6163 -0.2732  0.0950
  133CHL1   C1016067   0.560   2.519  13.415 -0.6055 -0.1040 -0.6771
  133CHL1   C1916068   0.661   2.392  13.412  0.0390 -0.5372 -0.6532
  133CHL1  H19A16069   0.743   2.411  13.484 -0.7413 -0.5703  0.2572
  133CHL1  H19B16070   0.621   2.294  13.447 -1.8951  0.9011  1.3718
  133CHL1  H19C16071   0.725   2.379  13.322  0.6881  1.1881 -0.4817
  133CHL1    C116072   0.434   2.495  13.315  0.2529 -0.4136 -1.1446
  133CHL1   H1A16073   0.381   2.398  13.325  1.4289 -1.1884 -2.0919
  133CHL1   H1B16074   0.358   2.574  13.334 -1.9900 -2.5958 -0.5373
  133CHL1    C216075   0.491   2.497  13.175  0.1078 -0.7457  0.6997
  133CHL1   H2A16076   0.401   2.481  13.111  1.1958 -1.4468 -0.7012
  133CHL1   H2B16077   0.558   2.411  13.158 -0.3713 -0.5804 -2.9475
  133CHL1   C2016078   0.435   2.413  14.105  0.1847 -0.1276  0.1122
  133CHL1   H2016079   0.529   2.354  14.104  0.6361  0.5685 -0.7886
  133CHL1   C2116080   0.322   2.310  14.071  0.6280 -0.2031  0.0376
  133CHL1  H21A16081   0.227   2.359  14.039  0.9966 -1.0007 -2.4850
  133CHL1  H21B16082   0.282   2.253  14.157 -0.1938 -2.2526 -1.6015
  133CHL1  H21C16083   0.348   2.241  13.988  1.1117  1.4090 -1.2057
  133CHL1   C2216084   0.409   2.480  14.246 -0.6856  0.6663  0.1544
  133CHL1  H22A16085   0.398   2.395  14.317  0.4247 -0.1014 -0.5568
  133CHL1  H22B16086   0.491   2.548  14.279 -0.5739  0.5611  0.0922
  133CHL1   C2316087   0.277   2.553  14.253 -0.0020  0.6477 -0.4657
  133CHL1  H23A16088   0.282   2.651  14.199 -5.0412  1.1539 -0.4665
  133CHL1  H23B16089   0.201   2.501  14.191 -0.3478  0.1988  0.3257
  133CHL1   C2416090   0.227   2.561  14.398 -0.6261  0.0704 -0.3776
  133CHL1  H24A16091   0.133   2.620  14.402 -0.0042  1.0273  1.5196
  133CHL1  H24B16092   0.222   2.457  14.438 -0.8515  1.1443  2.6607
  133CHL1   C2516093   0.309   2.638  14.504  0.2819  0.2956  0.5243
  133CHL1   H2516094   0.403   2.578  14.506 -0.3564 -0.8767 -1.5378
  133CHL1   C2616095   0.333   2.786  14.470 -0.3537  0.6431 -0.2854
  133CHL1  H26A16096   0.238   2.844  14.472  0.2303  1.7943 -2.3065
  133CHL1  H26B16097   0.401   2.824  14.549  1.8053 -1.6990 -0.8586
  133CHL1  H26C16098   0.373   2.799  14.367 -2.8816 -0.1872 -1.4546
  133CHL1   C2716099   0.247   2.620  14.641  0.2699 -0.3724  0.8666
  133CHL1  H27A16100   0.257   2.511  14.659  1.1427 -0.4663 -0.1356
  133CHL1  H27B16101   0.318   2.672  14.709  0.4652  2.1026 -1.1032
  133CHL1  H27C16102   0.139   2.648  14.645  0.0257 -1.2446  0.6700
  134CHL1    C316103   6.862   4.048  13.159 -0.8463 -0.6418  0.1547
  134CHL1    H316104   6.905   4.150  13.156 -0.7756 -0.6870 -1.8670
  134CHL1    O316105   6.806   4.030  13.029  0.3544  0.1923 -0.3430
  134CHL1   H3'16106   6.820   3.936  13.016 -0.0730 -0.1464  1.3486
  134CHL1    C416107   6.952   3.936  13.185  0.4574  0.2130 -0.1345
  134CHL1   H4A16108   6.890   3.844  13.181 -2.3425  1.9226  0.6867
  134CHL1   H4B16109   7.036   3.939  13.113  2.7969 -1.7694  2.2783
  134CHL1    C516110   7.007   3.939  13.333  0.4726  0.0272 -0.0297
  134CHL1    C616111   7.137   3.934  13.349 -0.1505  0.5215 -0.2811
  134CHL1    H616112   7.202   3.921  13.261 -2.1921  0.5374 -1.8693
  134CHL1    C716113   7.207   3.934  13.483 -0.3818  0.0753  1.1778
  134CHL1   H7A16114   7.273   3.844  13.485 -2.5517 -1.6903 -0.8189
  134CHL1   H7B16115   7.257   4.032  13.498  0.0297  0.1491 -0.5423
  134CHL1    C816116   7.111   3.897  13.602  0.5272 -0.1135  0.0210
  134CHL1    H816117   7.080   3.791  13.602  1.0482 -0.2689  0.2354
  134CHL1   C1416118   7.173   3.931  13.737  0.6417  0.2466 -0.5042
  134CHL1   H1416119   7.191   4.041  13.742  0.5113  0.2186  1.2101
  134CHL1   C1516120   7.302   3.870  13.780 -0.2241 -0.4607 -1.1848
  134CHL1  H15A16121   7.303   3.761  13.755 -1.0349 -0.3113 -1.9213
  134CHL1  H15B16122   7.379   3.921  13.718  0.2889  1.2473  0.7595
  134CHL1   C1616123   7.314   3.896  13.934  0.3195 -0.4313 -0.5105
  134CHL1  H16A16124   7.340   3.795  13.973 -1.3177 -0.6272  0.1752
  134CHL1  H16B16125   7.393   3.972  13.954 -0.3802  0.3894 -0.7916
  134CHL1   C1716126   7.174   3.956  13.976 -0.3097  0.4913 -0.1931
  134CHL1   H1716127   7.190   4.065  13.968 -0.9374  0.4982 -1.6122
  134CHL1   C1316128   7.078   3.914  13.864  0.3966  0.2854  0.0315
  134CHL1   C1816129   7.030   3.766  13.881 -0.4970 -0.2747 -0.2853
  134CHL1  H18A16130   7.115   3.696  13.897  1.1626  1.8798  1.0552
  134CHL1  H18B16131   6.968   3.750  13.972 -0.7914  0.8349 -0.2675
  134CHL1  H18C16132   6.982   3.723  13.791  0.8101 -2.8078  0.1211
  134CHL1   C1216133   6.956   4.005  13.836  0.3395 -0.2232  0.6258
  134CHL1  H12A16134   6.878   3.996  13.914 -1.0635  0.3930 -0.6480
  134CHL1  H12B16135   6.993   4.110  13.842  1.8581 -0.7509  0.9661
  134CHL1   C1116136   6.890   3.977  13.705 -0.1081  0.1231 -0.7240
  134CHL1  H11A16137   6.832   3.883  13.714 -0.4280  0.4084  0.3448
  134CHL1  H11B16138   6.809   4.050  13.684 -2.6657 -1.8926  1.3899
  134CHL1    C916139   6.984   3.976  13.583 -0.0921  0.2362 -0.7853
  134CHL1    H916140   7.025   4.079  13.573 -1.0733  0.8442  1.0416
  134CHL1   C1016141   6.905   3.951  13.448  0.1775 -0.5258 -0.2385
  134CHL1   C1916142   6.815   3.822  13.457  0.3843  0.4987 -0.5672
  134CHL1  H19A16143   6.772   3.797  13.358 -1.1413  0.3433  0.1120
  134CHL1  H19B16144   6.887   3.740  13.477  0.1767  0.0201 -1.7134
  134CHL1  H19C16145   6.739   3.842  13.536 -0.6938  0.1034 -1.4797
  134CHL1    C116146   6.807   4.071  13.412 -0.4617  0.3648 -0.4512
  134CHL1   H1A16147   6.717   4.068  13.477 -0.0379 -0.0074  0.1317
  134CHL1   H1B16148   6.862   4.166  13.429 -0.0901 -0.0931  1.0364
  134CHL1    C216149   6.757   4.062  13.261 -0.2554 -0.2571  0.0674
  134CHL1   H2A16150   6.717   4.163  13.238  1.5481  1.0451  2.1250
  134CHL1   H2B16151   6.676   3.988  13.249  0.3397 -0.8372 -0.4509
  134CHL1   C2016152   7.136   3.913  14.116 -0.4341  0.2242  0.2369
  134CHL1   H2016153   7.090   3.812  14.124 -2.7566  1.2863  1.2873
  134CHL1   C2116154   7.026   4.010  14.168 -0.1436  0.1475 -0.3739
  134CHL1  H21A16155   7.013   4.004  14.278 -1.2366 -0.8985 -0.5394
  134CHL1  H21B16156   6.926   3.990  14.125 -0.5431  0.2871  0.4686
  134CHL1  H21C16157   7.056   4.109  14.128 -0.8076  0.6922  0.4354
  134CHL1   C2216158   7.261   3.912  14.214 -0.4976  0.2317 -0.5557
  134CHL1  H22A16159   7.338   3.849  14.167  0.8177  1.5287 -0.2213
  134CHL1  H22B16160   7.299   4.017  14.215 -0.3516  0.3421  4.4184
  134CHL1   C2316161   7.237   3.850  14.353 -0.4532  0.5855 -0.3428
  134CHL1  H23A16162   7.197   3.930  14.419  0.2102  1.8709 -1.4452
  134CHL1  H23B16163   7.163   3.768  14.340  0.5072 -0.9046  2.6936
  134CHL1   C2416164   7.361   3.777  14.414  0.2620 -0.0821  0.1060
  134CHL1  H24A16165   7.334   3.738  14.514 -0.1120  0.7588  0.3345
  134CHL1  H24B16166   7.393   3.691  14.351  1.1094  0.7470 -0.6238
  134CHL1   C2516167   7.481   3.874  14.425  0.5545 -0.5215  0.1988
  134CHL1   H2516168   7.494   3.912  14.322  0.0883 -0.9916 -0.0399
  134CHL1   C2616169   7.444   3.992  14.518  0.4483  0.2052 -0.7626
  134CHL1  H26A16170   7.534   4.056  14.529  0.2912  0.3445 -0.2626
  134CHL1  H26B16171   7.376   4.059  14.461  1.6101  0.5974 -1.7326
  134CHL1  H26C16172   7.403   3.958  14.616 -0.2085 -0.8506 -1.3891
  134CHL1   C2716173   7.605   3.799  14.477 -0.0628  0.0222 -0.6257
  134CHL1  H27A16174   7.697   3.856  14.452  0.5690 -0.2193  1.0618
  134CHL1  H27B16175   7.611   3.776  14.585 -0.3147 -0.0177 -0.6198
  134CHL1  H27C16176   7.607   3.699  14.427  2.3547 -1.8483  2.8268
  135CHL1    C316177   7.564   2.894  13.247  0.0879 -0.0609  0.6954
  135CHL1    H316178   7.667   2.866  13.215  0.2264  0.1511  0.9574
  135CHL1    O316179   7.479   2.911  13.137  0.0935 -0.9297 -0.1570
  135CHL1   H3'16180   7.399   2.952  13.172  0.4209 -1.4629  1.2827
  135CHL1    C416181   7.510   2.787  13.347  0.4076  0.2623  0.7418
  135CHL1   H4A16182   7.400   2.804  13.349  0.4803  1.1260 -0.7309
  135CHL1   H4B16183   7.509   2.687  13.298 -0.7082  1.1949 -1.2650
  135CHL1    C516184   7.573   2.796  13.488  0.0180 -0.5315  0.1732
  135CHL1    C616185   7.618   2.685  13.545 -0.2971 -0.3989 -0.9105
  135CHL1    H616186   7.602   2.591  13.490 -1.3247 -1.3509  0.9043
  135CHL1    C716187   7.693   2.676  13.670  0.5610 -0.0023  0.2294
  135CHL1   H7A16188   7.664   2.586  13.728 -0.2035 -0.6735 -1.1572
  135CHL1   H7B16189   7.803   2.670  13.652  0.3817  1.5443 -1.6684
  135CHL1    C816190   7.681   2.797  13.760  0.2089 -0.4096 -0.1757
  135CHL1    H816191   7.582   2.789  13.809 -0.9916  1.3279 -2.1027
  135CHL1   C1416192   7.793   2.813  13.865  0.2116  0.0848 -0.5363
  135CHL1   H1416193   7.888   2.819  13.807  1.4870 -1.4349  1.2628
  135CHL1   C1516194   7.826   2.693  13.953  0.1690 -0.4987 -0.3018
  135CHL1  H15A16195   7.742   2.620  13.949 -0.0553 -0.1703 -2.4282
  135CHL1  H15B16196   7.914   2.637  13.916  1.4695 -1.2340  3.4137
  135CHL1   C1616197   7.877   2.756  14.082  0.1229 -0.5025 -1.3781
  135CHL1  H16A16198   7.792   2.735  14.150  0.5145  0.7908 -0.4413
  135CHL1  H16B16199   7.970   2.709  14.123  0.3556  0.3860 -0.8511
  135CHL1   C1716200   7.896   2.910  14.058 -0.6019  0.5704 -0.3850
  135CHL1   H1716201   7.988   2.924  13.997  0.5533 -0.6235  1.0134
  135CHL1   C1316202   7.776   2.937  13.961 -0.3249 -0.8672  0.0349
  135CHL1   C1816203   7.642   2.934  14.040 -0.0798  0.2212 -0.0207
  135CHL1  H18A16204   7.632   3.020  14.109 -1.5347  0.1533 -0.1164
  135CHL1  H18B16205   7.558   2.945  13.967  0.7597 -0.2694 -1.0934
  135CHL1  H18C16206   7.622   2.844  14.102 -1.0998  0.5604  0.1585
  135CHL1   C1216207   7.798   3.058  13.879  0.3554 -0.1190  0.4571
  135CHL1  H12A16208   7.814   3.154  13.933  1.6934 -0.8381  1.3859
  135CHL1  H12B16209   7.893   3.048  13.823 -0.0226 -1.8893  0.0913
  135CHL1   C1116210   7.693   3.058  13.762  0.3901  0.0516  0.1604
  135CHL1  H11A16211   7.593   3.091  13.796 -0.8376 -1.2698 -1.9401
  135CHL1  H11B16212   7.725   3.130  13.684  0.4338 -0.1592 -0.0174
  135CHL1    C916213   7.677   2.928  13.679 -0.0728  0.0108 -0.7260
  135CHL1    H916214   7.779   2.928  13.634  0.4095 -0.3929  0.3429
  135CHL1   C1016215   7.593   2.933  13.557  0.1169  0.1623 -0.0335
  135CHL1   C1916216   7.455   2.978  13.607 -0.1473 -0.8817  0.3192
  135CHL1  H19A16217   7.448   3.081  13.647  1.3904 -1.1470  1.3831
  135CHL1  H19B16218   7.384   2.967  13.522  0.6055 -0.1415 -0.4216
  135CHL1  H19C16219   7.416   2.908  13.684  3.1313 -1.2252  1.8532
  135CHL1    C116220   7.645   3.029  13.444 -0.0803  0.3655 -0.1730
  135CHL1   H1A16221   7.636   3.131  13.488  1.5553  0.0025  1.0902
  135CHL1   H1B16222   7.754   3.008  13.434  0.1810  2.2601 -2.1903
  135CHL1    C216223   7.561   3.030  13.312 -0.0824  1.1433 -0.6800
  135CHL1   H2A16224   7.602   3.110  13.248  2.3814  1.3509  0.9988
  135CHL1   H2B16225   7.461   3.055  13.354  0.6383  0.4695  1.6322
  135CHL1   C2016226   7.912   2.998  14.186 -0.1475  0.0899  1.0278
  135CHL1   H2016227   7.818   3.057  14.195 -1.8778 -2.5020  1.0000
  135CHL1   C2116228   8.038   3.078  14.167 -0.2400  0.1478 -0.6640
  135CHL1  H21A16229   8.035   3.174  14.224 -3.7332 -0.5312  0.5292
  135CHL1  H21B16230   8.039   3.113  14.062 -0.1514 -0.1544 -0.7655
  135CHL1  H21C16231   8.132   3.018  14.174  0.4963  1.4147  1.2319
  135CHL1   C2216232   7.935   2.916  14.313  0.2503 -0.1728  0.1549
  135CHL1  H22A16233   7.856   2.838  14.315  0.3818 -0.3120  0.0105
  135CHL1  H22B16234   8.031   2.861  14.303 -0.3864 -1.1449 -0.7833
  135CHL1   C2316235   7.930   2.995  14.444  0.2910  0.8075 -0.3253
  135CHL1  H23A16236   8.023   3.057  14.445 -0.4380  1.9154  0.6386
  135CHL1  H23B16237   7.842   3.062  14.444  3.2085  5.0212 -0.6728
  135CHL1   C2416238   7.927   2.891  14.557  0.3099  0.3769  0.0106
  135CHL1  H24A16239   7.834   2.831  14.548  0.6253  0.1177 -1.8760
  135CHL1  H24B16240   8.012   2.821  14.538 -1.7275 -3.0041  2.2642
  135CHL1   C2516241   7.948   2.947  14.697  0.4191 -0.3790 -0.0829
  135CHL1   H2516242   8.046   3.000  14.689  0.0762  0.5585  1.5172
  135CHL1   C2616243   7.842   3.057  14.733  0.1480 -0.2546  0.1988
  135CHL1  H26A16244   7.737   3.030  14.710 -0.3473  1.3082  0.4718
  135CHL1  H26B16245   7.854   3.090  14.839  2.8082  1.2649 -0.4610
  135CHL1  H26C16246   7.860   3.145  14.668 -1.0292  0.3874  0.7078
  135CHL1   C2716247   7.958   2.833  14.802  0.9646 -0.3310 -0.1346
  135CHL1  H27A16248   7.860   2.785  14.820  0.9531  0.4460  2.1168
  135CHL1  H27B16249   8.033   2.754  14.778  0.8310 -1.1160  1.8442
  135CHL1  H27C16250   7.994   2.876  14.898  0.5335  0.6491 -0.3989
  136CHL1    C316251   6.530   7.925  12.941 -0.0875  0.3369 -0.2696
  136CHL1    H316252   6.428   7.883  12.939 -0.0527  0.2929 -1.7194
  136CHL1    O316253   6.592   7.920  12.817 -0.2828 -0.3246  0.6670
  136CHL1   H3'16254   6.686   7.937  12.830 -0.4128  0.7920  0.2566
  136CHL1    C416255   6.531   8.075  12.990  0.4295 -0.5194 -0.0003
  136CHL1   H4A16256   6.634   8.116  12.999 -0.2138  1.0087  0.6426
  136CHL1   H4B16257   6.492   8.153  12.922  1.4784  1.0526  1.1457
  136CHL1    C516258   6.481   8.080  13.134 -0.5905 -0.1104  0.7048
  136CHL1    C616259   6.378   8.162  13.171  0.4951 -0.1030  0.1310
  136CHL1    H616260   6.333   8.232  13.098 -1.7198 -1.5581 -0.0009
  136CHL1    C716261   6.338   8.187  13.313  0.3074  0.3357 -0.0028
  136CHL1   H7A16262   6.309   8.294  13.319 -0.8014  0.0491 -0.0228
  136CHL1   H7B16263   6.241   8.140  13.338  1.6527 -1.1535  2.7779
  136CHL1    C816264   6.433   8.126  13.409 -0.1434 -0.2475 -0.1310
  136CHL1    H816265   6.526   8.186  13.413 -0.0720 -0.4356  2.1672
  136CHL1   C1416266   6.370   8.127  13.544  0.6748  0.4555 -0.1913
  136CHL1   H1416267   6.286   8.055  13.547  0.8935  0.2157  0.2086
  136CHL1   C1516268   6.313   8.261  13.588  0.0105  0.6368  0.1331
  136CHL1  H15A16269   6.394   8.334  13.565  0.6701 -0.5542 -1.5119
  136CHL1  H15B16270   6.219   8.288  13.535 -0.4191 -4.1430 -2.0715
  136CHL1   C1616271   6.292   8.235  13.739  0.7082  0.8836 -0.4942
  136CHL1  H16A16272   6.335   8.321  13.795  0.3729  2.0193 -1.9159
  136CHL1  H16B16273   6.184   8.224  13.760  0.4532  1.7410 -1.2991
  136CHL1   C1716274   6.368   8.095  13.770  0.0987  0.1960 -0.0706
  136CHL1   H1716275   6.286   8.019  13.773 -0.1265  0.4132 -0.5517
  136CHL1   C1316276   6.454   8.065  13.652 -0.9111  0.7886 -0.4958
  136CHL1   C1816277   6.577   8.157  13.667  0.1251  0.2145 -0.0805
  136CHL1  H18A16278   6.548   8.261  13.694  3.3482  1.0900  0.4862
  136CHL1  H18B16279   6.632   8.114  13.754 -2.1516 -0.9934  0.8641
  136CHL1  H18C16280   6.645   8.166  13.580 -0.4706 -0.7451 -0.6619
  136CHL1   C1216281   6.486   7.922  13.608 -0.2892 -0.0250 -0.1458
  136CHL1  H12A16282   6.534   7.866  13.690 -2.2067 -0.3588  0.8075
  136CHL1  H12B16283   6.391   7.866  13.595 -0.1766  0.1717 -2.3103
  136CHL1   C1116284   6.559   7.917  13.475 -0.2001 -0.1172  0.5730
  136CHL1  H11A16285   6.656   7.968  13.489  0.7718 -1.7709  0.1484
  136CHL1  H11B16286   6.587   7.813  13.446  1.9914  0.3348  0.9045
  136CHL1    C916287   6.472   7.985  13.365  0.4100  0.1358 -0.3471
  136CHL1    H916288   6.377   7.932  13.344 -0.6107  1.2844  1.1365
  136CHL1   C1016289   6.553   7.987  13.234  0.2150 -0.5404  0.6693
  136CHL1   C1916290   6.700   8.055  13.259  0.1795  0.5036 -0.0101
  136CHL1  H19A16291   6.731   8.125  13.178  1.0601 -0.6169 -0.6791
  136CHL1  H19B16292   6.693   8.129  13.342 -0.8834  0.2975  0.0942
  136CHL1  H19C16293   6.775   7.974  13.272 -0.1909  0.1964  0.2386
  136CHL1    C116294   6.567   7.841  13.178  0.1861  0.0765 -0.2268
  136CHL1   H1A16295   6.632   7.780  13.244 -1.0026  0.5452  1.4660
  136CHL1   H1B16296   6.473   7.785  13.199  0.5545  0.5790  3.5376
  136CHL1    C216297   6.613   7.843  13.031  0.1874 -0.3174 -0.4719
  136CHL1   H2A16298   6.618   7.736  13.003  0.6663 -1.0845  2.2473
  136CHL1   H2B16299   6.711   7.895  13.024  0.6349 -1.1441 -0.4637
  136CHL1   C2016300   6.427   8.096  13.914  0.3880 -0.2236  0.2130
  136CHL1   H2016301   6.515   8.164  13.917  0.5964 -0.5236  1.2117
  136CHL1   C2116302   6.477   7.950  13.951  0.2994 -0.2564  0.2030
  136CHL1  H21A16303   6.394   7.878  13.964 -0.9245  1.0617  0.0124
  136CHL1  H21B16304   6.531   7.976  14.044  1.1703  2.3121 -0.8985
  136CHL1  H21C16305   6.553   7.900  13.888 -1.2443  0.1006 -2.1066
  136CHL1   C2216306   6.324   8.146  14.019  0.2579  0.3387  0.5806
  136CHL1  H22A16307   6.295   8.252  14.003  0.8469  0.4238  0.0451
  136CHL1  H22B16308   6.238   8.079  14.036  1.1964 -0.4322  2.7933
  136CHL1   C2316309   6.389   8.151  14.164 -0.0283 -0.0739  0.6650
  136CHL1  H23A16310   6.412   8.050  14.204  3.0723  0.6616  1.0017
  136CHL1  H23B16311   6.485   8.206  14.170 -1.6516  2.8079  2.3379
  136CHL1   C2416312   6.283   8.225  14.251 -0.4565 -0.5356  0.1798
  136CHL1  H24A16313   6.286   8.333  14.226  0.5618 -0.1493  1.8371
  136CHL1  H24B16314   6.189   8.178  14.214  0.1625 -0.7213 -1.2022
  136CHL1   C2516315   6.294   8.209  14.404 -0.2167 -0.0945 -0.6938
  136CHL1   H2516316   6.302   8.101  14.428 -1.2573  0.0672  0.4520
  136CHL1   C2616317   6.426   8.271  14.468  0.7777 -0.5039  0.5929
  136CHL1  H26A16318   6.512   8.234  14.409  0.9203  0.4218  0.2021
  136CHL1  H26B16319   6.429   8.382  14.458  0.3092 -0.5999 -0.8001
  136CHL1  H26C16320   6.432   8.241  14.575 -2.9190 -0.6669  0.8824
  136CHL1   C2716321   6.185   8.279  14.477  0.3849 -0.0215 -0.1549
  136CHL1  H27A16322   6.208   8.261  14.584 -2.0250 -0.4343  0.3512
  136CHL1  H27B16323   6.179   8.387  14.451  0.5360  0.4381  1.6080
  136CHL1  H27C16324   6.089   8.231  14.450  0.2949  0.6122 -1.0109
  137CHL1    C316325   1.578   1.884  12.793 -0.7928  0.1385  0.2622
  137CHL1    H316326   1.477   1.843  12.771 -1.2314  1.8602 -1.1117
  137CHL1    O316327   1.631   1.903  12.662  0.3544 -0.0243  0.0583
  137CHL1   H3'16328   1.726   1.913  12.670  0.4949  0.0492 -1.4465
  137CHL1    C416329   1.577   2.010  12.880  0.3269  0.9821 -0.2608
  137CHL1   H4A16330   1.676   2.062  12.882  0.0798  1.4701 -0.5332
  137CHL1   H4B16331   1.504   2.075  12.827 -1.2603  0.7680  1.5466
  137CHL1    C516332   1.521   1.976  13.016  0.1584  0.9354 -1.1243
  137CHL1    C616333   1.410   2.031  13.066  0.1553 -0.0082 -0.0342
  137CHL1    H616334   1.347   2.094  13.001 -1.2251 -1.7803 -0.5114
  137CHL1    C716335   1.355   2.010  13.200  0.7212  0.7597 -0.3486
  137CHL1   H7A16336   1.320   2.101  13.253  0.4360  0.5472 -0.1684
  137CHL1   H7B16337   1.266   1.946  13.183  0.6327  1.0326 -0.9434
  137CHL1    C816338   1.453   1.948  13.300 -0.3222 -0.2177 -0.2068
  137CHL1    H816339   1.530   2.024  13.326  0.7059 -1.6569  1.1524
  137CHL1   C1416340   1.384   1.897  13.416  0.0782  0.5532 -0.3413
  137CHL1   H1416341   1.306   1.829  13.375 -0.6742  2.0953 -1.5486
  137CHL1   C1516342   1.293   1.995  13.496 -0.8076  0.4169  0.3554
  137CHL1  H15A16343   1.359   2.082  13.516 -0.3147  0.2103 -0.3440
  137CHL1  H15B16344   1.200   2.027  13.443 -0.6672 -1.2177 -0.9432
  137CHL1   C1616345   1.280   1.929  13.632 -0.7212  0.1429  0.6674
  137CHL1  H16A16346   1.302   1.997  13.717 -1.0439 -0.1919  1.0267
  137CHL1  H16B16347   1.173   1.899  13.639 -0.8340 -0.2254 -1.8780
  137CHL1   C1716348   1.366   1.801  13.633 -0.4846 -0.0539  0.3792
  137CHL1   H1716349   1.307   1.714  13.595  1.6554 -0.9335 -1.1084
  137CHL1   C1316350   1.472   1.829  13.521 -0.1621  0.0211  0.2112
  137CHL1   C1816351   1.572   1.928  13.581  0.2720  0.2975 -0.2248
  137CHL1  H18A16352   1.527   2.015  13.633  2.8814  2.7014 -1.7277
  137CHL1  H18B16353   1.631   1.874  13.659 -1.9126 -0.4059  1.0285
  137CHL1  H18C16354   1.642   1.956  13.500  0.6495 -1.3517 -0.5185
  137CHL1   C1216355   1.534   1.711  13.455 -0.1670  0.0445 -0.5952
  137CHL1  H12A16356   1.606   1.670  13.529  1.2440  3.2353 -0.0254
  137CHL1  H12B16357   1.453   1.638  13.438  0.4281 -0.3442 -1.8894
  137CHL1   C1116358   1.614   1.745  13.335 -0.0263  0.0278  0.8843
  137CHL1  H11A16359   1.715   1.787  13.356  1.3554 -1.3820 -2.2339
  137CHL1  H11B16360   1.641   1.659  13.270  1.7354  1.3153 -0.1605
  137CHL1    C916361   1.532   1.833  13.234  0.2603  0.4462 -0.0027
  137CHL1    H916362   1.457   1.755  13.209  0.4809 -0.1940  1.2588
  137CHL1   C1016363   1.598   1.866  13.091  0.2747  0.0785 -0.1199
  137CHL1   C1916364   1.734   1.924  13.129 -0.9074 -0.5235  0.1992
  137CHL1  H19A16365   1.789   1.951  13.036  1.3276  0.9549  1.8587
  137CHL1  H19B16366   1.732   2.016  13.191  3.3200  0.2815 -0.5257
  137CHL1  H19C16367   1.796   1.848  13.183 -0.9566 -1.3605 -0.8833
  137CHL1    C116368   1.613   1.737  12.998 -0.6709 -0.1693 -0.3412
  137CHL1   H1A16369   1.688   1.671  13.046  0.4580  1.6229  0.4443
  137CHL1   H1B16370   1.510   1.695  12.994 -1.2952  0.7042  2.9579
  137CHL1    C216371   1.656   1.771  12.853  0.0202  0.4545  0.3268
  137CHL1   H2A16372   1.641   1.677  12.796 -2.7230  1.0664 -0.1070
  137CHL1   H2B16373   1.763   1.798  12.863 -0.6647  3.1018  1.2969
  137CHL1   C2016374   1.409   1.762  13.776 -0.1490 -0.7784  0.1082
  137CHL1   H2016375   1.479   1.836  13.819 -2.2556 -0.0229  2.4973
  137CHL1   C2116376   1.487   1.630  13.779  0.0123 -0.2053  0.6997
  137CHL1  H21A16377   1.583   1.641  13.725 -0.6081  0.9005 -0.2251
  137CHL1  H21B16378   1.435   1.549  13.723  0.1723 -0.5960  1.1031
  137CHL1  H21C16379   1.506   1.581  13.877  2.6717 -0.3739  0.1630
  137CHL1   C2216380   1.288   1.757  13.871 -0.3916  0.3080  0.2473
  137CHL1  H22A16381   1.204   1.821  13.834  0.4574  3.2461  2.9386
  137CHL1  H22B16382   1.254   1.651  13.873 -0.6338  0.3688 -0.5391
  137CHL1   C2316383   1.322   1.818  14.007 -0.8611  0.1801  0.0695
  137CHL1  H23A16384   1.405   1.761  14.055 -0.1906  1.5912  0.6510
  137CHL1  H23B16385   1.350   1.925  14.005  0.4233 -0.1452 -0.0775
  137CHL1   C2416386   1.204   1.802  14.104 -0.7177  0.4374  0.3662
  137CHL1  H24A16387   1.118   1.857  14.059 -1.6358  0.4961  2.1000
  137CHL1  H24B16388   1.183   1.694  14.093 -0.2558  0.3873 -0.0719
  137CHL1   C2516389   1.229   1.825  14.257 -0.2982  0.0136  0.0134
  137CHL1   H2516390   1.288   1.741  14.299 -1.5795 -0.5278  0.8049
  137CHL1   C2616391   1.287   1.964  14.289  0.5158  0.3498  0.0429
  137CHL1  H26A16392   1.210   2.044  14.285 -0.1187 -0.0897  2.3463
  137CHL1  H26B16393   1.333   1.967  14.390 -0.3742  0.5996  0.4466
  137CHL1  H26C16394   1.372   1.979  14.219  0.3782 -0.8766 -0.4019
  137CHL1   C2716395   1.087   1.813  14.323 -0.3974  0.1339 -0.2890
  137CHL1  H27A16396   1.035   1.715  14.315  2.4113 -1.4155 -0.7258
  137CHL1  H27B16397   1.091   1.836  14.432  0.0553 -0.6140 -0.1473
  137CHL1  H27C16398   1.028   1.891  14.270  0.8573 -0.9644 -3.5355
  138CHL1    C316399   7.372   0.010  13.107 -0.3685 -0.8081 -0.5841
  138CHL1    H316400   7.291  -0.063  13.126  1.0793 -1.9009  1.7337
  138CHL1    O316401   7.414  -0.003  12.974 -0.1335  0.5839 -0.4578
  138CHL1   H3'16402   7.442   0.087  12.953  0.8589  0.7198  1.2525
  138CHL1    C416403   7.323   0.153  13.129 -0.0713 -0.4902  0.2648
  138CHL1   H4A16404   7.411   0.208  13.091  0.3401 -0.8077  0.7445
  138CHL1   H4B16405   7.242   0.184  13.059  1.2103  0.5569 -0.8061
  138CHL1    C516406   7.295   0.174  13.279 -0.4014 -0.0692 -0.5385
  138CHL1    C616407   7.169   0.213  13.317 -0.6237 -0.6552 -0.5115
  138CHL1    H616408   7.088   0.229  13.244 -1.5575 -0.9246  0.4343
  138CHL1    C716409   7.127   0.236  13.463 -0.3124  0.1208  0.0866
  138CHL1   H7A16410   7.066   0.329  13.470 -0.5843  0.0242 -0.8995
  138CHL1   H7B16411   7.073   0.142  13.490  0.7549 -0.5998 -0.2248
  138CHL1    C816412   7.248   0.246  13.562  0.1676 -0.1096  0.5725
  138CHL1    H816413   7.291   0.347  13.546 -1.3946  1.1753  3.6173
  138CHL1   C1416414   7.196   0.216  13.707 -0.0279 -0.0608  0.1063
  138CHL1   H1416415   7.166   0.109  13.706 -1.5148  0.3216 -0.8731
  138CHL1   C1516416   7.072   0.290  13.755 -0.1769 -1.3415 -0.0364
  138CHL1  H15A16417   7.087   0.396  13.726 -4.1905 -1.5153 -3.8310
  138CHL1  H15B16418   6.984   0.242  13.706 -0.8176 -0.1227 -0.1094
  138CHL1   C1616419   7.077   0.286  13.905 -0.3318 -0.5128  0.9018
  138CHL1  H16A16420   7.075   0.387  13.950  0.3296  0.1280 -0.4441
  138CHL1  H16B16421   7.006   0.217  13.956 -0.0105 -2.3890 -1.0428
  138CHL1   C1716422   7.216   0.224  13.944  0.4558  0.3045 -0.0276
  138CHL1   H1716423   7.192   0.116  13.947  0.4278  0.3139  0.0944
  138CHL1   C1316424   7.305   0.233  13.817  0.2654  0.0409 -0.1252
  138CHL1   C1816425   7.370   0.369  13.816 -0.1663 -0.4475  0.1484
  138CHL1  H18A16426   7.460   0.384  13.881 -0.1348 -0.9252  0.2170
  138CHL1  H18B16427   7.406   0.395  13.714 -0.1849 -0.5321  0.1205
  138CHL1  H18C16428   7.296   0.448  13.843  0.2809  0.8127 -2.0832
  138CHL1   C1216429   7.414   0.129  13.783  0.5161  0.5216  0.0934
  138CHL1  H12A16430   7.503   0.130  13.850  1.1472 -1.8424 -0.6275
  138CHL1  H12B16431   7.357   0.037  13.804 -0.9420  0.4497 -3.5410
  138CHL1   C1116432   7.464   0.129  13.639 -0.3576 -0.0658 -0.0773
  138CHL1  H11A16433   7.519   0.225  13.631 -1.4966  0.6961  0.9186
  138CHL1  H11B16434   7.533   0.043  13.627  0.2762  0.4275 -0.0321
  138CHL1    C916435   7.356   0.138  13.531 -0.5542 -0.6934 -0.0283
  138CHL1    H916436   7.305   0.040  13.539  0.0595 -1.1114 -1.0314
  138CHL1   C1016437   7.405   0.141  13.383 -0.3139 -0.0006 -0.4591
  138CHL1   C1916438   7.517   0.247  13.375 -0.1346  0.3318  0.1500
  138CHL1  H19A16439   7.552   0.260  13.270  2.1927  1.3311  0.9832
  138CHL1  H19B16440   7.478   0.345  13.409  1.4707  0.1492  2.7933
  138CHL1  H19C16441   7.612   0.228  13.429  0.1185 -1.1100 -0.7379
  138CHL1    C116442   7.456   0.002  13.346  0.4454 -0.3356  0.0061
  138CHL1   H1A16443   7.553  -0.008  13.400 -0.5472 -0.0894  1.9507
  138CHL1   H1B16444   7.380  -0.077  13.369 -1.6573  1.1421 -1.4976
  138CHL1    C216445   7.487  -0.017  13.199  0.2847  0.3608 -0.1296
  138CHL1   H2A16446   7.535  -0.116  13.186  1.7589  0.9952  0.2652
  138CHL1   H2B16447   7.566   0.057  13.175 -0.2195  0.6935 -0.8228
  138CHL1   C2016448   7.274   0.279  14.074 -0.2641 -0.1637 -0.4851
  138CHL1   H2016449   7.290   0.389  14.067 -1.6326  0.0707 -0.2671
  138CHL1   C2116450   7.410   0.206  14.102  0.2521  0.8302  0.3528
  138CHL1  H21A16451   7.448   0.218  14.205 -0.7221  2.0003  0.5985
  138CHL1  H21B16452   7.484   0.259  14.038  0.2809  0.2940 -0.0689
  138CHL1  H21C16453   7.417   0.099  14.072 -1.0210  0.4404  1.3800
  138CHL1   C2216454   7.191   0.246  14.197 -0.1623  0.1268 -0.6338
  138CHL1  H22A16455   7.087   0.275  14.173  0.2908  0.0654 -2.9081
  138CHL1  H22B16456   7.203   0.138  14.216 -1.7554  0.0659  0.1804
  138CHL1   C2316457   7.223   0.321  14.327 -0.9841 -0.3457  0.0596
  138CHL1  H23A16458   7.328   0.307  14.360 -0.7294  2.0119  0.4072
  138CHL1  H23B16459   7.206   0.429  14.308 -1.4950 -0.5443 -0.6170
  138CHL1   C2416460   7.135   0.276  14.449 -0.8595  0.8017  0.0485
  138CHL1  H24A16461   7.030   0.257  14.419 -1.6093 -0.7903  3.2794
  138CHL1  H24B16462   7.175   0.188  14.504  1.9372  2.2302  0.4844
  138CHL1   C2516463   7.142   0.379  14.560  0.2590 -0.0687 -0.0034
  138CHL1   H2516464   7.120   0.480  14.520 -0.5450  0.4436  1.6306
  138CHL1   C2616465   7.035   0.362  14.673  0.2936 -0.6143  0.5843
  138CHL1  H26A16466   6.933   0.383  14.635  1.0816  3.6019  0.3262
  138CHL1  H26B16467   7.043   0.260  14.718  2.9172 -1.6873 -1.9745
  138CHL1  H26C16468   7.062   0.439  14.747  1.4594  0.2482 -0.6760
  138CHL1   C2716469   7.279   0.376  14.631 -0.0330  0.1890 -0.1678
  138CHL1  H27A16470   7.286   0.462  14.701  0.2685 -0.0568  0.1061
  138CHL1  H27B16471   7.285   0.288  14.698 -1.2145 -0.1438 -0.4651
  138CHL1  H27C16472   7.371   0.374  14.569  1.4429  0.5981  1.9194
  139CHL1    C316473   0.194   6.498  12.978  0.4390  0.2940 -1.3733
  139CHL1    H316474   0.299   6.520  12.951  1.6683 -3.9414 -0.7590
  139CHL1    O316475   0.173   6.362  12.946  0.1398 -0.3181 -0.5314
  139CHL1   H3'16476   0.085   6.335  12.973 -0.6202  0.9308 -1.6155
  139CHL1    C416477   0.184   6.490  13.133 -0.3267  0.0223  0.6761
  139CHL1   H4A16478   0.088   6.438  13.156 -0.7205  0.8325  0.9114
  139CHL1   H4B16479   0.271   6.434  13.172 -1.7546 -2.5350  0.4318
  139CHL1    C516480   0.174   6.630  13.197  0.3234 -0.1390 -0.1370
  139CHL1    C616481   0.266   6.664  13.292  0.5476 -0.6453  0.1703
  139CHL1    H616482   0.338   6.592  13.334  2.8059  2.8512  2.8178
  139CHL1    C716483   0.267   6.795  13.370  0.3577 -0.0761 -0.6526
  139CHL1   H7A16484   0.266   6.774  13.479  1.7614  0.8552 -0.4282
  139CHL1   H7B16485   0.361   6.847  13.341  0.1182 -0.4402 -2.1747
  139CHL1    C816486   0.142   6.879  13.344 -0.7977  0.1157  0.4221
  139CHL1    H816487   0.052   6.837  13.394 -1.7541  1.9131  0.2730
  139CHL1   C1416488   0.162   7.022  13.384  0.0806  0.6264 -0.2678
  139CHL1   H1416489   0.234   7.059  13.309  0.4259 -0.1950 -0.3498
  139CHL1   C1516490   0.209   7.053  13.531 -0.4545  0.0521  0.5752
  139CHL1  H15A16491   0.158   6.992  13.608  1.2365 -0.8739  1.0079
  139CHL1  H15B16492   0.318   7.032  13.529 -0.5230 -0.2823 -0.7786
  139CHL1   C1616493   0.175   7.200  13.557 -0.0146  0.4714  0.2913
  139CHL1  H16A16494   0.097   7.206  13.636  0.0072 -2.1811  0.6256
  139CHL1  H16B16495   0.258   7.267  13.586  0.2482  1.0436 -1.6422
  139CHL1   C1716496   0.108   7.250  13.422  1.3099 -0.3383 -0.1172
  139CHL1   H1716497   0.188   7.284  13.352 -0.4938  2.6374 -0.9419
  139CHL1   C1316498   0.045   7.118  13.357  0.2511  0.4165 -0.1635
  139CHL1   C1816499  -0.085   7.076  13.429 -0.5551  0.1175 -0.1681
  139CHL1  H18A16500  -0.116   6.972  13.405  0.3428 -0.0883 -0.4800
  139CHL1  H18B16501  -0.072   7.080  13.540 -1.3747 -1.6767  0.0315
  139CHL1  H18C16502  -0.173   7.134  13.395 -1.1467 -0.2453  0.7006
  139CHL1   C1216503   0.023   7.121  13.207  0.0708  0.1353 -0.0628
  139CHL1  H12A16504  -0.054   7.200  13.191  1.0159  1.5462  1.8271
  139CHL1  H12B16505   0.115   7.162  13.161  0.4698 -0.1847  0.4370
  139CHL1   C1116506  -0.010   6.976  13.160  0.1856 -0.0245 -0.0394
  139CHL1  H11A16507  -0.108   6.949  13.205 -0.1804 -0.4518 -1.0603
  139CHL1  H11B16508  -0.032   6.978  13.051  2.7937  0.1300 -0.6426
  139CHL1    C916509   0.103   6.872  13.194 -0.4230 -0.0844  0.2897
  139CHL1    H916510   0.191   6.908  13.136 -0.1720 -2.1568 -0.7026
  139CHL1   C1016511   0.072   6.731  13.144 -0.3652  0.0670  0.4114
  139CHL1   C1916512  -0.077   6.696  13.194 -0.0919 -0.7524  1.2420
  139CHL1  H19A16513  -0.151   6.736  13.122  1.5231 -0.8177 -0.5429
  139CHL1  H19B16514  -0.085   6.586  13.200 -0.7033 -0.8384 -0.5471
  139CHL1  H19C16515  -0.092   6.743  13.293 -1.4265 -0.4013  0.8939
  139CHL1    C116516   0.080   6.733  12.990  0.1076 -0.1196 -0.3854
  139CHL1   H1A16517   0.000   6.796  12.945  2.2193  2.9118 -0.1947
  139CHL1   H1B16518   0.174   6.790  12.972  0.1270  0.2031  0.6933
  139CHL1    C216519   0.087   6.592  12.921 -0.5290 -0.5297  0.1264
  139CHL1   H2A16520   0.099   6.608  12.811 -1.3342  2.2915  0.3873
  139CHL1   H2B16521  -0.009   6.536  12.928 -1.3258  1.0344  2.8921
  139CHL1   C2016522   0.011   7.372  13.457  0.1695  0.2658 -0.1453
  139CHL1   H2016523  -0.061   7.328  13.529  1.4341 -0.0317  0.9762
  139CHL1   C2116524  -0.061   7.432  13.336 -0.5575 -0.2046 -1.1681
  139CHL1  H21A16525  -0.117   7.525  13.359  0.9439  0.2974  0.7249
  139CHL1  H21B16526  -0.137   7.359  13.303 -0.4379 -0.7781 -0.2236
  139CHL1  H21C16527   0.010   7.474  13.262 -0.0389  1.4172  0.1748
  139CHL1   C2216528   0.081   7.478  13.540 -0.6790 -0.2990  0.4747
  139CHL1  H22A16529   0.014   7.566  13.545 -0.5821 -0.1613 -0.5009
  139CHL1  H22B16530   0.096   7.444  13.645 -0.8264  2.7549  1.5703
  139CHL1   C2316531   0.210   7.541  13.484 -0.1156 -0.0740  0.6680
  139CHL1  H23A16532   0.273   7.454  13.459 -1.6309 -0.6964 -1.2948
  139CHL1  H23B16533   0.190   7.594  13.388  0.0824 -0.9738  0.1222
  139CHL1   C2416534   0.273   7.639  13.578  0.6824 -0.3998  0.2570
  139CHL1  H24A16535   0.196   7.718  13.592 -0.7491 -1.8097  0.7763
  139CHL1  H24B16536   0.273   7.590  13.678 -1.8135  0.3705  0.7084
  139CHL1   C2516537   0.415   7.694  13.534 -0.4323  0.0350  0.0766
  139CHL1   H2516538   0.482   7.607  13.514 -0.7919 -0.5136  1.1229
  139CHL1   C2616539   0.415   7.777  13.408  0.0696  0.0137 -0.0958
  139CHL1  H26A16540   0.521   7.801  13.385 -0.0481 -0.1772 -0.8579
  139CHL1  H26B16541   0.381   7.715  13.322 -1.0939 -2.6312  2.1039
  139CHL1  H26C16542   0.357   7.871  13.417 -1.3344 -1.0214  3.2771
  139CHL1   C2716543   0.482   7.778  13.650  0.4158  0.8997 -0.6111
  139CHL1  H27A16544   0.490   7.718  13.743  0.1008 -0.4419 -1.4208
  139CHL1  H27B16545   0.587   7.804  13.626  1.6491 -2.8989 -0.0787
  139CHL1  H27C16546   0.420   7.869  13.664 -0.9487  0.3023 -2.3675
  140CHL1    C316547   7.093   7.505  13.027 -0.2176  0.2325 -0.1918
  140CHL1    H316548   7.110   7.400  13.059  0.8787 -0.5433 -2.9983
  140CHL1    O316549   7.111   7.503  12.884 -0.1131 -0.5792 -0.1351
  140CHL1   H3'16550   7.077   7.588  12.856  2.3650  0.8804  0.9675
  140CHL1    C416551   6.942   7.536  13.059  0.3780 -0.0027 -0.3646
  140CHL1   H4A16552   6.927   7.634  13.009  0.5232 -0.1612 -0.7207
  140CHL1   H4B16553   6.870   7.460  13.021  0.1841 -0.4685  0.9068
  140CHL1    C516554   6.914   7.560  13.209  0.6334  0.1121 -0.2368
  140CHL1    C616555   6.817   7.490  13.279 -0.4080  0.3236  0.2198
  140CHL1    H616556   6.748   7.421  13.229  0.5403  0.8154 -1.9250
  140CHL1    C716557   6.816   7.487  13.433  0.8517 -0.5188  0.2697
  140CHL1   H7A16558   6.709   7.486  13.462  0.1843  0.8048 -1.8739
  140CHL1   H7B16559   6.866   7.399  13.480  1.1513  0.1645  1.2490
  140CHL1    C816560   6.880   7.615  13.483  0.2670 -0.7471 -0.3596
  140CHL1    H816561   6.823   7.702  13.444  0.3449  1.1514  3.3076
  140CHL1   C1416562   6.875   7.611  13.639  0.2912 -0.8074  0.0502
  140CHL1   H1416563   6.929   7.517  13.665  0.4094  0.3990  5.2923
  140CHL1   C1516564   6.740   7.603  13.713 -0.0410 -0.2849 -0.1030
  140CHL1  H15A16565   6.667   7.671  13.665 -0.5421 -0.3472  0.5664
  140CHL1  H15B16566   6.703   7.499  13.725 -2.2806  0.2755 -1.5373
  140CHL1   C1616567   6.768   7.664  13.854  0.0734 -0.5644  0.3630
  140CHL1  H16A16568   6.712   7.759  13.854  1.4814  0.2987  1.3233
  140CHL1  H16B16569   6.735   7.595  13.935 -0.7739  0.8490  1.2436
  140CHL1   C1716570   6.923   7.686  13.852 -0.1560 -0.0196 -0.1365
  140CHL1   H1716571   6.964   7.584  13.871 -0.9124 -0.4342 -0.6760
  140CHL1   C1316572   6.960   7.718  13.707 -0.4305  0.3477  0.3833
  140CHL1   C1816573   6.911   7.858  13.663  0.4047 -0.2108 -0.4724
  140CHL1  H18A16574   6.822   7.885  13.724  1.5341  0.2225  1.0450
  140CHL1  H18B16575   6.990   7.932  13.688 -1.6615  1.7173  0.6296
  140CHL1  H18C16576   6.896   7.860  13.553 -0.5555 -1.5803 -0.3899
  140CHL1   C1216577   7.105   7.698  13.661 -0.0720  0.5904  0.5002
  140CHL1  H12A16578   7.169   7.774  13.711 -0.5509 -0.2091  2.4440
  140CHL1  H12B16579   7.149   7.599  13.681 -1.7557 -0.0844  1.0843
  140CHL1   C1116580   7.113   7.721  13.512 -0.2636 -0.4523  0.4386
  140CHL1  H11A16581   7.097   7.827  13.483  2.0422 -0.3999 -0.8411
  140CHL1  H11B16582   7.221   7.708  13.491 -0.3719  0.2238 -0.5546
  140CHL1    C916583   7.025   7.624  13.435 -0.3162 -0.2226  0.7299
  140CHL1    H916584   7.070   7.524  13.449 -0.8473 -0.8993 -1.7881
  140CHL1   C1016585   7.026   7.641  13.281  0.3579  0.4401 -0.4666
  140CHL1   C1916586   7.003   7.792  13.245 -0.6043 -1.1478 -0.3795
  140CHL1  H19A16587   6.996   7.805  13.135  1.0886 -0.8879 -0.4864
  140CHL1  H19B16588   6.910   7.820  13.299  1.0331 -2.2028  3.3546
  140CHL1  H19C16589   7.089   7.856  13.275 -1.6538  0.6462 -1.0640
  140CHL1    C116590   7.168   7.596  13.241  0.3533  0.5900  0.6452
  140CHL1   H1A16591   7.246   7.658  13.289  0.2999 -0.7775  2.6352
  140CHL1   H1B16592   7.187   7.494  13.281 -0.7834  0.1515  0.1221
  140CHL1    C216593   7.194   7.601  13.092 -0.1326 -0.3642  0.4345
  140CHL1   H2A16594   7.290   7.565  13.049 -0.9276 -0.4935 -1.3597
  140CHL1   H2B16595   7.184   7.705  13.054  1.7744  0.6747  2.5342
  140CHL1   C2016596   6.969   7.775  13.976 -0.7263  0.0588 -0.0071
  140CHL1   H2016597   6.926   7.726  14.066 -2.5978  0.9456 -0.3694
  140CHL1   C2116598   6.898   7.904  13.987  0.4374 -0.0463  0.1949
  140CHL1  H21A16599   6.787   7.901  13.984  0.3473  2.0146 -0.5882
  140CHL1  H21B16600   6.935   7.974  13.908 -0.9338  0.8319  0.2823
  140CHL1  H21C16601   6.924   7.950  14.085 -2.3891  0.8860  0.6020
  140CHL1   C2216602   7.119   7.784  14.002 -0.4155 -0.5560 -0.6851
  140CHL1  H22A16603   7.171   7.691  13.972  2.4175  1.2030 -1.5833
  140CHL1  H22B16604   7.160   7.873  13.949  1.9109 -0.1656  1.6044
  140CHL1   C2316605   7.146   7.811  14.155  0.3055 -0.4755  0.3648
  140CHL1  H23A16606   7.092   7.895  14.205  1.5883 -0.6726  2.1685
  140CHL1  H23B16607   7.126   7.717  14.211 -0.7752  0.7662  2.2011
  140CHL1   C2416608   7.303   7.832  14.173 -0.9915 -0.0137  0.3638
  140CHL1  H24A16609   7.361   7.759  14.113 -0.9154  0.7711 -0.5349
  140CHL1  H24B16610   7.333   7.933  14.140 -1.9937  0.5278  1.0575
  140CHL1   C2516611   7.348   7.820  14.320  0.2478 -0.0320  0.0081
  140CHL1   H2516612   7.296   7.734  14.369  1.0814 -1.4750 -1.5329
  140CHL1   C2616613   7.331   7.949  14.392 -0.0077  0.3131  0.2432
  140CHL1  H26A16614   7.351   8.036  14.326  0.0272 -0.6198 -1.0146
  140CHL1  H26B16615   7.228   7.946  14.433  0.6841 -1.0023  2.0090
  140CHL1  H26C16616   7.401   7.949  14.478 -0.3542 -2.3166  0.6114
  140CHL1   C2716617   7.495   7.777  14.333  0.6761  0.0092 -0.5381
  140CHL1  H27A16618   7.521   7.727  14.428 -0.8780  0.7548  0.3126
  140CHL1  H27B16619   7.533   7.711  14.252  2.2423  0.2342 -0.0109
  140CHL1  H27C16620   7.570   7.858  14.327  0.0539  0.7060  0.7059
  141DOPC     N16621   3.760   3.444  16.204 -0.1512 -0.3223  0.2992
  141DOPC   C1216622   3.742   3.493  16.058  0.0207  0.3503 -0.8324
  141DOPC  H12A16623   3.642   3.533  16.048  0.6264  2.3939  0.6349
  141DOPC  H12B16624   3.750   3.402  16.000 -0.9080  1.8901 -3.5468
  141DOPC   C1316625   3.768   3.557  16.306  0.0698  0.0981 -0.1333
  141DOPC  H13A16626   3.855   3.620  16.292 -1.0202  1.8675  0.6767
  141DOPC  H13B16627   3.682   3.622  16.300 -1.6185 -2.0401 -0.2894
  141DOPC  H13C16628   3.774   3.519  16.407 -3.3988  0.4935  0.3522
  141DOPC   C1416629   3.889   3.369  16.215 -0.0990  0.4911 -0.1353
  141DOPC  H14A16630   3.888   3.279  16.154  0.7006  0.9196 -0.7994
  141DOPC  H14B16631   3.966   3.431  16.172 -2.1954  2.8218 -0.7272
  141DOPC  H14C16632   3.932   3.337  16.309  0.3970 -3.1438 -1.4021
  141DOPC   C1516633   3.649   3.358  16.246 -0.2746  0.6645 -0.2026
  141DOPC  H15A16634   3.678   3.322  16.344 -1.5203  0.0490 -0.0311
  141DOPC  H15B16635   3.639   3.279  16.173  0.1384  1.0111 -0.6374
  141DOPC  H15C16636   3.551   3.403  16.261 -1.0455 -0.9106 -0.3249
  141DOPC   C1116637   3.844   3.596  16.005 -0.5518 -0.2371 -0.2130
  141DOPC  H11A16638   3.840   3.594  15.894 -1.3879  0.6577 -0.2076
  141DOPC  H11B16639   3.806   3.697  16.030  0.4643 -0.4824  2.6963
  141DOPC     P16640   4.072   3.697  16.109  0.0946 -0.1284  0.1664
  141DOPC   O1316641   4.206   3.647  16.100  0.0865  0.6273 -0.2804
  141DOPC   O1416642   4.021   3.718  16.249  0.3596  0.1246 -0.1345
  141DOPC   O1216643   3.982   3.580  16.047 -0.6901 -0.2786 -0.3444
  141DOPC   O1116644   4.058   3.829  16.019 -0.4443  0.2426 -0.4598
  141DOPC    C116645   4.079   3.831  15.871 -0.1739  0.2055  0.1144
  141DOPC    HA16646   4.017   3.910  15.824 -1.8511  2.7335  5.7722
  141DOPC    HB16647   4.053   3.738  15.814  1.3030  1.4433 -2.8137
  141DOPC    C216648   4.231   3.858  15.846 -0.2016  0.1280 -0.3401
  141DOPC    HS16649   4.298   3.780  15.887 -1.6854 -1.8579 -1.5335
  141DOPC   O2116650   4.251   3.991  15.902 -0.4652  0.4178 -0.0434
  141DOPC   C2116651   4.377   4.031  15.929  0.6639  0.9575  0.5024
  141DOPC   O2216652   4.472   3.954  15.923 -0.4322 -1.2638  0.5388
  141DOPC   C2216653   4.384   4.177  15.963  0.1095 -0.1006 -0.0724
  141DOPC   H2R16654   4.337   4.193  16.062  0.0902  0.7304 -0.2041
  141DOPC   H2S16655   4.330   4.235  15.885  1.2745  1.7554  0.4207
  141DOPC    C316656   4.251   3.874  15.694 -0.0118 -0.5113 -0.2687
  141DOPC    HX16657   4.176   3.948  15.660 -1.3037 -1.3300  0.7030
  141DOPC    HY16658   4.221   3.781  15.641 -0.4966 -0.2714 -0.4185
  141DOPC   O3116659   4.382   3.935  15.659  0.4715  0.3968  0.8051
  141DOPC   C3116660   4.473   3.838  15.650 -0.1476  0.5190  1.2445
  141DOPC   O3216661   4.462   3.724  15.689 -0.7679  0.4311 -0.5891
  141DOPC   C3216662   4.599   3.884  15.572  0.0485 -0.5359 -0.4562
  141DOPC   H2X16663   4.575   3.963  15.498  1.3639 -2.0681 -2.6069
  141DOPC   H2Y16664   4.671   3.925  15.647 -0.5046  0.8182 -0.6304
  141DOPC   C2316665   4.528   4.224  15.970  0.5598 -0.7152  0.2323
  141DOPC   H3R16666   4.581   4.174  16.054 -1.4845  0.3990  2.2954
  141DOPC   H3S16667   4.531   4.330  16.003  0.3054 -1.3480  2.4217
  141DOPC   C2416668   4.600   4.215  15.833  0.2168 -0.4082 -0.5479
  141DOPC   H4R16669   4.612   4.112  15.793  1.8733 -0.3839 -0.2009
  141DOPC   H4S16670   4.705   4.249  15.846 -0.5882  2.0056  0.2622
  141DOPC   C2516671   4.551   4.307  15.720 -0.6512 -0.4123  0.0556
  141DOPC   H5R16672   4.556   4.411  15.759  1.9298 -0.6594  0.5674
  141DOPC   H5S16673   4.445   4.281  15.698 -0.3218 -1.2751 -0.5678
  141DOPC   C2616674   4.639   4.303  15.593 -0.3294 -0.1724  0.6000
  141DOPC   H6R16675   4.643   4.195  15.568 -0.9201 -0.5083  1.8618
  141DOPC   H6S16676   4.743   4.333  15.613  0.4238 -2.1862  0.0008
  141DOPC   C2716677   4.575   4.382  15.478  0.5710  0.1604  0.4515
  141DOPC   H7R16678   4.551   4.484  15.514 -0.3180  0.0479  0.2035
  141DOPC   H7S16679   4.473   4.347  15.452  0.8819  0.2270 -0.9526
  141DOPC   C2816680   4.658   4.388  15.348  0.2709 -0.2993  0.2547
  141DOPC   H8R16681   4.669   4.286  15.305  2.7011  0.2896 -0.6712
  141DOPC   H8S16682   4.758   4.408  15.391 -0.0562  1.2761  0.3213
  141DOPC   C2916683   4.615   4.478  15.239 -0.2370 -0.2501  0.0628
  141DOPC   H9R16684   4.544   4.430  15.170 -1.3587  1.0905  0.2369
  141DOPC  C21016685   4.651   4.605  15.217 -0.1494  0.5975  0.2512
  141DOPC  H10R16686   4.629   4.645  15.117  2.5843 -0.4358 -0.8584
  141DOPC  C21116687   4.764   4.681  15.285 -0.0540 -0.5930 -0.1452
  141DOPC  H11R16688   4.806   4.627  15.373 -2.8721 -1.1560  0.9423
  141DOPC  H11S16689   4.743   4.785  15.318  1.5771 -0.6531  1.2533
  141DOPC  C21216690   4.885   4.702  15.193 -0.0002  0.0594  0.4237
  141DOPC  H12R16691   4.945   4.786  15.234  0.3508  1.8674 -3.3648
  141DOPC  H12S16692   4.844   4.734  15.094  0.8422 -3.8278 -1.3471
  141DOPC  C21316693   4.970   4.583  15.162 -0.1337 -0.4650  0.2213
  141DOPC  H13R16694   4.905   4.498  15.131  0.2823  0.4061 -3.4674
  141DOPC  H13S16695   5.027   4.548  15.251  0.7957 -1.3352 -0.6813
  141DOPC  C21416696   5.062   4.609  15.049  0.1144 -0.2360 -0.0065
  141DOPC  H14R16697   5.141   4.671  15.097 -1.0452  0.1922  1.4037
  141DOPC  H14S16698   5.012   4.671  14.971 -1.9527 -1.0674  0.6088
  141DOPC  C21516699   5.131   4.485  14.993  0.6714  1.2108  0.0994
  141DOPC  H15R16700   5.217   4.519  14.931  2.1342 -2.2494 -0.0092
  141DOPC  H15S16701   5.068   4.432  14.918  1.4338  1.5610 -0.8223
  141DOPC  C21616702   5.188   4.381  15.096 -0.2334 -0.4225  0.1207
  141DOPC  H16R16703   5.102   4.312  15.111 -0.7976  0.3305  0.4187
  141DOPC  H16S16704   5.213   4.427  15.194 -0.2741  1.2539 -0.6130
  141DOPC  C21716705   5.305   4.298  15.038  0.3251  0.9386 -0.0106
  141DOPC  H17R16706   5.397   4.361  15.032 -1.0812  2.9112 -2.8855
  141DOPC  H17S16707   5.261   4.280  14.938 -1.7060  0.6639  0.8760
  141DOPC  C21816708   5.319   4.161  15.114 -0.2114 -0.4186  0.1739
  141DOPC  H18R16709   5.386   4.104  15.046 -2.1536 -1.3834 -1.0571
  141DOPC  H18S16710   5.221   4.108  15.119  0.1155 -1.0919 -0.2600
  141DOPC  H18T16711   5.356   4.170  15.218  2.6635 -2.8690 -0.5087
  141DOPC   C3316712   4.686   3.780  15.502  0.2680 -0.4364 -0.3200
  141DOPC   H3X16713   4.693   3.698  15.577 -1.1600 -1.2699 -1.0550
  141DOPC   H3Y16714   4.779   3.828  15.463  0.8426 -0.0690  1.3975
  141DOPC   C3416715   4.603   3.724  15.376  0.1038  0.2150 -0.0258
  141DOPC   H4X16716   4.585   3.814  15.312  1.2069  2.1259  2.1935
  141DOPC   H4Y16717   4.513   3.674  15.418 -0.2692  0.6046 -0.3447
  141DOPC   C3516718   4.686   3.622  15.293  0.8402  0.5299 -0.0163
  141DOPC   H5X16719   4.779   3.664  15.249  0.5592  2.3316  1.0076
  141DOPC   H5Y16720   4.623   3.583  15.210  0.9671  0.3055 -0.0078
  141DOPC   C3616721   4.731   3.503  15.378  0.4645  0.4122 -0.1871
  141DOPC   H6X16722   4.800   3.546  15.455  0.9171  1.7484 -1.3156
  141DOPC   H6Y16723   4.652   3.435  15.416  0.4362 -0.1257 -1.1859
  141DOPC   C3716724   4.819   3.419  15.292  0.2843  0.0743  0.5128
  141DOPC   H7X16725   4.742   3.377  15.224 -2.0563  0.6225  2.6603
  141DOPC   H7Y16726   4.897   3.472  15.233 -0.5764  1.2854  0.4286
  141DOPC   C3816727   4.881   3.289  15.370 -0.1546 -0.2727  0.5816
  141DOPC   H8X16728   4.791   3.247  15.419 -1.6822  1.4456 -0.6068
  141DOPC   H8Y16729   4.956   3.327  15.443  0.8988  1.2452 -1.1837
  141DOPC   C3916730   4.948   3.186  15.277  0.6099 -0.1702  0.4161
  141DOPC   H9X16731   5.052   3.209  15.248  0.4020  2.0708  1.2547
  141DOPC  C31016732   4.883   3.083  15.219 -0.1208 -0.4226 -0.5925
  141DOPC  H10X16733   4.950   3.020  15.160  3.0491 -0.1038  2.3569
  141DOPC  C31116734   4.733   3.060  15.214 -0.0640  0.5000  0.3961
  141DOPC  H11X16735   4.686   3.137  15.279  1.1581  0.8546  0.8865
  141DOPC  H11Y16736   4.707   2.969  15.272 -1.0672  0.7989  0.4410
  141DOPC  C31216737   4.675   3.052  15.084  0.1662  0.4020 -0.1802
  141DOPC  H12X16738   4.723   2.969  15.029  0.6365  0.2078  0.5132
  141DOPC  H12Y16739   4.688   3.153  15.038  1.0714  1.0215  1.3606
  141DOPC  C31316740   4.527   3.026  15.095 -0.4281  0.1097 -0.2648
  141DOPC  H13X16741   4.508   2.984  15.196 -0.0486 -1.3218 -0.7651
  141DOPC  H13Y16742   4.472   3.122  15.092 -1.3899 -0.4351 -0.3857
  141DOPC  C31416743   4.471   2.925  14.992  0.5709  0.2256 -0.2645
  141DOPC  H14X16744   4.530   2.832  15.009 -0.1099 -0.5689 -2.0686
  141DOPC  H14Y16745   4.364   2.907  15.016  0.2666  1.0543 -0.9396
  141DOPC  C31516746   4.472   2.962  14.842  0.1112  0.6521 -0.2300
  141DOPC  H15X16747   4.434   2.877  14.781  2.6023  1.1527 -2.6833
  141DOPC  H15Y16748   4.580   2.981  14.825  0.7461  1.6382  3.8095
  141DOPC  C31616749   4.392   3.087  14.818 -0.0194  0.5217 -0.4008
  141DOPC  H16X16750   4.286   3.060  14.799 -0.7205  0.9933  2.4095
  141DOPC  H16Y16751   4.386   3.147  14.911  0.6922 -1.4315  0.9621
  141DOPC  C31716752   4.449   3.174  14.708  0.4269  0.0212 -0.1743
  141DOPC  H17X16753   4.546   3.211  14.748  1.1887  0.4184 -2.2620
  141DOPC  H17Y16754   4.466   3.106  14.622 -1.0810  0.2290 -0.6713
  141DOPC  C31816755   4.364   3.288  14.668  0.0577  0.5439 -0.0670
  141DOPC  H18X16756   4.416   3.363  14.605 -0.6633 -0.4936 -1.9777
  141DOPC  H18Y16757   4.270   3.250  14.623  0.5646  0.0345 -0.7084
  141DOPC  H18Z16758   4.331   3.339  14.761 -1.3386 -1.1559  0.4256
  142DOPC     N16759   4.939   3.973  16.284  0.0249  0.2058  0.2309
  142DOPC   C1216760   5.083   3.936  16.238 -0.0275  0.2181  0.3755
  142DOPC  H12A16761   5.076   3.870  16.153 -1.3326 -2.1457  2.1907
  142DOPC  H12B16762   5.130   3.879  16.317  1.1576 -0.4848 -0.7975
  142DOPC   C1316763   4.856   3.856  16.296  0.4251 -0.1203  0.3660
  142DOPC  H13A16764   4.757   3.892  16.320  0.3575 -1.2273  1.8512
  142DOPC  H13B16765   4.836   3.802  16.205 -3.0974 -1.1713  1.6191
  142DOPC  H13C16766   4.886   3.792  16.377  1.3785  0.3944  0.4370
  142DOPC   C1416767   4.871   4.058  16.177  0.2558 -0.4146 -0.2900
  142DOPC  H14A16768   4.851   4.001  16.087  2.6496 -0.2145 -1.0248
  142DOPC  H14B16769   4.778   4.099  16.213  0.8571  0.2056  0.5914
  142DOPC  H14C16770   4.931   4.146  16.155 -0.7905  0.6232  0.8499
  142DOPC   C1516771   4.945   4.029  16.426  0.2293  0.0320  0.0263
  142DOPC  H15A16772   4.844   4.045  16.459  0.1818 -0.4143  0.0968
  142DOPC  H15B16773   5.005   4.119  16.418  0.8750 -0.4600 -1.0225
  142DOPC  H15C16774   4.990   3.953  16.487 -0.1833 -1.5210 -1.5377
  142DOPC   C1116775   5.184   4.053  16.206 -0.3919 -0.4017 -0.1907
  142DOPC  H11A16776   5.198   4.137  16.279 -0.2145 -0.6620  0.0794
  142DOPC  H11B16777   5.284   4.006  16.210 -0.1129  0.1897 -0.0361
  142DOPC     P16778   5.250   4.200  15.994 -0.1747 -0.4297 -0.0866
  142DOPC   O1316779   5.289   4.129  15.872  0.2930 -0.2085  0.2661
  142DOPC   O1416780   5.362   4.245  16.080  0.7900 -0.7335  0.5606
  142DOPC   O1216781   5.157   4.107  16.077 -0.4257  0.4905 -0.7731
  142DOPC   O1116782   5.162   4.334  15.960  0.6533  0.2978 -0.2568
  142DOPC    C116783   5.021   4.331  15.973  0.4749  0.2679  0.2938
  142DOPC    HA16784   4.984   4.366  16.072  0.4694 -0.0867  0.4178
  142DOPC    HB16785   4.982   4.229  15.956 -0.6749  0.7977 -0.3895
  142DOPC    C216786   4.948   4.418  15.868  0.3574  0.0867  0.4455
  142DOPC    HS16787   4.842   4.390  15.854 -0.1905  2.6393 -1.2498
  142DOPC   O2116788   5.022   4.417  15.745 -0.1808  0.8115 -0.2397
  142DOPC   C2116789   5.014   4.297  15.685  0.5220  0.5622  0.0471
  142DOPC   O2216790   4.934   4.207  15.708  0.3090  1.1218 -0.2137
  142DOPC   C2216791   5.118   4.282  15.582 -0.2224 -0.3910 -0.0280
  142DOPC   H2R16792   5.216   4.271  15.633 -0.0550 -1.3749 -0.5353
  142DOPC   H2S16793   5.130   4.378  15.527  1.1903  0.0429  0.9686
  142DOPC    C316794   4.931   4.572  15.904 -0.8621 -0.5057 -0.3574
  142DOPC    HX16795   5.026   4.623  15.933 -1.3559  0.4417 -0.3743
  142DOPC    HY16796   4.871   4.567  15.997 -0.7016 -0.1242 -0.2328
  142DOPC   O3116797   4.875   4.646  15.789  0.1935 -0.0459  0.2180
  142DOPC   C3116798   4.964   4.712  15.714 -0.9394  0.2294 -0.2622
  142DOPC   O3216799   5.085   4.712  15.731 -0.2617 -0.3347 -0.1616
  142DOPC   C3216800   4.884   4.781  15.609 -0.4296  0.1478  0.1379
  142DOPC   H2X16801   4.947   4.782  15.517 -0.9701 -0.2030 -0.2455
  142DOPC   H2Y16802   4.791   4.723  15.591  1.6031 -2.7323 -2.2764
  142DOPC   C2316803   5.100   4.163  15.485 -0.1180 -0.3657  0.8323
  142DOPC   H3R16804   5.066   4.071  15.536 -2.9141 -1.1171 -2.0513
  142DOPC   H3S16805   5.194   4.143  15.429 -1.9072 -2.7930 -1.5794
  142DOPC   C2416806   5.001   4.178  15.366 -0.0901 -0.0963  0.0553
  142DOPC   H4R16807   5.026   4.256  15.291 -1.9215 -0.2971 -0.8236
  142DOPC   H4S16808   4.905   4.209  15.412 -0.0009  0.3483 -0.0458
  142DOPC   C2516809   4.976   4.041  15.294 -0.0797 -0.3245 -0.1977
  142DOPC   H5R16810   4.950   3.958  15.362 -0.8597 -0.7268 -0.9638
  142DOPC   H5S16811   5.068   4.015  15.237 -2.1872 -2.5341 -2.9071
  142DOPC   C2616812   4.868   4.048  15.185 -1.0684  0.7019 -0.0309
  142DOPC   H6R16813   4.900   4.131  15.118 -0.3424  0.3707 -0.1020
  142DOPC   H6S16814   4.766   4.075  15.220 -0.9569  1.0836  0.0034
  142DOPC   C2716815   4.872   3.915  15.101 -0.4083 -0.2466  0.1370
  142DOPC   H7R16816   4.880   3.831  15.173 -0.5804  0.4568  0.9787
  142DOPC   H7S16817   4.969   3.918  15.047  0.0760 -0.5702  0.9834
  142DOPC   C2816818   4.758   3.902  14.991  0.2250 -0.2557 -0.1013
  142DOPC   H8R16819   4.770   3.986  14.919 -0.9435  0.7334  0.8127
  142DOPC   H8S16820   4.661   3.922  15.041 -1.1304 -2.8110 -1.5081
  142DOPC   C2916821   4.755   3.769  14.925  0.4506  1.0488  0.2540
  142DOPC   H9R16822   4.847   3.736  14.875  0.4448 -0.5650  1.2642
  142DOPC  C21016823   4.647   3.684  14.918  0.9196 -0.2655  0.0744
  142DOPC  H10R16824   4.643   3.593  14.856  0.4532 -0.1418 -0.0781
  142DOPC  C21116825   4.507   3.729  14.975 -0.7207  0.3929  0.4425
  142DOPC  H11R16826   4.450   3.792  14.903  0.0264 -1.9192 -2.3912
  142DOPC  H11S16827   4.517   3.781  15.072 -2.4769  0.8695  0.4030
  142DOPC  C21216828   4.406   3.614  15.010 -0.5499 -0.4753 -0.4307
  142DOPC  H12R16829   4.451   3.555  15.094  0.0105  0.8305  0.2205
  142DOPC  H12S16830   4.383   3.553  14.921 -1.0593 -1.9618  0.6798
  142DOPC  C21316831   4.266   3.681  15.049 -1.0036  0.0115  0.1816
  142DOPC  H13R16832   4.221   3.719  14.955  0.2023  0.5194 -0.2031
  142DOPC  H13S16833   4.295   3.769  15.109 -1.9725  1.1632 -0.9937
  142DOPC  C21416834   4.168   3.585  15.113  0.5035 -0.4604  0.6111
  142DOPC  H14R16835   4.165   3.493  15.051  0.0767 -1.4369  2.0270
  142DOPC  H14S16836   4.070   3.638  15.114  0.2018 -0.7689 -2.7344
  142DOPC  C21516837   4.211   3.532  15.253  0.5454 -0.2226 -0.0531
  142DOPC  H15R16838   4.307   3.476  15.250 -0.1043 -1.5070  1.6572
  142DOPC  H15S16839   4.129   3.472  15.296  0.3312  2.0813  3.1348
  142DOPC  C21616840   4.216   3.641  15.361  0.3903  0.0214  0.0187
  142DOPC  H16R16841   4.295   3.716  15.338 -0.5261  1.9375  2.5920
  142DOPC  H16S16842   4.249   3.585  15.451 -1.4301  1.3004  1.5783
  142DOPC  C21716843   4.089   3.715  15.385  0.0591  0.0246 -0.0750
  142DOPC  H17R16844   4.058   3.725  15.491 -0.6768  0.9200 -0.3601
  142DOPC  H17S16845   4.007   3.662  15.333 -0.8970  1.3956 -0.0319
  142DOPC  C21816846   4.086   3.865  15.333  0.5200  0.6686 -0.1315
  142DOPC  H18R16847   4.005   3.916  15.388 -0.7248  0.3182 -1.5767
  142DOPC  H18S16848   4.059   3.872  15.226  2.7373 -0.5916 -0.8443
  142DOPC  H18T16849   4.178   3.921  15.361  0.1942  1.2894 -0.2930
  142DOPC   C3316850   4.861   4.917  15.662 -0.2977  0.2510  0.3508
  142DOPC   H3X16851   4.961   4.966  15.669 -0.2284  0.7588 -2.5545
  142DOPC   H3Y16852   4.807   4.913  15.758 -0.0670 -1.0992  0.4421
  142DOPC   C3416853   4.779   4.992  15.552  0.0971  0.6634 -0.2673
  142DOPC   H4X16854   4.745   5.088  15.596 -0.5219 -0.1637  1.1309
  142DOPC   H4Y16855   4.687   4.933  15.531  0.7536 -0.7186  0.5935
  142DOPC   C3516856   4.864   5.019  15.424  0.1990  0.2653 -0.3645
  142DOPC   H5X16857   4.877   4.914  15.388 -0.8875 -0.8867  2.3272
  142DOPC   H5Y16858   4.962   5.059  15.458  0.4027 -0.8255  0.3897
  142DOPC   C3616859   4.785   5.109  15.331  0.4785  1.1625  0.3568
  142DOPC   H6X16860   4.715   5.181  15.378  0.7130  0.7039  1.4517
  142DOPC   H6Y16861   4.863   5.178  15.293  2.8345 -2.9721 -3.1947
  142DOPC   C3716862   4.713   5.047  15.208 -0.4277 -0.2803 -0.0370
  142DOPC   H7X16863   4.779   4.985  15.144 -0.3011  0.1909 -0.3784
  142DOPC   H7Y16864   4.634   4.981  15.248 -0.2634 -0.0187  0.7317
  142DOPC   C3816865   4.655   5.153  15.106  0.0184  0.1090  0.1900
  142DOPC   H8X16866   4.738   5.217  15.069  0.9657 -0.1569  1.7709
  142DOPC   H8Y16867   4.588   5.222  15.162  0.2069  0.4540 -0.0118
  142DOPC   C3916868   4.581   5.080  14.992  0.2590 -0.3265 -0.3660
  142DOPC   H9X16869   4.649   5.006  14.947 -0.2612  0.7371 -3.1028
  142DOPC  C31016870   4.454   5.100  14.950  0.7242  0.3586  0.3172
  142DOPC  H10X16871   4.425   5.038  14.865  0.4453  2.5351 -1.2598
  142DOPC  C31116872   4.353   5.187  15.011  0.0058 -0.1614 -0.3962
  142DOPC  H11X16873   4.309   5.255  14.935 -0.6980 -1.2809 -1.0121
  142DOPC  H11Y16874   4.397   5.251  15.091 -3.4055  0.2997  1.2857
  142DOPC  C31216875   4.245   5.116  15.093  0.1927 -0.0250  0.1608
  142DOPC  H12X16876   4.279   5.042  15.169  0.6730  0.8885  0.8561
  142DOPC  H12Y16877   4.190   5.056  15.017  0.7105 -1.0145  0.5553
  142DOPC  C31316878   4.152   5.206  15.168  0.3630  0.2237 -0.0504
  142DOPC  H13X16879   4.096   5.150  15.247  1.4573 -1.7197 -0.5740
  142DOPC  H13Y16880   4.217   5.278  15.221  2.2085 -1.1427 -0.3609
  142DOPC  C31416881   4.052   5.286  15.074  0.3092  0.3489 -1.0977
  142DOPC  H14X16882   3.999   5.357  15.141  3.9930  1.9626  0.3810
  142DOPC  H14Y16883   4.110   5.350  15.005  2.0933  0.1315  0.1223
  142DOPC  C31516884   3.956   5.196  15.001 -0.1176 -0.7558  0.1096
  142DOPC  H15X16885   3.887   5.168  15.082  1.1088 -0.5834  1.2535
  142DOPC  H15Y16886   4.003   5.112  14.945 -2.0129 -0.1161 -2.6335
  142DOPC  C31616887   3.877   5.281  14.894 -0.5662  0.1959 -0.7511
  142DOPC  H16X16888   3.823   5.361  14.949  2.6521  3.4212 -1.8625
  142DOPC  H16Y16889   3.926   5.333  14.808 -1.8444  1.1549 -0.9259
  142DOPC  C31716890   3.787   5.174  14.822 -0.5767 -0.5169 -0.0039
  142DOPC  H17X16891   3.849   5.100  14.767 -0.3372 -0.1422 -0.2418
  142DOPC  H17Y16892   3.724   5.119  14.895  0.7583 -0.9738  0.8424
  142DOPC  C31816893   3.708   5.247  14.717  0.3456 -0.6932  0.9835
  142DOPC  H18X16894   3.658   5.335  14.761  0.5979 -0.5250  0.9352
  142DOPC  H18Y16895   3.788   5.279  14.647  0.8787 -2.0053  0.9446
  142DOPC  H18Z16896   3.632   5.181  14.669  0.0515  0.5829 -0.3764
  143DOPC     N16897   3.073   3.009  16.097 -0.1453 -0.4806  0.0865
  143DOPC   C1216898   2.992   3.020  15.966  0.6031  0.0396  0.5146
  143DOPC  H12A16899   2.892   3.025  16.007  0.1365  1.5638 -0.7297
  143DOPC  H12B16900   3.000   2.932  15.904 -1.1353 -0.0497  0.3565
  143DOPC   C1316901   3.030   2.882  16.173 -0.0620 -0.8251  0.6207
  143DOPC  H13A16902   2.924   2.859  16.173 -0.2351 -0.2043  2.5185
  143DOPC  H13B16903   3.082   2.799  16.127 -0.6721 -1.0390  0.3037
  143DOPC  H13C16904   3.061   2.887  16.277 -0.1498  1.6039  0.5775
  143DOPC   C1416905   3.046   3.125  16.187  0.0581  0.2696  0.2513
  143DOPC  H14A16906   3.057   3.217  16.131  0.4809  0.0702 -0.0043
  143DOPC  H14B16907   2.949   3.121  16.234  1.3296  0.1017  3.0877
  143DOPC  H14C16908   3.108   3.116  16.275 -0.2421  0.9016  0.5273
  143DOPC   C1516909   3.215   2.997  16.070 -0.3768  0.6410  0.3090
  143DOPC  H15A16910   3.231   2.946  15.977 -1.6886  1.5411 -0.4428
  143DOPC  H15B16911   3.255   2.934  16.148 -0.0626 -0.0097 -0.3708
  143DOPC  H15C16912   3.266   3.092  16.069 -1.0727  1.0546  1.2923
  143DOPC   C1116913   3.031   3.144  15.886  0.3406  0.3177  0.4370
  143DOPC  H11A16914   3.140   3.163  15.876  0.5175 -0.3106  1.0577
  143DOPC  H11B16915   3.009   3.144  15.777  2.4968 -0.4989 -0.0501
  143DOPC     P16916   2.808   3.280  15.944 -0.5442 -0.3949  0.3659
  143DOPC   O1316917   2.787   3.412  16.006  0.3339  0.4631  0.2776
  143DOPC   O1416918   2.731   3.163  15.998 -0.2480 -0.5826 -0.1300
  143DOPC   O1216919   2.960   3.250  15.950  0.0901 -0.7891  0.0505
  143DOPC   O1116920   2.785   3.287  15.791 -0.4091 -0.2306 -0.1035
  143DOPC    C116921   2.849   3.384  15.707  0.3678  0.9049 -0.0822
  143DOPC    HA16922   2.921   3.336  15.637  1.1660  0.6793  0.8588
  143DOPC    HB16923   2.908   3.454  15.770  0.2578  0.6777  0.2797
  143DOPC    C216924   2.745   3.458  15.624 -0.6782 -0.3851 -0.1418
  143DOPC    HS16925   2.664   3.481  15.697 -0.7235 -0.3250 -0.2107
  143DOPC   O2116926   2.706   3.397  15.503 -0.1721 -0.0290  0.3318
  143DOPC   C2116927   2.580   3.406  15.467 -0.2923  0.3614 -0.3512
  143DOPC   O2216928   2.486   3.447  15.534  0.1380  0.3458  0.6437
  143DOPC   C2216929   2.573   3.377  15.319 -0.0641  0.0748  0.8152
  143DOPC   H2R16930   2.471   3.347  15.287  0.9020 -0.6518 -1.8837
  143DOPC   H2S16931   2.645   3.295  15.296  0.6436  0.8924  0.0677
  143DOPC    C316932   2.807   3.605  15.587 -0.2111 -0.5098 -0.3584
  143DOPC    HX16933   2.894   3.575  15.525  0.2197  1.7311 -0.9220
  143DOPC    HY16934   2.857   3.658  15.670 -2.9412  0.9542  0.4971
  143DOPC   O3116935   2.712   3.687  15.517 -0.7221 -0.4691 -0.2858
  143DOPC   C3116936   2.745   3.811  15.498  0.3264 -0.8800  0.6968
  143DOPC   O3216937   2.841   3.865  15.550 -0.1810 -0.2770  0.2415
  143DOPC   C3216938   2.631   3.881  15.422  0.3359  0.0074  0.9027
  143DOPC   H2X16939   2.540   3.820  15.401 -1.5994  1.0428  5.2044
  143DOPC   H2Y16940   2.589   3.954  15.494  0.0574 -0.2316  0.9841
  143DOPC   C2316941   2.615   3.508  15.249  0.2896  0.2339  0.2557
  143DOPC   H3R16942   2.725   3.521  15.259  0.5028  0.0201 -1.5348
  143DOPC   H3S16943   2.559   3.600  15.278 -1.9564 -1.2603  0.9471
  143DOPC   C2416944   2.588   3.500  15.096 -0.4124 -0.6292 -0.1638
  143DOPC   H4R16945   2.649   3.421  15.047 -0.4218 -0.7568  0.0266
  143DOPC   H4S16946   2.625   3.597  15.055 -0.0381 -0.7484 -0.1121
  143DOPC   C2516947   2.438   3.497  15.058  0.1177 -0.2812 -0.8247
  143DOPC   H5R16948   2.383   3.563  15.128 -2.3901 -2.9342 -0.0704
  143DOPC   H5S16949   2.398   3.397  15.085 -0.2132 -0.3507 -1.5370
  143DOPC   C2616950   2.395   3.544  14.920  0.4812 -0.1683 -0.2237
  143DOPC   H6R16951   2.419   3.652  14.917  0.6265 -0.0555  2.6705
  143DOPC   H6S16952   2.286   3.528  14.901  0.6355  0.3767 -1.7161
  143DOPC   C2716953   2.468   3.468  14.808  0.3179  0.3305  0.1551
  143DOPC   H7R16954   2.578   3.459  14.823  0.3750  0.4835 -0.1680
  143DOPC   H7S16955   2.452   3.527  14.715  0.8678 -2.7892 -2.0831
  143DOPC   C2816956   2.407   3.328  14.784  0.1087  0.0805  0.6946
  143DOPC   H8R16957   2.391   3.303  14.677  1.3556 -2.4522  1.0240
  143DOPC   H8S16958   2.304   3.314  14.823  0.3703 -1.7805  0.7882
  143DOPC   C2916959   2.483   3.219  14.845  0.6702  0.0973 -0.0311
  143DOPC   H9R16960   2.443   3.196  14.945  0.7813 -0.9372 -0.2112
  143DOPC  C21016961   2.583   3.149  14.792  0.4617  0.2080  0.9825
  143DOPC  H10R16962   2.629   3.066  14.848  0.3335 -0.2022  0.4813
  143DOPC  C21116963   2.631   3.151  14.651 -0.2594  0.0936  0.4312
  143DOPC  H11R16964   2.706   3.232  14.639 -1.5740  1.2966  0.0742
  143DOPC  H11S16965   2.549   3.171  14.578 -1.0275 -2.7070  0.4261
  143DOPC  C21216966   2.688   3.015  14.595 -0.5714 -0.0440  0.3565
  143DOPC  H12R16967   2.716   3.012  14.488  0.0480  0.1973  0.5123
  143DOPC  H12S16968   2.613   2.933  14.603 -0.8217  0.2286  0.8431
  143DOPC  C21316969   2.821   2.973  14.671 -0.6082  0.5316 -0.1808
  143DOPC  H13R16970   2.804   2.957  14.779  1.2559 -0.9050 -0.0430
  143DOPC  H13S16971   2.893   3.058  14.662  1.8575 -1.5169 -0.9890
  143DOPC  C21416972   2.884   2.847  14.605  0.1189  0.9571  0.0795
  143DOPC  H14R16973   2.895   2.867  14.497 -3.9317  3.5879 -0.0381
  143DOPC  H14S16974   2.809   2.766  14.614 -1.0308  2.0144  0.2552
  143DOPC  C21516975   3.019   2.799  14.667  0.1958 -0.6198 -0.4432
  143DOPC  H15R16976   3.002   2.745  14.763  2.2549 -0.1438  0.2425
  143DOPC  H15S16977   3.085   2.888  14.678  0.3167 -0.7998  0.3753
  143DOPC  C21616978   3.101   2.701  14.581  0.9421  0.0055  0.1278
  143DOPC  H16R16979   3.192   2.667  14.636  0.9182  0.1634  0.2665
  143DOPC  H16S16980   3.128   2.742  14.482 -1.3574 -2.0034 -1.4562
  143DOPC  C21716981   3.014   2.570  14.560 -0.5539  0.9494  0.6401
  143DOPC  H17R16982   2.924   2.579  14.495 -1.1370 -1.4840  1.0214
  143DOPC  H17S16983   2.983   2.526  14.657  0.0297  1.2221  0.9591
  143DOPC  C21816984   3.114   2.476  14.493 -0.5063 -0.0160 -0.4648
  143DOPC  H18R16985   3.203   2.443  14.551 -0.0320 -0.9673 -1.7134
  143DOPC  H18S16986   3.158   2.531  14.407 -0.7533  1.9759  0.6159
  143DOPC  H18T16987   3.065   2.382  14.461 -0.3203 -0.0474 -0.6613
  143DOPC   C3316988   2.687   3.969  15.300 -0.1616  0.0694  0.2970
  143DOPC   H3X16989   2.781   4.018  15.333  0.0151  0.3031 -0.5265
  143DOPC   H3Y16990   2.613   4.049  15.275  0.9201  1.1285  0.3931
  143DOPC   C3416991   2.711   3.889  15.174  0.1842 -0.3760  0.4566
  143DOPC   H4X16992   2.627   3.817  15.163 -0.1132 -0.0219  0.4037
  143DOPC   H4Y16993   2.805   3.829  15.180  1.5111  1.5036 -0.5473
  143DOPC   C3516994   2.721   3.979  15.050  0.3405 -0.6753 -0.2561
  143DOPC   H5X16995   2.800   4.057  15.057 -1.2175  1.1848 -2.0428
  143DOPC   H5Y16996   2.630   4.043  15.044  1.7292  1.4178 -0.2940
  143DOPC   C3616997   2.731   3.890  14.927  0.5409 -0.0846  0.2000
  143DOPC   H6X16998   2.824   3.832  14.942  1.4249  1.5459  1.3641
  143DOPC   H6Y16999   2.643   3.821  14.923  0.9804 -0.6049 -0.8984
  143DOPC   C3717000   2.739   3.965  14.792 -0.6450 -0.0005  0.2813
  143DOPC   H7X17001   2.697   4.067  14.805 -1.2160 -0.2538  0.4488
  143DOPC   H7Y17002   2.846   3.973  14.764 -1.3188  1.5500 -2.1473
  143DOPC   C3817003   2.666   3.901  14.674 -0.3192 -0.1635 -0.2632
  143DOPC   H8X17004   2.702   3.797  14.659 -0.2347 -0.1583 -0.1041
  143DOPC   H8Y17005   2.690   3.956  14.581 -2.1467 -0.5129 -0.9748
  143DOPC   C3917006   2.519   3.909  14.698 -0.2677 -0.5441  0.0346
  143DOPC   H9X17007   2.475   3.838  14.770 -0.4101  0.1177  0.6113
  143DOPC  C31017008   2.428   4.000  14.641  0.4181  0.4840 -0.4437
  143DOPC  H10X17009   2.322   4.001  14.667  0.5169 -1.2142  0.1311
  143DOPC  C31117010   2.455   4.110  14.551  0.2805  0.1725  0.3747
  143DOPC  H11X17011   2.566   4.119  14.547  0.2733  0.0848 -0.0601
  143DOPC  H11Y17012   2.409   4.198  14.601  0.1683 -1.2807  2.9951
  143DOPC  C31217013   2.388   4.099  14.414 -0.1168  0.7201  0.3381
  143DOPC  H12X17014   2.381   4.191  14.353 -0.8714  0.2245 -0.3376
  143DOPC  H12Y17015   2.282   4.064  14.416  0.4542 -1.0999  2.5988
  143DOPC  C31317016   2.474   4.009  14.330 -0.5288  0.7529  0.7160
  143DOPC  H13X17017   2.576   4.052  14.321  0.8009 -2.2435  0.0902
  143DOPC  H13Y17018   2.488   3.906  14.371  0.2855  1.2493  1.7285
  143DOPC  C31417019   2.411   3.975  14.187 -0.1709  0.4549 -0.1264
  143DOPC  H14X17020   2.319   3.918  14.211  0.2918  0.6198  2.3357
  143DOPC  H14Y17021   2.387   4.073  14.140 -0.0113  1.0882  1.0765
  143DOPC  C31517022   2.510   3.889  14.103 -0.0148 -0.4229 -0.6990
  143DOPC  H15X17023   2.453   3.832  14.026  0.4947 -1.1324 -0.5625
  143DOPC  H15Y17024   2.563   3.820  14.171 -1.0804  1.4122  2.1697
  143DOPC  C31617025   2.607   3.981  14.031 -0.0425 -0.5229  0.4447
  143DOPC  H16X17026   2.543   4.056  13.980 -1.0351 -1.5982  0.0640
  143DOPC  H16Y17027   2.668   4.031  14.109  1.4312  0.0236 -0.9950
  143DOPC  C31717028   2.698   3.924  13.922 -0.0757  0.4158 -0.2499
  143DOPC  H17X17029   2.782   3.873  13.974  0.2962 -0.8880 -2.0390
  143DOPC  H17Y17030   2.652   3.845  13.860  1.5223  0.3334 -1.3859
  143DOPC  C31817031   2.759   4.034  13.836  0.3902  0.0803 -0.3212
  143DOPC  H18X17032   2.840   3.998  13.769 -0.2634  0.2959 -1.2522
  143DOPC  H18Y17033   2.677   4.086  13.782 -0.5768 -1.4899 -0.4138
  143DOPC  H18Z17034   2.811   4.112  13.897  0.9818  0.1534 -0.9072
  144DOPC     N17035   2.787   1.994  16.252  0.5654  0.5840  0.4595
  144DOPC   C1217036   2.770   2.143  16.231 -0.1213 -0.6445 -0.5873
  144DOPC  H12A17037   2.860   2.200  16.247  0.3671 -1.0350 -1.8412
  144DOPC  H12B17038   2.714   2.181  16.315 -0.8892  0.0024 -1.3816
  144DOPC   C1317039   2.665   1.912  16.250 -0.2139  0.1458 -0.1043
  144DOPC  H13A17040   2.683   1.809  16.277  0.5730  0.5847  1.1317
  144DOPC  H13B17041   2.589   1.964  16.307  0.1591 -0.0935  0.6174
  144DOPC  H13C17042   2.626   1.901  16.150 -1.3744  2.6782 -0.0004
  144DOPC   C1417043   2.842   1.976  16.392  0.1182  1.3839 -0.4487
  144DOPC  H14A17044   2.843   1.872  16.421  2.8574  0.9695 -1.6264
  144DOPC  H14B17045   2.943   2.013  16.400  0.9925 -0.8618 -0.0994
  144DOPC  H14C17046   2.780   2.013  16.472 -0.6282 -2.8376  1.2145
  144DOPC   C1517047   2.889   1.932  16.162  1.0162  0.3430  0.1139
  144DOPC  H15A17048   2.876   1.942  16.055  2.6150 -2.1075 -0.3979
  144DOPC  H15B17049   2.885   1.824  16.161  0.1508  0.3712 -0.7403
  144DOPC  H15C17050   2.992   1.950  16.190  0.8281  1.5871  0.0648
  144DOPC   C1117051   2.710   2.189  16.093  0.4780 -0.9657 -0.1196
  144DOPC  H11A17052   2.607   2.148  16.093 -0.2049  0.6538 -0.1802
  144DOPC  H11B17053   2.696   2.300  16.095 -2.2700 -1.2370  0.0839
  144DOPC     P17054   2.911   2.207  15.935 -0.1757  0.0817 -0.2157
  144DOPC   O1317055   3.017   2.103  15.950 -0.1850  0.4040 -0.0503
  144DOPC   O1417056   2.936   2.325  16.020  0.1424 -0.4107  0.1785
  144DOPC   O1217057   2.779   2.143  15.978  0.1816 -0.0655 -0.2293
  144DOPC   O1117058   2.892   2.250  15.783 -0.3285 -0.2613  0.4935
  144DOPC    C117059   2.764   2.306  15.742  0.0604  0.2161  0.2342
  144DOPC    HA17060   2.708   2.345  15.830  1.2284 -0.1285  1.1566
  144DOPC    HB17061   2.702   2.232  15.688  3.0235  0.3859 -3.9500
  144DOPC    C217062   2.779   2.424  15.642 -0.4881  0.0088  0.2322
  144DOPC    HS17063   2.683   2.440  15.588 -0.8277 -1.7738  0.2584
  144DOPC   O2117064   2.896   2.394  15.555  0.4118 -0.3614  0.5899
  144DOPC   C2117065   2.869   2.300  15.472 -0.2692  0.3143  0.3366
  144DOPC   O2217066   2.765   2.240  15.458  0.0834  0.0430 -0.4252
  144DOPC   C2217067   2.988   2.271  15.383 -0.6754 -0.1443 -0.4830
  144DOPC   H2R17068   3.069   2.248  15.456 -2.3960  0.0298  1.5615
  144DOPC   H2S17069   3.012   2.358  15.318 -0.2809  2.0814  2.4622
  144DOPC    C317070   2.802   2.562  15.710 -0.0082  0.5127  0.8182
  144DOPC    HX17071   2.890   2.549  15.777  0.2419  0.9112  0.5648
  144DOPC    HY17072   2.708   2.573  15.768  0.2958 -0.3047  1.4975
  144DOPC   O3117073   2.813   2.658  15.608 -0.3397 -0.0677  0.7186
  144DOPC   C3117074   2.904   2.756  15.636 -0.5059  0.5004  0.1411
  144DOPC   O3217075   2.953   2.778  15.740  0.1850 -0.2808  0.1384
  144DOPC   C3217076   2.961   2.822  15.518  0.4469 -0.1480  0.1951
  144DOPC   H2X17077   2.871   2.862  15.466  0.1323 -2.5469 -1.2379
  144DOPC   H2Y17078   3.041   2.894  15.547 -0.4416  0.7859  0.3844
  144DOPC   C2317079   2.988   2.139  15.306 -0.4006  0.4235  0.0370
  144DOPC   H3R17080   2.906   2.145  15.231 -0.6374 -0.7817  0.1793
  144DOPC   H3S17081   2.960   2.059  15.378 -0.6186  0.6942  0.2547
  144DOPC   C2417082   3.127   2.118  15.241 -0.4398  0.2200 -0.1909
  144DOPC   H4R17083   3.204   2.141  15.319  0.4094  0.5752 -1.1042
  144DOPC   H4S17084   3.143   2.202  15.170  0.1394 -0.1680 -0.5330
  144DOPC   C2517085   3.142   1.977  15.191 -0.2620  0.2504 -0.2140
  144DOPC   H5R17086   3.040   1.940  15.167 -1.0523 -0.0944  3.2493
  144DOPC   H5S17087   3.181   1.903  15.264  0.1412 -0.2856 -0.9490
  144DOPC   C2617088   3.227   1.974  15.058 -0.3002 -0.0764 -0.7791
  144DOPC   H6R17089   3.331   1.992  15.092 -1.4261  0.7723  2.6239
  144DOPC   H6S17090   3.200   2.062  14.996  1.1725  0.8319 -0.1843
  144DOPC   C2717091   3.220   1.843  14.973 -0.1245 -0.7628 -0.2907
  144DOPC   H7R17092   3.115   1.813  14.954 -1.1788  2.1700  0.3316
  144DOPC   H7S17093   3.247   1.752  15.031 -1.4015 -1.2463 -0.4286
  144DOPC   C2817094   3.301   1.848  14.846 -0.0989  0.5092  0.4499
  144DOPC   H8R17095   3.297   1.743  14.812  2.3056  0.2851  0.6955
  144DOPC   H8S17096   3.408   1.868  14.872 -0.2218  0.1365  1.2791
  144DOPC   C2917097   3.258   1.958  14.751  0.1869  0.3078  0.0027
  144DOPC   H9R17098   3.168   2.011  14.785  1.0695  0.5632  2.0820
  144DOPC  C21017099   3.323   2.011  14.648 -0.0485 -0.4110 -0.2975
  144DOPC  H10R17100   3.266   2.072  14.576 -1.8280 -0.5276  0.9293
  144DOPC  C21117101   3.455   1.968  14.589  0.0614  0.0079 -0.1814
  144DOPC  H11R17102   3.437   1.916  14.492  0.9363 -1.7281  0.5357
  144DOPC  H11S17103   3.524   1.904  14.648  0.7171  0.0681 -0.8647
  144DOPC  C21217104   3.564   2.086  14.555  0.4053  0.3611  0.1665
  144DOPC  H12R17105   3.596   2.129  14.652  2.0252 -0.1275 -0.1173
  144DOPC  H12S17106   3.518   2.169  14.498  1.4725  0.3843 -0.6929
  144DOPC  C21317107   3.686   2.026  14.486  1.0760  0.5467  0.3074
  144DOPC  H13R17108   3.641   1.988  14.392 -1.6451 -2.7720  2.7109
  144DOPC  H13S17109   3.716   1.942  14.552 -1.1340 -0.9817 -0.5366
  144DOPC  C21417110   3.806   2.129  14.471 -0.0968 -0.1637  0.6851
  144DOPC  H14R17111   3.822   2.166  14.574 -3.0690 -0.9927  1.5391
  144DOPC  H14S17112   3.777   2.213  14.404  0.0661  0.9883  2.0237
  144DOPC  C21517113   3.935   2.058  14.426 -0.1380  0.3160 -0.1478
  144DOPC  H15R17114   3.906   1.991  14.342 -1.9133 -2.6608  2.5893
  144DOPC  H15S17115   3.974   1.993  14.508 -0.5715 -2.3440 -1.9081
  144DOPC  C21617116   4.048   2.151  14.410 -0.6633  0.1634  0.1808
  144DOPC  H16R17117   4.081   2.184  14.511  1.3373 -0.7874 -0.1302
  144DOPC  H16S17118   4.016   2.251  14.373  0.1338  0.0622 -0.8332
  144DOPC  C21717119   4.166   2.094  14.329  0.1890 -0.3851  0.2717
  144DOPC  H17R17120   4.245   2.170  14.310  1.7505 -1.4403  2.1172
  144DOPC  H17S17121   4.122   2.085  14.228  1.7383 -2.0723 -0.2967
  144DOPC  C21817122   4.221   1.963  14.389 -0.3342 -0.3500 -0.6570
  144DOPC  H18R17123   4.314   1.933  14.336  1.2805  2.8580  0.1017
  144DOPC  H18S17124   4.145   1.883  14.371  1.6661 -3.1201  2.1289
  144DOPC  H18T17125   4.243   1.965  14.498  0.7994  1.0369 -0.8911
  144DOPC   C3317126   3.024   2.725  15.417 -0.6308  0.5998 -0.0849
  144DOPC   H3X17127   3.082   2.642  15.463 -0.2621  0.7606 -0.2630
  144DOPC   H3Y17128   3.097   2.780  15.355  0.3045 -0.8974 -0.3478
  144DOPC   C3417129   2.927   2.677  15.307  0.1064  0.5467 -0.0221
  144DOPC   H4X17130   2.861   2.762  15.279  1.3054  1.4672 -0.1377
  144DOPC   H4Y17131   2.873   2.589  15.348  2.3142 -1.8231 -1.8315
  144DOPC   C3517132   2.997   2.633  15.181  0.0734  0.1644 -0.5340
  144DOPC   H5X17133   3.053   2.541  15.209 -2.6356 -0.7098  2.5323
  144DOPC   H5Y17134   3.070   2.710  15.146 -0.1159  0.3774 -0.4667
  144DOPC   C3617135   2.898   2.579  15.070 -0.1114  0.3000  0.7584
  144DOPC   H6X17136   2.832   2.494  15.099 -1.7319  0.9403 -0.8572
  144DOPC   H6Y17137   2.838   2.668  15.040  1.0599  0.4545 -1.3229
  144DOPC   C3717138   2.987   2.528  14.950 -0.0561 -0.4394  0.1242
  144DOPC   H7X17139   2.924   2.511  14.860 -0.1760 -1.7864  0.4519
  144DOPC   H7Y17140   3.043   2.616  14.912  0.5009 -0.7787  0.1533
  144DOPC   C3817141   3.078   2.417  14.977  0.3116  0.1589  0.0325
  144DOPC   H8X17142   3.030   2.331  15.028 -0.1170  0.0962 -0.4686
  144DOPC   H8Y17143   3.169   2.451  15.031  1.9578  0.1533 -2.5665
  144DOPC   C3917144   3.133   2.362  14.852 -0.0859  0.0267  0.4805
  144DOPC   H9X17145   3.053   2.363  14.776  1.0346  0.4438 -0.7457
  144DOPC  C31017146   3.262   2.346  14.816 -0.2931 -0.2985  0.3038
  144DOPC  H10X17147   3.278   2.319  14.710  1.1325 -1.7139  0.8355
  144DOPC  C31117148   3.383   2.381  14.905  0.3214  0.5787 -0.5657
  144DOPC  H11X17149   3.391   2.318  14.996  0.5241  2.6427  0.9154
  144DOPC  H11Y17150   3.375   2.486  14.940  0.8405  0.7807 -1.0354
  144DOPC  C31217151   3.509   2.357  14.825  0.0250 -0.6027  1.1081
  144DOPC  H12X17152   3.494   2.413  14.731  0.6671 -0.5151  1.0515
  144DOPC  H12Y17153   3.516   2.249  14.798  0.2908 -0.3732  0.2458
  144DOPC  C31317154   3.631   2.410  14.894  0.0744  0.5437 -0.2940
  144DOPC  H13X17155   3.609   2.512  14.930 -1.9383 -0.1120  0.4376
  144DOPC  H13Y17156   3.649   2.351  14.986  1.1337 -0.2844 -0.9964
  144DOPC  C31417157   3.756   2.410  14.804  0.3682 -0.8148 -0.1688
  144DOPC  H14X17158   3.743   2.327  14.731  0.2070 -0.6148 -0.3658
  144DOPC  H14Y17159   3.762   2.505  14.748 -0.4150 -1.0210 -0.6243
  144DOPC  C31517160   3.885   2.386  14.883 -0.3391  0.6934 -0.3876
  144DOPC  H15X17161   3.869   2.298  14.949  0.9261  0.3737 -0.4833
  144DOPC  H15Y17162   3.907   2.474  14.947 -0.5241 -0.5123  1.4288
  144DOPC  C31617163   4.009   2.353  14.798 -0.0707  0.8120 -0.5104
  144DOPC  H16X17164   3.979   2.274  14.726  1.3323 -3.1331  2.8189
  144DOPC  H16Y17165   4.045   2.445  14.747  2.0941  0.7523  0.7756
  144DOPC  C31717166   4.120   2.287  14.879 -0.0808 -0.3151 -0.0784
  144DOPC  H17X17167   4.155   2.361  14.955 -1.2452  0.9109 -0.6776
  144DOPC  H17Y17168   4.085   2.196  14.931  0.9784 -0.5291  0.2669
  144DOPC  C31817169   4.236   2.271  14.786 -0.3701  0.5246  0.1204
  144DOPC  H18X17170   4.335   2.292  14.831 -0.9030  1.7915  0.7366
  144DOPC  H18Y17171   4.255   2.180  14.724  1.4392  1.8975 -1.4620
  144DOPC  H18Z17172   4.227   2.347  14.705  0.8376 -0.3107 -0.8211
  145DOPC     N17173   2.870   6.436  15.744  0.1260  1.0789  0.0965
  145DOPC   C1217174   2.739   6.382  15.705  0.5811 -1.3496  0.6629
  145DOPC  H12A17175   2.671   6.397  15.788 -1.0060  1.4538 -0.9768
  145DOPC  H12B17176   2.738   6.275  15.689 -2.2335 -1.6689  2.1946
  145DOPC   C1317177   2.983   6.410  15.642 -0.3654 -0.3863  0.9486
  145DOPC  H13A17178   3.080   6.447  15.671  0.5885  0.5117 -2.8014
  145DOPC  H13B17179   2.986   6.303  15.627  1.1652 -0.0664 -1.7557
  145DOPC  H13C17180   2.946   6.452  15.550 -0.4265 -2.6735 -0.1561
  145DOPC   C1417181   2.907   6.382  15.877  0.2822  0.2409 -0.4974
  145DOPC  H14A17182   2.852   6.437  15.952  0.5673  1.4858 -1.1756
  145DOPC  H14B17183   2.875   6.281  15.895 -0.6666  0.6166 -0.0364
  145DOPC  H14C17184   3.011   6.383  15.907 -0.0196  0.1191  0.5967
  145DOPC   C1517185   2.864   6.582  15.777  0.5762 -0.6019  0.9222
  145DOPC  H15A17186   2.779   6.606  15.839 -2.0638 -1.3994 -2.1044
  145DOPC  H15B17187   2.852   6.644  15.690  0.9951  0.7957  1.8302
  145DOPC  H15C17188   2.952   6.615  15.830  1.6007 -1.4762 -0.1993
  145DOPC   C1117189   2.671   6.457  15.587  0.5806 -0.3352 -0.1308
  145DOPC  H11A17190   2.577   6.399  15.572  0.2249 -0.3891  1.9736
  145DOPC  H11B17191   2.639   6.562  15.604 -0.1692 -0.4155 -0.9789
  145DOPC     P17192   2.719   6.363  15.350  0.1810  0.1384  0.3163
  145DOPC   O1317193   2.589   6.401  15.292 -0.3045 -0.2072  0.6881
  145DOPC   O1417194   2.727   6.223  15.398 -0.0849 -0.0166  0.1268
  145DOPC   O1217195   2.753   6.462  15.474 -0.4336 -0.0672 -0.2987
  145DOPC   O1117196   2.837   6.390  15.252  0.9130  0.0031 -0.1792
  145DOPC    C117197   2.837   6.513  15.174  0.1881  0.4976 -1.0028
  145DOPC    HA17198   2.851   6.602  15.239  1.1067 -0.2170 -0.1976
  145DOPC    HB17199   2.739   6.522  15.122 -1.4441 -0.6557  1.6639
  145DOPC    C217200   2.943   6.501  15.058  0.2909  0.1065 -0.1041
  145DOPC    HS17201   2.919   6.579  14.983  0.3312 -1.1115 -1.4216
  145DOPC   O2117202   2.942   6.369  15.003  0.5832  0.2007 -0.4569
  145DOPC   C2117203   2.845   6.346  14.921  0.5750 -0.0915  0.0520
  145DOPC   O2217204   2.758   6.428  14.892 -0.2318  0.3082 -0.6932
  145DOPC   C2217205   2.844   6.202  14.874 -0.2907 -0.5364  0.0498
  145DOPC   H2R17206   2.740   6.182  14.841 -0.6299  2.2584 -0.9331
  145DOPC   H2S17207   2.880   6.136  14.956  4.3205  2.2897  0.6633
  145DOPC    C317208   3.082   6.532  15.116  1.3528  0.0106 -0.1208
  145DOPC    HX17209   3.094   6.455  15.195 -0.7424 -1.9461 -1.5558
  145DOPC    HY17210   3.080   6.630  15.167  1.5368 -2.0600  4.2933
  145DOPC   O3117211   3.176   6.524  15.006 -0.0622 -0.1127 -0.6176
  145DOPC   C3117212   3.304   6.512  15.046 -0.9741  0.0070  0.2050
  145DOPC   O3217213   3.350   6.506  15.159  0.0193  0.3621 -0.7149
  145DOPC   C3217214   3.388   6.498  14.923  0.3070 -0.4404  0.0433
  145DOPC   H2X17215   3.357   6.400  14.881  1.5018 -0.8964  0.2113
  145DOPC   H2Y17216   3.367   6.578  14.849 -1.0270 -0.4717  0.3641
  145DOPC   C2317217   2.927   6.176  14.748 -0.5796 -0.0861  0.1271
  145DOPC   H3R17218   2.898   6.262  14.685 -1.9145  0.4255  1.3951
  145DOPC   H3S17219   2.893   6.084  14.694  2.3627 -0.1301 -1.9278
  145DOPC   C2417220   3.082   6.180  14.766 -0.3572 -0.1911 -0.2494
  145DOPC   H4R17221   3.122   6.096  14.827  0.6930 -0.1603 -0.8756
  145DOPC   H4S17222   3.097   6.265  14.835 -1.3702  0.5383 -0.8996
  145DOPC   C2517223   3.158   6.203  14.634 -0.4340  0.5653  0.0553
  145DOPC   H5R17224   3.125   6.305  14.606 -0.5339  0.9689  1.5263
  145DOPC   H5S17225   3.118   6.127  14.564  2.7979  0.3884 -1.7863
  145DOPC   C2617226   3.310   6.191  14.638 -0.6706  0.3993  0.4319
  145DOPC   H6R17227   3.332   6.090  14.677 -0.2265 -0.0212 -0.8788
  145DOPC   H6S17228   3.353   6.259  14.716  1.9534  1.2421 -1.5999
  145DOPC   C2717229   3.368   6.211  14.497  0.7283 -0.0024 -0.2364
  145DOPC   H7R17230   3.353   6.317  14.467 -1.0352  0.6058  2.4295
  145DOPC   H7S17231   3.304   6.151  14.430 -0.3336  0.5015  0.3037
  145DOPC   C2817232   3.514   6.163  14.489  0.1726  0.6404  0.3324
  145DOPC   H8R17233   3.514   6.055  14.515 -0.3631  0.1086 -1.6945
  145DOPC   H8S17234   3.572   6.218  14.566 -0.4768 -0.8542  1.9505
  145DOPC   C2917235   3.560   6.194  14.348  0.0151  0.6551  0.4114
  145DOPC   H9R17236   3.535   6.115  14.275  0.8106  0.6607  0.1212
  145DOPC  C21017237   3.655   6.277  14.306  0.6392 -0.0304  0.1857
  145DOPC  H10R17238   3.676   6.290  14.199  3.8392 -1.3771  0.5521
  145DOPC  C21117239   3.728   6.374  14.390 -0.2844 -0.4113 -0.3869
  145DOPC  H11R17240   3.671   6.391  14.485  0.8478 -0.5187  0.3257
  145DOPC  H11S17241   3.715   6.470  14.337  0.4700 -0.3742 -0.5030
  145DOPC  C21217242   3.876   6.340  14.412  0.4797 -0.2050  0.1439
  145DOPC  H12R17243   3.923   6.420  14.472 -0.1930  0.1729  0.1821
  145DOPC  H12S17244   3.924   6.329  14.312  0.4404 -0.2435  0.1287
  145DOPC  C21317245   3.905   6.218  14.495  0.5215 -0.0269 -0.4728
  145DOPC  H13R17246   3.903   6.122  14.438  0.2988  0.2599 -0.9597
  145DOPC  H13S17247   3.827   6.208  14.573  2.4459 -0.5018  1.4622
  145DOPC  C21417248   4.046   6.236  14.555 -0.2495  0.0631 -0.2348
  145DOPC  H14R17249   4.043   6.322  14.624  0.3754 -1.1165  1.3351
  145DOPC  H14S17250   4.121   6.258  14.477  1.4799  1.6826  1.7798
  145DOPC  C21517251   4.097   6.118  14.635 -0.0964  0.2174 -0.4005
  145DOPC  H15R17252   4.049   6.116  14.735 -1.2524 -1.0608 -0.9578
  145DOPC  H15S17253   4.202   6.149  14.654 -0.4045  1.1494 -0.1389
  145DOPC  C21617254   4.103   5.983  14.551  0.4978  0.4761  0.2160
  145DOPC  H16R17255   3.996   5.967  14.527 -0.4766  4.4500  1.0970
  145DOPC  H16S17256   4.137   5.903  14.620  0.9738 -0.0319 -0.5847
  145DOPC  C21717257   4.191   5.993  14.433  0.4491  0.2131  0.3243
  145DOPC  H17R17258   4.288   6.042  14.455 -0.4207  1.7279  0.9352
  145DOPC  H17S17259   4.148   6.063  14.358  1.0866  0.7343  0.4417
  145DOPC  C21817260   4.208   5.860  14.356 -0.2334  0.0902 -0.1682
  145DOPC  H18R17261   4.120   5.836  14.294  1.5489 -0.1896 -2.7208
  145DOPC  H18S17262   4.226   5.777  14.428 -1.7062 -0.7584 -0.7443
  145DOPC  H18T17263   4.296   5.863  14.288 -1.2898  0.4887 -1.5452
  145DOPC   C3317264   3.535   6.480  14.955 -0.3900  0.2118  0.4852
  145DOPC   H3X17265   3.556   6.409  15.038  0.5391  1.1991  1.1204
  145DOPC   H3Y17266   3.579   6.580  14.977 -2.1703  0.6200  2.4940
  145DOPC   C3417267   3.605   6.428  14.826  0.7916 -0.2378 -1.0593
  145DOPC   H4X17268   3.570   6.479  14.734  1.2704 -1.2829 -1.8450
  145DOPC   H4Y17269   3.579   6.320  14.819 -0.0705 -0.3194  1.9010
  145DOPC   C3517270   3.756   6.449  14.832  0.0052 -0.4746 -0.0482
  145DOPC   H5X17271   3.799   6.352  14.798 -1.7985 -0.8316 -1.4909
  145DOPC   H5Y17272   3.806   6.472  14.928  0.7129  0.9896 -0.7224
  145DOPC   C3617273   3.808   6.557  14.742 -0.1397  0.2063  0.0525
  145DOPC   H6X17274   3.918   6.552  14.727 -0.0590 -1.0116  0.8492
  145DOPC   H6Y17275   3.759   6.550  14.643 -2.3482  1.5411  0.9664
  145DOPC   C3717276   3.779   6.699  14.781  0.1104  0.3231 -0.0170
  145DOPC   H7X17277   3.674   6.697  14.817 -0.5459 -0.8454 -1.8052
  145DOPC   H7Y17278   3.847   6.726  14.864 -0.7975  2.2051  0.1668
  145DOPC   C3817279   3.807   6.793  14.661 -0.4498  0.0231 -0.5502
  145DOPC   H8X17280   3.744   6.765  14.574 -1.5481  0.1570  0.1864
  145DOPC   H8Y17281   3.916   6.789  14.641 -0.7311  0.6519 -2.4290
  145DOPC   C3917282   3.779   6.945  14.693  0.6345 -0.1630  0.5870
  145DOPC   H9X17283   3.723   6.959  14.786  0.9822 -1.5699  1.0354
  145DOPC  C31017284   3.821   7.045  14.613 -0.1861  0.7468 -0.3171
  145DOPC  H10X17285   3.796   7.145  14.652  1.7093  0.8678  0.6903
  145DOPC  C31117286   3.899   7.042  14.483  0.7707 -0.1226 -0.1333
  145DOPC  H11X17287   3.866   7.133  14.428  0.3333  0.6138  1.2889
  145DOPC  H11Y17288   3.864   6.953  14.426 -1.8418 -0.1133  1.2758
  145DOPC  C31217289   4.049   7.046  14.499  0.5125  0.0082 -0.1168
  145DOPC  H12X17290   4.101   7.025  14.403  1.1515 -3.6332  0.8385
  145DOPC  H12Y17291   4.074   6.950  14.549 -0.1939 -1.0762 -1.7598
  145DOPC  C31317292   4.109   7.164  14.582 -0.8027 -0.6188 -0.2253
  145DOPC  H13X17293   4.062   7.262  14.558  0.1845 -0.0186  0.2476
  145DOPC  H13Y17294   4.088   7.146  14.689 -0.5839  2.4046  0.4180
  145DOPC  C31417295   4.260   7.187  14.551  0.0793  0.7054 -0.0709
  145DOPC  H14X17296   4.271   7.221  14.445 -2.4002 -2.0892 -1.3922
  145DOPC  H14Y17297   4.285   7.253  14.637 -1.3576  1.0990  0.0842
  145DOPC  C31517298   4.343   7.054  14.559 -0.0378  0.4890  0.4308
  145DOPC  H15X17299   4.308   6.987  14.477 -0.2836 -2.7336  2.9642
  145DOPC  H15Y17300   4.312   7.006  14.654 -1.6138  3.5798  1.6269
  145DOPC  C31617301   4.492   7.076  14.561  0.3125 -0.2252 -0.2041
  145DOPC  H16X17302   4.551   6.987  14.591  3.8784  2.1650  0.5117
  145DOPC  H16Y17303   4.535   7.115  14.466 -0.6101  0.2993 -0.4150
  145DOPC  C31717304   4.545   7.165  14.677  0.2643  0.1710 -0.9730
  145DOPC  H17X17305   4.490   7.261  14.688 -0.7081 -0.5686  1.0417
  145DOPC  H17Y17306   4.515   7.110  14.768  0.6904 -0.2354 -1.0786
  145DOPC  C31817307   4.698   7.178  14.670 -0.4295 -0.3291  0.1000
  145DOPC  H18X17308   4.746   7.078  14.664  1.7363  0.7170 -3.1518
  145DOPC  H18Y17309   4.733   7.231  14.578  1.0761 -0.9889  0.2544
  145DOPC  H18Z17310   4.739   7.231  14.759 -1.0271  1.3010 -0.5588
  146DOPC     N17311   5.450   3.269  16.434 -0.5919  0.4482 -0.1405
  146DOPC   C1217312   5.588   3.273  16.370  0.3663  0.0694  0.3329
  146DOPC  H12A17313   5.592   3.188  16.304  0.6076  0.4071 -0.0954
  146DOPC  H12B17314   5.672   3.242  16.431  3.4962  0.4612 -3.3903
  146DOPC   C1317315   5.344   3.260  16.322  0.4317 -0.3045 -0.7078
  146DOPC  H13A17316   5.243   3.256  16.361  0.7195  0.4912  0.1630
  146DOPC  H13B17317   5.358   3.351  16.265  1.3695 -1.2626 -2.0826
  146DOPC  H13C17318   5.351   3.173  16.259  0.6571 -1.6549  1.1235
  146DOPC   C1417319   5.422   3.395  16.512  0.0064  0.6870  0.8171
  146DOPC  H14A17320   5.417   3.480  16.445  1.5353  2.0966  2.3803
  146DOPC  H14B17321   5.329   3.390  16.566 -1.1886 -0.7796 -1.2198
  146DOPC  H14C17322   5.506   3.430  16.571 -0.7044  1.8335  1.1728
  146DOPC   C1517323   5.437   3.148  16.525  0.1242 -0.1400  0.0009
  146DOPC  H15A17324   5.465   3.171  16.626 -0.5812  1.1010 -0.0632
  146DOPC  H15B17325   5.485   3.058  16.489  1.4274  0.9101 -0.9796
  146DOPC  H15C17326   5.331   3.128  16.536  0.1370  0.2773  0.9715
  146DOPC   C1117327   5.633   3.399  16.292 -0.4132  0.0493 -0.3100
  146DOPC  H11A17328   5.657   3.471  16.374 -0.4314 -2.1848  1.7859
  146DOPC  H11B17329   5.731   3.383  16.243 -0.3058 -0.5403  0.0849
  146DOPC     P17330   5.543   3.484  16.066 -0.0311  0.2448 -0.1189
  146DOPC   O1317331   5.649   3.582  16.045 -0.6450  0.1930 -0.2946
  146DOPC   O1417332   5.411   3.511  16.009  0.4287  0.6850  0.4122
  146DOPC   O1217333   5.529   3.438  16.209 -0.2546 -0.8155 -0.2112
  146DOPC   O1117334   5.587   3.355  15.999  0.3061  0.2882  0.6632
  146DOPC    C117335   5.712   3.317  15.947 -0.1546 -0.4684 -0.1006
  146DOPC    HA17336   5.740   3.214  15.979  0.2064 -0.1880  0.4968
  146DOPC    HB17337   5.786   3.391  15.984 -0.1942 -0.9745  1.0290
  146DOPC    C217338   5.725   3.326  15.793 -0.2050  1.0485 -0.0348
  146DOPC    HS17339   5.689   3.428  15.768 -0.2882  1.3988  1.4062
  146DOPC   O2117340   5.648   3.227  15.727  0.3146 -0.5872  0.5832
  146DOPC   C2117341   5.535   3.268  15.672 -0.0958  0.4015  0.1341
  146DOPC   O2217342   5.508   3.381  15.644 -0.4416  0.5176 -0.0973
  146DOPC   C2217343   5.465   3.146  15.622  0.5904  0.2280 -0.0679
  146DOPC   H2R17344   5.364   3.154  15.668 -0.1369  0.2945 -1.6066
  146DOPC   H2S17345   5.511   3.056  15.668  0.8692  1.0547  1.3368
  146DOPC    C317346   5.877   3.312  15.759 -0.6009  0.3842 -0.8318
  146DOPC    HX17347   5.920   3.212  15.776  2.0942  1.4853 -0.7405
  146DOPC    HY17348   5.923   3.377  15.837 -0.8726 -1.0544  0.5704
  146DOPC   O3117349   5.902   3.352  15.623 -0.1102 -0.1618 -0.3630
  146DOPC   C3117350   5.914   3.480  15.604  0.3434  0.1291 -0.3360
  146DOPC   O3217351   5.908   3.571  15.689  0.3954 -0.1150 -0.1575
  146DOPC   C3217352   5.936   3.501  15.451 -0.3964 -0.9160 -0.3656
  146DOPC   H2X17353   6.040   3.464  15.438 -0.0515 -0.5169  1.0507
  146DOPC   H2Y17354   5.858   3.442  15.400 -0.8151 -0.7754  0.0945
  146DOPC   C2317355   5.444   3.135  15.471 -0.0783  0.4526 -0.2423
  146DOPC   H3R17356   5.402   3.231  15.434  1.1323  0.5341 -1.4754
  146DOPC   H3S17357   5.363   3.061  15.454  1.0182 -1.4225  2.1175
  146DOPC   C2417358   5.570   3.096  15.397  0.1623  0.2499  0.0156
  146DOPC   H4R17359   5.598   2.988  15.406  0.1041  0.2869  0.6411
  146DOPC   H4S17360   5.661   3.148  15.433  0.2907 -0.7061  1.1346
  146DOPC   C2517361   5.567   3.134  15.244  0.3781  0.1513 -0.1003
  146DOPC   H5R17362   5.494   3.073  15.187  1.0737 -0.8985  0.0857
  146DOPC   H5S17363   5.668   3.129  15.197 -0.6643 -0.2293 -2.3870
  146DOPC   C2617364   5.522   3.276  15.208 -0.1229  0.4032  0.0691
  146DOPC   H6R17365   5.416   3.278  15.243  0.0705  0.4767  0.6510
  146DOPC   H6S17366   5.533   3.280  15.098  1.4826 -1.2129  0.1202
  146DOPC   C2717367   5.597   3.397  15.269  0.1934  0.2714 -0.0245
  146DOPC   H7R17368   5.693   3.408  15.213  0.8986  0.1994  1.1370
  146DOPC   H7S17369   5.628   3.386  15.375 -0.6605 -0.1576  0.1871
  146DOPC   C2817370   5.512   3.524  15.261  0.5482 -0.3856 -0.4823
  146DOPC   H8R17371   5.500   3.542  15.152  0.9965 -3.3834 -1.1235
  146DOPC   H8S17372   5.578   3.601  15.306 -1.7797  0.7766  1.1268
  146DOPC   C2917373   5.376   3.514  15.332  1.0095  0.1622  0.5596
  146DOPC   H9R17374   5.384   3.475  15.435  1.0048  0.5698  0.7149
  146DOPC  C21017375   5.248   3.529  15.287 -0.2577  0.0931 -0.1470
  146DOPC  H10R17376   5.166   3.512  15.359 -1.4373  0.3979 -1.3821
  146DOPC  C21117377   5.212   3.565  15.148  0.2959 -0.5515 -0.0727
  146DOPC  H11R17378   5.294   3.608  15.086 -0.1299 -0.3152 -0.4778
  146DOPC  H11S17379   5.133   3.643  15.162 -1.0155 -1.8000 -0.2846
  146DOPC  C21217380   5.156   3.448  15.067 -0.8098  0.0341 -0.5237
  146DOPC  H12R17381   5.094   3.390  15.139 -0.2846 -1.1998 -1.0325
  146DOPC  H12S17382   5.242   3.380  15.046 -0.3450  0.8979 -1.4900
  146DOPC  C21317383   5.098   3.483  14.934 -0.0271 -0.4336 -0.3030
  146DOPC  H13R17384   5.166   3.562  14.895  1.6697 -1.8787 -0.4056
  146DOPC  H13S17385   4.992   3.518  14.936  0.8089  2.3655  0.3284
  146DOPC  C21417386   5.098   3.367  14.829 -0.1189  0.0540  0.2612
  146DOPC  H14R17387   5.200   3.346  14.790 -1.0683 -0.9402 -1.8245
  146DOPC  H14S17388   5.032   3.395  14.745 -0.7271 -1.0212  0.3639
  146DOPC  C21517389   5.050   3.237  14.905 -0.3522 -0.4625  0.1960
  146DOPC  H15R17390   4.956   3.255  14.961  1.1009  1.6463  2.1695
  146DOPC  H15S17391   5.121   3.193  14.979  1.2694  0.8094 -0.5350
  146DOPC  C21617392   5.024   3.124  14.806 -0.3618 -0.3439 -0.0181
  146DOPC  H16R17393   4.966   3.173  14.725 -0.9632 -0.7154  0.1801
  146DOPC  H16S17394   4.965   3.045  14.857 -0.0957  1.1215  2.8025
  146DOPC  C21717395   5.154   3.062  14.745 -0.6045 -0.0915 -0.9563
  146DOPC  H17R17396   5.227   3.038  14.825  0.0261 -0.1522 -1.5414
  146DOPC  H17S17397   5.187   3.134  14.668 -1.6897 -0.6307 -1.9594
  146DOPC  C21817398   5.115   2.932  14.670  0.9054  0.5364 -0.2576
  146DOPC  H18R17399   5.196   2.900  14.601 -0.6575  0.4705 -2.1350
  146DOPC  H18S17400   5.026   2.949  14.607  0.7949 -3.2934 -1.3779
  146DOPC  H18T17401   5.092   2.856  14.748  0.3698  2.5536  1.6632
  146DOPC   C3317402   5.938   3.646  15.399  0.4110 -0.4008 -0.0215
  146DOPC   H3X17403   5.989   3.716  15.468 -0.3678 -0.4992  0.6587
  146DOPC   H3Y17404   5.833   3.677  15.382  0.2540 -0.9452 -0.0885
  146DOPC   C3417405   5.986   3.656  15.252 -0.4424  0.0754 -0.3630
  146DOPC   H4X17406   5.925   3.593  15.184  2.7189 -2.6684 -0.9482
  146DOPC   H4Y17407   6.092   3.623  15.253 -0.0401  1.3178 -0.5339
  146DOPC   C3517408   5.999   3.797  15.200 -0.8088  0.1917 -0.2223
  146DOPC   H5X17409   6.068   3.796  15.113 -1.0518 -0.6842 -0.4279
  146DOPC   H5Y17410   6.057   3.852  15.276 -1.8087 -0.4569  1.0587
  146DOPC   C3617411   5.872   3.876  15.175  0.5617 -0.4428  0.5926
  146DOPC   H6X17412   5.803   3.863  15.261  1.0374  2.5964  1.5516
  146DOPC   H6Y17413   5.896   3.983  15.157  1.3649 -0.1883  2.8316
  146DOPC   C3717414   5.791   3.828  15.054 -1.1420  0.3030  0.5099
  146DOPC   H7X17415   5.843   3.827  14.956 -2.0944 -0.5571 -0.0100
  146DOPC   H7Y17416   5.755   3.727  15.082  0.8072 -0.8422 -0.8636
  146DOPC   C3817417   5.664   3.923  15.035  0.3048 -0.7292  0.0309
  146DOPC   H8X17418   5.614   3.923  15.134  0.5316 -0.9507  0.1488
  146DOPC   H8Y17419   5.595   3.875  14.963  0.0269 -0.4038  0.0806
  146DOPC   C3917420   5.706   4.059  14.972 -0.7177  0.2332  0.2582
  146DOPC   H9X17421   5.802   4.094  15.013  0.0049 -0.0680 -1.1160
  146DOPC  C31017422   5.662   4.121  14.862 -0.9756 -0.2334 -0.4163
  146DOPC  H10X17423   5.712   4.210  14.819  1.4538 -0.6096  1.4610
  146DOPC  C31117424   5.547   4.085  14.765  0.1407  0.0149  0.4097
  146DOPC  H11X17425   5.522   4.177  14.708 -0.1528  1.5062  2.8096
  146DOPC  H11Y17426   5.455   4.057  14.820  0.1837  0.0031  0.4770
  146DOPC  C31217427   5.577   3.971  14.657 -0.3165  0.0432  0.5701
  146DOPC  H12X17428   5.473   3.935  14.641 -0.3361  0.3496 -0.0154
  146DOPC  H12Y17429   5.640   3.890  14.700 -0.6327 -1.0888 -1.0068
  146DOPC  C31317430   5.625   4.029  14.518  0.1538  0.1046 -0.0831
  146DOPC  H13X17431   5.579   4.129  14.504  1.5860  0.9464  0.9265
  146DOPC  H13Y17432   5.734   4.052  14.520  0.0825  0.4381 -0.0336
  146DOPC  C31417433   5.588   3.937  14.394 -0.4078  0.7906  0.7662
  146DOPC  H14X17434   5.619   3.831  14.407 -1.7599  0.2133 -0.3826
  146DOPC  H14Y17435   5.477   3.942  14.395 -0.7964 -1.2132 -4.2084
  146DOPC  C31517436   5.633   3.995  14.264  0.4219  0.1944 -0.1470
  146DOPC  H15X17437   5.669   4.098  14.284  3.7481 -1.1709  1.6742
  146DOPC  H15Y17438   5.547   3.993  14.193 -0.2202 -0.2552  0.6218
  146DOPC  C31617439   5.757   3.920  14.222  0.4347 -0.1842 -0.1330
  146DOPC  H16X17440   5.803   3.870  14.310  3.2619  0.8085 -0.9247
  146DOPC  H16Y17441   5.726   3.843  14.148  3.7666  0.3238 -2.2506
  146DOPC  C31717442   5.864   4.003  14.152  0.0154 -0.0942 -0.0079
  146DOPC  H17X17443   5.818   4.055  14.065 -1.2744  1.0309  1.2823
  146DOPC  H17Y17444   5.894   4.080  14.227  0.4285 -0.1986 -0.0622
  146DOPC  C31817445   5.976   3.916  14.111 -0.6300  0.4091  1.4607
  146DOPC  H18X17446   5.932   3.832  14.053 -0.2151  2.3105 -1.8936
  146DOPC  H18Y17447   6.049   3.964  14.042 -1.7080  0.1121  0.0553
  146DOPC  H18Z17448   6.034   3.878  14.198  0.6391  2.1041  1.4088
  147DOPC     N17449   3.997   2.417  16.544 -0.1822  0.1970 -0.3835
  147DOPC   C1217450   3.997   2.502  16.416  0.1300  0.9626 -0.2236
  147DOPC  H12A17451   4.038   2.442  16.336  0.6347 -1.2379  1.5717
  147DOPC  H12B17452   4.061   2.589  16.421  1.0312  0.3077 -0.1328
  147DOPC   C1317453   3.941   2.276  16.540 -0.5857  0.4770 -0.0583
  147DOPC  H13A17454   3.937   2.233  16.639  2.9782  0.4883  0.2097
  147DOPC  H13B17455   3.839   2.275  16.504 -0.0218 -0.2562 -1.7331
  147DOPC  H13C17456   4.004   2.215  16.477 -0.1360 -1.4137  2.1053
  147DOPC   C1417457   3.929   2.493  16.651 -0.3489  0.5979  0.7615
  147DOPC  H14A17458   3.932   2.445  16.748  0.6818  0.7043  0.7977
  147DOPC  H14B17459   3.986   2.584  16.669  1.9809 -0.3440 -1.2908
  147DOPC  H14C17460   3.831   2.525  16.620 -1.3678 -2.0216  1.0419
  147DOPC   C1517461   4.150   2.399  16.577  0.3023  0.0985 -0.3225
  147DOPC  H15A17462   4.159   2.363  16.678 -1.9794  2.5896  0.8933
  147DOPC  H15B17463   4.196   2.497  16.577  0.2536  0.1257 -0.8916
  147DOPC  H15C17464   4.196   2.333  16.505  0.2616 -0.3966  0.1007
  147DOPC   C1117465   3.862   2.542  16.355  0.4296 -0.4965 -0.3770
  147DOPC  H11A17466   3.801   2.606  16.423 -0.8706 -1.5050 -0.5426
  147DOPC  H11B17467   3.882   2.595  16.260 -3.0159  0.6314 -0.6320
  147DOPC     P17468   3.780   2.360  16.192  0.0708  0.2506 -0.1623
  147DOPC   O1317469   3.685   2.246  16.195 -0.2912  0.5386  0.2791
  147DOPC   O1417470   3.923   2.339  16.149  0.3599  0.3583 -0.3458
  147DOPC   O1217471   3.783   2.429  16.333 -0.3065  0.2203  0.6037
  147DOPC   O1117472   3.721   2.478  16.104 -0.4664  0.4751  0.5660
  147DOPC    C117473   3.763   2.491  15.966 -0.4466  0.4085  0.7948
  147DOPC    HA17474   3.865   2.451  15.947 -0.6655  0.0098  0.4444
  147DOPC    HB17475   3.759   2.599  15.938  0.4573  0.4629  0.8480
  147DOPC    C217476   3.670   2.417  15.867 -0.0759  0.0694 -0.1992
  147DOPC    HS17477   3.564   2.428  15.898  0.2320  1.4101  0.4588
  147DOPC   O2117478   3.721   2.284  15.855  0.2456  0.3976  0.4502
  147DOPC   C2117479   3.640   2.199  15.795  0.2804 -0.4473  0.0964
  147DOPC   O2217480   3.518   2.223  15.771 -0.5449 -0.8126  0.3291
  147DOPC   C2217481   3.721   2.074  15.743  0.1723  0.0591  0.0849
  147DOPC   H2R17482   3.720   1.998  15.824 -2.6119 -0.1722 -0.0590
  147DOPC   H2S17483   3.829   2.098  15.730  1.1740 -3.4180  0.9477
  147DOPC    C317484   3.675   2.500  15.731  0.2956 -0.4575  0.1448
  147DOPC    HX17485   3.782   2.481  15.708  0.4143 -0.7354  0.9158
  147DOPC    HY17486   3.667   2.610  15.748 -0.9984 -0.3237 -1.0791
  147DOPC   O3117487   3.592   2.452  15.623  0.3618 -0.0076 -0.6417
  147DOPC   C3117488   3.469   2.510  15.630 -0.2584  0.5021 -0.4090
  147DOPC   O3217489   3.430   2.595  15.710  0.6356 -0.1729  0.3605
  147DOPC   C3217490   3.393   2.462  15.504 -0.6310 -0.3735 -0.1515
  147DOPC   H2X17491   3.402   2.353  15.485 -0.4247 -0.2625 -0.7211
  147DOPC   H2Y17492   3.288   2.493  15.518 -0.2032  2.3043 -2.0296
  147DOPC   C2317493   3.653   1.999  15.617  0.2687 -0.1255  0.2761
  147DOPC   H3R17494   3.555   1.968  15.661  0.3890 -1.7566 -0.5347
  147DOPC   H3S17495   3.711   1.907  15.595  1.5037  0.6585  0.1538
  147DOPC   C2417496   3.643   2.090  15.487 -0.2683  0.4687  0.0316
  147DOPC   H4R17497   3.726   2.164  15.488  0.8742 -0.7326  2.3704
  147DOPC   H4S17498   3.546   2.144  15.499 -1.0358 -1.2643  2.3078
  147DOPC   C2517499   3.636   2.012  15.353 -0.2725 -0.1076 -0.6952
  147DOPC   H5R17500   3.538   1.959  15.347 -0.9964  1.2072 -0.8447
  147DOPC   H5S17501   3.722   1.942  15.341  1.1181  1.5153 -0.4722
  147DOPC   C2617502   3.639   2.110  15.237  0.3839  0.1647 -0.3547
  147DOPC   H6R17503   3.720   2.185  15.233 -1.3714  2.1897  0.3105
  147DOPC   H6S17504   3.547   2.171  15.252  0.6128  0.3592  0.2755
  147DOPC   C2717505   3.631   2.052  15.097  0.4436  0.1776  0.8144
  147DOPC   H7R17506   3.619   2.135  15.024 -1.9107 -1.7252 -1.1678
  147DOPC   H7S17507   3.540   1.989  15.081  0.8904 -0.6445  1.4732
  147DOPC   C2817508   3.759   1.977  15.052 -0.1403 -0.7301 -0.8917
  147DOPC   H8R17509   3.781   1.894  15.123 -0.0791 -0.3083 -0.4156
  147DOPC   H8S17510   3.847   2.044  15.051 -0.8756  0.2888  0.4793
  147DOPC   C2917511   3.740   1.898  14.917 -0.6069 -0.0055  0.0220
  147DOPC   H9R17512   3.636   1.878  14.886 -0.8026  1.1508 -0.0952
  147DOPC  C21017513   3.842   1.860  14.841  0.5244 -0.2580  0.7944
  147DOPC  H10R17514   3.829   1.805  14.746  0.8710 -2.2176  1.8325
  147DOPC  C21117515   3.992   1.892  14.854  0.1701 -0.3177 -0.7220
  147DOPC  H11R17516   4.015   1.901  14.962  0.3197 -0.7669 -0.7151
  147DOPC  H11S17517   4.010   1.995  14.816 -0.3178  0.5135  1.1855
  147DOPC  C21217518   4.076   1.783  14.781  0.2800 -0.5484  0.2793
  147DOPC  H12R17519   4.055   1.792  14.673 -0.5390  1.2156  0.5505
  147DOPC  H12S17520   4.046   1.682  14.817  1.0731 -1.6546 -2.0330
  147DOPC  C21317521   4.229   1.806  14.790  0.5270 -0.6512 -0.2704
  147DOPC  H13R17522   4.250   1.810  14.899 -0.9562  0.9432  0.0013
  147DOPC  H13S17523   4.247   1.898  14.731 -1.3165 -0.2041 -0.2190
  147DOPC  C21417524   4.312   1.700  14.715 -0.9923  0.0525  0.2850
  147DOPC  H14R17525   4.271   1.673  14.615  0.4151  2.0314 -0.9040
  147DOPC  H14S17526   4.299   1.608  14.775 -0.8795  1.6199  2.8761
  147DOPC  C21517527   4.467   1.732  14.716 -0.0342 -0.6661  0.2290
  147DOPC  H15R17528   4.497   1.721  14.822 -0.2496 -0.8752  0.2687
  147DOPC  H15S17529   4.492   1.839  14.701 -0.0717 -0.8091 -0.9712
  147DOPC  C21617530   4.557   1.643  14.622  0.0831 -0.1380  0.6360
  147DOPC  H16R17531   4.592   1.706  14.538 -0.4977 -0.6819 -0.0223
  147DOPC  H16S17532   4.505   1.557  14.575  1.2236  0.6553 -2.3120
  147DOPC  C21717533   4.657   1.563  14.705  0.2807  0.1515  0.3512
  147DOPC  H17R17534   4.595   1.495  14.767 -2.6765  0.5894 -1.9021
  147DOPC  H17S17535   4.716   1.630  14.772  0.0849  0.3877  0.2907
  147DOPC  C21817536   4.764   1.490  14.617  0.0736 -0.3417  0.0482
  147DOPC  H18R17537   4.839   1.434  14.677 -0.1908 -1.8383 -0.9690
  147DOPC  H18S17538   4.809   1.559  14.543  2.8056 -0.1917  1.7137
  147DOPC  H18T17539   4.712   1.411  14.559 -0.4231 -0.4945  0.6850
  147DOPC   C3317540   3.436   2.534  15.373  0.3124  1.5418 -0.7825
  147DOPC   H3X17541   3.359   2.514  15.296  1.3599  0.7300 -1.6508
  147DOPC   H3Y17542   3.531   2.497  15.329  0.0702 -2.1025  1.3952
  147DOPC   C3417543   3.428   2.691  15.376  0.4293  0.0606  0.1013
  147DOPC   H4X17544   3.480   2.730  15.467 -0.0260 -1.8991  1.2777
  147DOPC   H4Y17545   3.323   2.723  15.389 -0.1487 -1.3907 -0.7433
  147DOPC   C3517546   3.480   2.747  15.245  0.4814 -0.1176  0.0869
  147DOPC   H5X17547   3.576   2.699  15.216  1.7403  1.8721  0.7926
  147DOPC   H5Y17548   3.506   2.854  15.258  0.8528 -0.3592  1.5048
  147DOPC   C3617549   3.383   2.728  15.126  0.0710 -0.2179  0.0114
  147DOPC   H6X17550   3.364   2.622  15.100  1.3540 -0.1103 -1.5123
  147DOPC   H6Y17551   3.277   2.757  15.144  0.5538  1.7058 -0.0939
  147DOPC   C3717552   3.428   2.815  15.005  0.2101 -0.2682 -0.4250
  147DOPC   H7X17553   3.428   2.920  15.042  0.9228 -0.6969  0.8404
  147DOPC   H7Y17554   3.534   2.793  14.984  0.1980  0.0332 -0.8121
  147DOPC   C3817555   3.336   2.794  14.883  0.2120  0.2505  0.1701
  147DOPC   H8X17556   3.226   2.797  14.896  0.2820  1.3954  0.6357
  147DOPC   H8Y17557   3.358   2.687  14.862  3.0819  0.5659  1.0537
  147DOPC   C3917558   3.372   2.896  14.784 -0.0308  0.2066  0.7319
  147DOPC   H9X17559   3.328   2.996  14.800 -0.1738  0.7077 -2.1227
  147DOPC  C31017560   3.466   2.888  14.687 -0.3438 -0.0305 -0.7270
  147DOPC  H10X17561   3.488   2.971  14.619  0.9658  0.0362 -0.2555
  147DOPC  C31117562   3.553   2.765  14.660  0.0508  0.1804 -0.2992
  147DOPC  H11X17563   3.517   2.676  14.717  0.9172 -0.4039 -0.6525
  147DOPC  H11Y17564   3.658   2.779  14.693 -0.1441  1.5218 -0.2258
  147DOPC  C31217565   3.536   2.723  14.508  0.2620 -0.0156  0.0716
  147DOPC  H12X17566   3.585   2.808  14.454 -0.1275 -0.2515 -0.6724
  147DOPC  H12Y17567   3.428   2.731  14.483  0.2686  2.2307  0.5421
  147DOPC  C31317568   3.593   2.596  14.470  0.0886 -0.1309  0.4437
  147DOPC  H13X17569   3.704   2.586  14.461 -0.1194 -0.8148 -2.3671
  147DOPC  H13Y17570   3.568   2.529  14.555 -1.3583  0.4317  0.4874
  147DOPC  C31417571   3.537   2.551  14.334 -0.2152 -0.0256 -0.1748
  147DOPC  H14X17572   3.426   2.558  14.345 -0.1397  0.8227  0.1885
  147DOPC  H14Y17573   3.557   2.606  14.239 -1.8891  2.7017  0.9172
  147DOPC  C31517574   3.583   2.409  14.317 -0.2432  0.2916  0.1876
  147DOPC  H15X17575   3.550   2.345  14.401  0.7748 -0.6803 -0.1328
  147DOPC  H15Y17576   3.692   2.388  14.324 -0.2295 -0.2099 -1.2198
  147DOPC  C31617577   3.533   2.355  14.182 -0.1321 -0.0357 -0.4805
  147DOPC  H16X17578   3.443   2.412  14.150 -1.3118 -1.5155  0.0965
  147DOPC  H16Y17579   3.615   2.358  14.107  0.2409 -0.8831 -0.1140
  147DOPC  C31717580   3.487   2.211  14.190  0.0090  0.8559  1.0067
  147DOPC  H17X17581   3.465   2.177  14.086 -0.2371  1.3138  0.9071
  147DOPC  H17Y17582   3.564   2.148  14.240 -1.0566 -1.6261 -0.3331
  147DOPC  C31817583   3.350   2.185  14.269  0.4127 -0.1515  0.5156
  147DOPC  H18X17584   3.315   2.081  14.285 -3.0213  0.7707 -0.1909
  147DOPC  H18Y17585   3.353   2.226  14.373  0.5473 -3.7111  2.0507
  147DOPC  H18Z17586   3.263   2.240  14.227  1.6508  0.6541 -1.1216
  148DOPC     N17587   2.115   7.079  15.694 -0.2232  0.0103  0.2006
  148DOPC   C1217588   2.263   7.075  15.653  0.2057  0.1427 -0.4307
  148DOPC  H12A17589   2.340   7.081  15.728  0.5229 -3.1353 -0.3224
  148DOPC  H12B17590   2.274   7.165  15.595 -0.9527  0.1149 -0.7122
  148DOPC   C1317591   2.087   7.188  15.796  0.5122 -0.2251  0.2566
  148DOPC  H13A17592   1.981   7.212  15.798  0.1672 -1.5491 -0.6987
  148DOPC  H13B17593   2.121   7.163  15.895  0.7166 -1.6588 -0.1565
  148DOPC  H13C17594   2.125   7.285  15.767 -1.3324  1.0980  1.9694
  148DOPC   C1417595   2.079   6.953  15.753 -0.3890  1.0598 -0.8919
  148DOPC  H14A17596   2.094   6.871  15.685 -1.0154  0.7588 -0.6697
  148DOPC  H14B17597   2.129   6.922  15.844 -1.1797  0.6486 -0.5950
  148DOPC  H14C17598   1.974   6.952  15.779 -0.5435  1.8884 -1.4625
  148DOPC   C1517599   2.027   7.103  15.576  0.2821 -0.6880 -0.0114
  148DOPC  H15A17600   2.018   7.014  15.516 -1.2336  0.7828 -2.1433
  148DOPC  H15B17601   2.054   7.192  15.521 -3.0755  0.9797  0.7547
  148DOPC  H15C17602   1.925   7.120  15.608 -0.9704  0.8197 -4.1542
  148DOPC   C1117603   2.297   6.949  15.571 -0.7454 -0.0152 -0.1910
  148DOPC  H11A17604   2.278   6.864  15.641  0.2866  0.7023  1.0174
  148DOPC  H11B17605   2.234   6.941  15.481  0.2346  1.3459 -1.0327
  148DOPC     P17606   2.533   6.833  15.541  0.3148  0.5238  0.7522
  148DOPC   O1317607   2.473   6.723  15.455  0.1378  0.1922 -0.1216
  148DOPC   O1417608   2.565   6.804  15.680 -0.0646  0.5401  0.2506
  148DOPC   O1217609   2.436   6.958  15.543  0.9636  0.1182  0.2777
  148DOPC   O1117610   2.662   6.888  15.466  0.5117  0.4037  0.3115
  148DOPC    C117611   2.673   7.013  15.410 -0.5459  0.2041  0.5927
  148DOPC    HA17612   2.774   7.052  15.435  0.1540  0.2301 -2.0131
  148DOPC    HB17613   2.600   7.089  15.446  0.7137  0.9847  1.5527
  148DOPC    C217614   2.655   7.005  15.257 -0.0774  0.1393 -0.3442
  148DOPC    HS17615   2.695   7.095  15.207  0.4713  0.5896  0.8624
  148DOPC   O2117616   2.521   6.996  15.222  0.2379 -0.4173 -0.1329
  148DOPC   C2117617   2.430   7.090  15.239  0.1124  0.3064 -0.2132
  148DOPC   O2217618   2.454   7.201  15.289  0.0189  0.4298  0.6521
  148DOPC   C2217619   2.286   7.043  15.209 -0.1492 -0.4923  0.6888
  148DOPC   H2R17620   2.259   6.961  15.279 -0.5869  0.6191  1.8508
  148DOPC   H2S17621   2.294   7.004  15.105 -0.4794  1.3296 -0.0558
  148DOPC    C317622   2.718   6.873  15.202 -0.0341  0.4962  0.0170
  148DOPC    HX17623   2.662   6.790  15.250 -0.7903  1.2760  0.5214
  148DOPC    HY17624   2.820   6.868  15.245  1.0537  2.0372 -2.2039
  148DOPC   O3117625   2.726   6.854  15.057  0.1682 -0.0812  0.0391
  148DOPC   C3117626   2.605   6.820  15.003 -0.1762 -0.2373 -0.2806
  148DOPC   O3217627   2.516   6.770  15.071 -0.1362 -0.0908  0.1470
  148DOPC   C3217628   2.596   6.840  14.853  0.0410 -0.8393  0.5243
  148DOPC   H2X17629   2.697   6.817  14.814 -0.3523  1.5603 -2.2199
  148DOPC   H2Y17630   2.527   6.766  14.806 -0.7604 -0.3263  0.8695
  148DOPC   C2317631   2.188   7.163  15.215  0.6816  0.7483 -0.1363
  148DOPC   H3R17632   2.220   7.232  15.133  0.6632 -0.2180 -0.9711
  148DOPC   H3S17633   2.195   7.223  15.308  0.6826 -2.3703  2.0137
  148DOPC   C2417634   2.040   7.112  15.203 -0.0125  0.0873 -0.5557
  148DOPC   H4R17635   2.005   7.075  15.302  0.0222 -1.0433 -0.9545
  148DOPC   H4S17636   2.039   7.021  15.141 -0.9792 -0.9995  0.9930
  148DOPC   C2517637   1.954   7.211  15.143  0.2323  0.0895  0.0054
  148DOPC   H5R17638   1.977   7.231  15.036  0.1477  2.5098  0.3866
  148DOPC   H5S17639   1.973   7.298  15.209  1.2774  0.5500 -0.8828
  148DOPC   C2617640   1.805   7.195  15.157 -0.4209 -0.8748  1.0425
  148DOPC   H6R17641   1.768   7.213  15.261 -2.1808 -0.9407  0.4671
  148DOPC   H6S17642   1.776   7.092  15.127 -1.4928 -0.2460 -0.1662
  148DOPC   C2717643   1.713   7.280  15.060  0.4877 -0.7808 -0.8465
  148DOPC   H7R17644   1.738   7.386  15.082  2.8694 -1.4781  0.1148
  148DOPC   H7S17645   1.606   7.271  15.090  0.7608  0.5537  0.6462
  148DOPC   C2817646   1.707   7.255  14.911 -0.3286  0.3182 -0.1730
  148DOPC   H8R17647   1.688   7.146  14.902  3.4592 -0.3965 -1.2475
  148DOPC   H8S17648   1.808   7.279  14.871 -0.6531  1.5519 -0.2933
  148DOPC   C2917649   1.594   7.321  14.838 -0.2506 -0.9176  0.4271
  148DOPC   H9R17650   1.572   7.421  14.878  0.6109 -0.3676 -0.4355
  148DOPC  C21017651   1.538   7.282  14.726 -0.6365  0.0853  0.0790
  148DOPC  H10R17652   1.466   7.355  14.686 -0.5909  0.8231  1.3147
  148DOPC  C21117653   1.567   7.158  14.646 -0.1546  0.6098 -0.5941
  148DOPC  H11R17654   1.472   7.103  14.631 -0.8685  1.1531  1.6286
  148DOPC  H11S17655   1.620   7.084  14.709  0.7400  1.5784 -0.1623
  148DOPC  C21217656   1.646   7.190  14.522  0.3446 -0.4929 -0.4911
  148DOPC  H12R17657   1.580   7.240  14.448 -1.6161 -2.3605 -0.1088
  148DOPC  H12S17658   1.675   7.090  14.482 -3.4308 -2.4983  1.2280
  148DOPC  C21317659   1.777   7.286  14.539  0.4287 -0.4406  0.3811
  148DOPC  H13R17660   1.846   7.225  14.601  0.2424  0.5010  1.5293
  148DOPC  H13S17661   1.755   7.380  14.593 -0.1006  0.3530 -1.1436
  148DOPC  C21417662   1.829   7.329  14.400  0.2622 -0.6047  0.3764
  148DOPC  H14R17663   1.906   7.409  14.408  0.5435 -0.8473  0.1635
  148DOPC  H14S17664   1.744   7.367  14.340  0.2925  2.5508  2.1463
  148DOPC  C21517665   1.886   7.209  14.319 -0.4230  0.6078 -0.3381
  148DOPC  H15R17666   1.929   7.249  14.224 -1.3340 -0.7925 -1.3753
  148DOPC  H15S17667   1.812   7.131  14.293  0.3293 -0.3266  0.2679
  148DOPC  C21617668   1.992   7.135  14.392  0.4705 -0.0749 -0.0396
  148DOPC  H16R17669   1.941   7.076  14.471  0.5185  3.1482  2.5891
  148DOPC  H16S17670   2.068   7.201  14.440 -0.2971  0.0537  1.0123
  148DOPC  C21717671   2.079   7.030  14.313 -0.2412  0.8638 -0.2794
  148DOPC  H17R17672   2.013   6.946  14.284  2.2510 -2.1648  2.0791
  148DOPC  H17S17673   2.152   6.989  14.386  0.3863 -1.5963 -2.1378
  148DOPC  C21817674   2.151   7.085  14.188  0.6295 -0.1831  0.0225
  148DOPC  H18R17675   2.216   7.171  14.214 -1.3417  1.2204  0.5302
  148DOPC  H18S17676   2.071   7.121  14.120  0.3302  0.0042  0.4702
  148DOPC  H18T17677   2.213   7.009  14.136 -1.5535 -1.7942 -0.3764
  148DOPC   C3317678   2.555   6.979  14.806  0.3586  0.4507 -0.9778
  148DOPC   H3X17679   2.598   7.055  14.875  0.2347  0.4240 -0.8691
  148DOPC   H3Y17680   2.445   6.989  14.817  0.1382 -2.8799  1.5702
  148DOPC   C3417681   2.594   7.006  14.661  0.0741 -0.1123  0.3971
  148DOPC   H4X17682   2.704   6.998  14.646  0.4347  0.9100  2.1033
  148DOPC   H4Y17683   2.578   7.113  14.637  4.3241  0.9719  1.4786
  148DOPC   C3517684   2.522   6.923  14.563  1.0815 -0.0241  0.2550
  148DOPC   H5X17685   2.413   6.917  14.581  0.9573 -1.0025 -0.7134
  148DOPC   H5Y17686   2.572   6.824  14.569  1.8696  0.3301 -0.2173
  148DOPC   C3617687   2.529   6.956  14.412 -0.4073 -0.8376 -0.4701
  148DOPC   H6X17688   2.498   7.062  14.395  0.1179 -0.3461  1.3567
  148DOPC   H6Y17689   2.634   6.961  14.376 -0.6786  2.1675 -1.1228
  148DOPC   C3717690   2.447   6.855  14.331  0.0017  0.2544  0.2801
  148DOPC   H7X17691   2.341   6.881  14.351 -0.4738 -2.2953  1.4001
  148DOPC   H7Y17692   2.458   6.877  14.222 -0.8997  0.6767  0.2674
  148DOPC   C3817693   2.461   6.705  14.351  0.1847  0.3181 -0.2792
  148DOPC   H8X17694   2.378   6.645  14.307 -0.7003 -1.4256  3.4440
  148DOPC   H8Y17695   2.456   6.680  14.459 -0.0189 -2.0783 -0.7770
  148DOPC   C3917696   2.597   6.668  14.298 -0.0666  0.6767 -0.4878
  148DOPC   H9X17697   2.611   6.698  14.193  0.2356 -0.2554 -0.7282
  148DOPC  C31017698   2.702   6.618  14.364 -0.3978  0.3268 -0.0873
  148DOPC  H10X17699   2.794   6.588  14.311  0.2977  0.0981  1.2024
  148DOPC  C31117700   2.715   6.578  14.510  0.6009 -0.2525 -0.1175
  148DOPC  H11X17701   2.735   6.469  14.515  0.5687 -0.2252  1.0901
  148DOPC  H11Y17702   2.617   6.591  14.561  1.7418  0.2316  2.0944
  148DOPC  C31217703   2.815   6.652  14.594  0.1118  0.2585 -0.1809
  148DOPC  H12X17704   2.815   6.609  14.696 -3.5303 -0.1391 -0.2307
  148DOPC  H12Y17705   2.795   6.761  14.593  0.7794  0.3909 -1.2354
  148DOPC  C31317706   2.960   6.637  14.527 -0.6288  0.9266  0.6891
  148DOPC  H13X17707   2.976   6.528  14.515  0.0471  1.2217 -1.4275
  148DOPC  H13Y17708   2.974   6.682  14.427  0.8853  0.0621  0.4795
  148DOPC  C31417709   3.063   6.709  14.613 -0.0988  0.0560  0.0976
  148DOPC  H14X17710   3.011   6.800  14.650  0.2166 -0.0677  0.8654
  148DOPC  H14Y17711   3.080   6.645  14.703 -0.1848  0.1660  0.1930
  148DOPC  C31517712   3.195   6.739  14.532  0.0830  0.2281  1.1892
  148DOPC  H15X17713   3.249   6.819  14.588  2.6984 -1.3000  1.0308
  148DOPC  H15Y17714   3.161   6.797  14.444  0.6203 -0.9519  0.1750
  148DOPC  C31617715   3.270   6.611  14.493  0.5081  0.0531  0.4521
  148DOPC  H16X17716   3.326   6.575  14.582  0.1203  0.0618  0.6988
  148DOPC  H16Y17717   3.199   6.537  14.451 -0.0601  0.2141  1.1054
  148DOPC  C31717718   3.375   6.647  14.381 -0.0124  0.6357 -0.0324
  148DOPC  H17X17719   3.414   6.548  14.351  1.4693  0.9286  0.8199
  148DOPC  H17Y17720   3.326   6.684  14.288  1.8947  2.3598 -0.4232
  148DOPC  C31817721   3.500   6.727  14.413 -0.2558 -0.0207  0.5346
  148DOPC  H18X17722   3.481   6.820  14.471 -1.2704 -0.1541  0.4279
  148DOPC  H18Y17723   3.550   6.681  14.501  0.0827  0.7129  0.7311
  148DOPC  H18Z17724   3.573   6.743  14.331  1.3249  0.0943  1.9051
  149DOPC     N17725   2.401   3.299  15.916  0.9068 -0.5774  0.1751
  149DOPC   C1217726   2.247   3.319  15.934 -0.3137 -0.1294 -0.7404
  149DOPC  H12A17727   2.230   3.387  16.016  1.4316  1.5265 -1.6679
  149DOPC  H12B17728   2.202   3.225  15.962  1.0948 -0.3384  1.0752
  149DOPC   C1317729   2.441   3.220  15.791 -0.1905 -0.4439  0.5384
  149DOPC  H13A17730   2.429   3.287  15.707 -0.8468  0.3812  1.2693
  149DOPC  H13B17731   2.546   3.206  15.811 -0.0809  1.7717  1.8667
  149DOPC  H13C17732   2.379   3.133  15.778 -1.4956  0.8352 -3.0825
  149DOPC   C1417733   2.443   3.211  16.028  0.6043  0.0251 -0.8174
  149DOPC  H14A17734   2.546   3.178  16.022  0.2951 -1.4651  0.9898
  149DOPC  H14B17735   2.440   3.264  16.122 -1.3709  1.5681 -1.6945
  149DOPC  H14C17736   2.374   3.130  16.044 -0.5097  1.0298 -0.4570
  149DOPC   C1517737   2.470   3.431  15.926 -0.1418  0.2298  0.0038
  149DOPC  H15A17738   2.453   3.477  16.022 -2.0915  1.5624 -0.9079
  149DOPC  H15B17739   2.421   3.484  15.846 -4.2321 -1.1846  1.3071
  149DOPC  H15C17740   2.576   3.428  15.907 -0.2113 -0.4526 -0.2893
  149DOPC   C1117741   2.178   3.390  15.812  0.8498  0.1156 -0.7813
  149DOPC  H11A17742   2.227   3.335  15.729  0.4535  1.3750 -1.9047
  149DOPC  H11B17743   2.068   3.373  15.810  0.6074  1.5301 -0.5784
  149DOPC     P17744   2.152   3.631  15.903  0.3978 -0.1342 -0.0644
  149DOPC   O1317745   2.263   3.729  15.924  0.2245  0.5514  0.6240
  149DOPC   O1417746   2.111   3.563  16.027  0.4091  0.2090 -0.1446
  149DOPC   O1217747   2.209   3.529  15.795  0.6105  0.5031 -0.2609
  149DOPC   O1117748   2.027   3.711  15.838 -0.3385 -0.0954  0.2499
  149DOPC    C117749   2.033   3.784  15.714 -0.1753 -0.3733 -0.2016
  149DOPC    HA17750   2.136   3.816  15.688 -1.1058  1.2288 -2.1221
  149DOPC    HB17751   1.988   3.885  15.725  0.8555  0.1532 -0.7090
  149DOPC    C217752   1.964   3.709  15.605 -0.2833  0.4588  0.3338
  149DOPC    HS17753   1.873   3.658  15.644  0.4651 -0.6648  0.6506
  149DOPC   O2117754   2.056   3.612  15.547 -0.2534  0.2942  1.1185
  149DOPC   C2117755   2.000   3.496  15.510 -0.1684  0.1631  0.1799
  149DOPC   O2217756   1.883   3.467  15.517  0.3650 -0.3981  0.0098
  149DOPC   C2217757   2.110   3.408  15.438 -0.1882  0.1202  0.1379
  149DOPC   H2R17758   2.091   3.299  15.438  2.7343 -0.5081 -2.0860
  149DOPC   H2S17759   2.201   3.423  15.500 -1.1435  1.2759  1.3294
  149DOPC    C317760   1.906   3.810  15.493  0.3004  0.1081  0.0232
  149DOPC    HX17761   1.998   3.868  15.470  3.0630 -2.5917  3.1332
  149DOPC    HY17762   1.822   3.871  15.535  0.2323  0.3142 -0.4019
  149DOPC   O3117763   1.868   3.747  15.367  0.1594 -0.0038  0.1470
  149DOPC   C3117764   1.739   3.717  15.347 -0.8059  0.3688 -0.6561
  149DOPC   O3217765   1.652   3.718  15.430 -0.0802  0.1875 -0.1397
  149DOPC   C3217766   1.732   3.669  15.203  0.1166  1.0385  0.6132
  149DOPC   H2X17767   1.753   3.766  15.152  1.1335  0.2163 -0.5651
  149DOPC   H2Y17768   1.817   3.601  15.182 -0.6980 -0.0092  0.6120
  149DOPC   C2317769   2.143   3.439  15.285  0.6634  0.0891  0.0125
  149DOPC   H3R17770   2.246   3.399  15.272  1.2758  1.2239  1.1601
  149DOPC   H3S17771   2.147   3.549  15.271 -1.4384  0.0769 -1.1062
  149DOPC   C2417772   2.038   3.383  15.187  0.5402  0.3426 -0.3182
  149DOPC   H4R17773   2.032   3.448  15.098 -0.9401  0.6224 -0.0415
  149DOPC   H4S17774   1.942   3.395  15.241  1.5988  0.2052  1.7446
  149DOPC   C2517775   2.057   3.238  15.145 -0.1178  1.0455  0.0464
  149DOPC   H5R17776   1.962   3.209  15.095  0.0626 -2.8662  1.6474
  149DOPC   H5S17777   2.084   3.167  15.226  0.7424 -0.8168 -1.7751
  149DOPC   C2617778   2.172   3.217  15.045 -0.2916  0.7788  0.3741
  149DOPC   H6R17779   2.264   3.257  15.091 -0.3831  0.4491  0.8453
  149DOPC   H6S17780   2.140   3.280  14.959 -0.6080  0.4953  0.2810
  149DOPC   C2717781   2.187   3.075  14.990  0.6812 -0.3433  0.6646
  149DOPC   H7R17782   2.250   3.067  14.898  0.3131  0.4088  0.3475
  149DOPC   H7S17783   2.087   3.046  14.953  0.6351  0.7692 -0.1305
  149DOPC   C2817784   2.225   2.967  15.090 -0.0609 -0.7141 -0.6616
  149DOPC   H8R17785   2.247   2.873  15.034  0.7203 -1.5724  1.0304
  149DOPC   H8S17786   2.138   2.964  15.158  0.2405 -0.9317 -0.2828
  149DOPC   C2917787   2.354   3.001  15.167  0.2820 -0.4819 -0.4991
  149DOPC   H9R17788   2.362   3.099  15.216  0.2092 -0.1443 -1.1540
  149DOPC  C21017789   2.454   2.920  15.184 -0.5857 -0.6531  0.4312
  149DOPC  H10R17790   2.538   2.969  15.236 -0.5382 -0.0673 -0.1917
  149DOPC  C21117791   2.483   2.788  15.128  0.3137  1.2075 -0.2273
  149DOPC  H11R17792   2.389   2.732  15.147  0.5171  0.8921 -0.1427
  149DOPC  H11S17793   2.555   2.742  15.199 -0.8035  1.2210  0.9418
  149DOPC  C21217794   2.541   2.793  14.988 -0.2447  0.2173 -0.4227
  149DOPC  H12R17795   2.649   2.816  14.975  0.3387 -1.2375  1.4234
  149DOPC  H12S17796   2.481   2.866  14.930 -1.8520 -0.2764  0.5699
  149DOPC  C21317797   2.513   2.656  14.926 -0.6650 -0.3378 -0.5808
  149DOPC  H13R17798   2.405   2.635  14.937  0.0305 -2.7536  3.9139
  149DOPC  H13S17799   2.570   2.577  14.979  1.3180  2.0280  1.0275
  149DOPC  C21417800   2.551   2.655  14.775  0.7781  1.0212  0.1184
  149DOPC  H14R17801   2.661   2.672  14.767  0.7446  0.3773 -3.2560
  149DOPC  H14S17802   2.508   2.739  14.716 -0.5596 -0.3154 -0.8721
  149DOPC  C21517803   2.498   2.531  14.697 -0.6756 -0.7688 -0.0534
  149DOPC  H15R17804   2.391   2.546  14.669 -1.0684 -0.1443  1.6413
  149DOPC  H15S17805   2.495   2.440  14.760  2.0675 -1.4414 -0.7528
  149DOPC  C21617806   2.582   2.497  14.572  0.7137 -0.1194  0.2577
  149DOPC  H16R17807   2.547   2.402  14.527 -1.0174  0.1698  0.9029
  149DOPC  H16S17808   2.689   2.482  14.598  0.1972 -2.0792  1.4706
  149DOPC  C21717809   2.548   2.610  14.470 -0.1247  0.3333 -0.5004
  149DOPC  H17R17810   2.592   2.703  14.510 -0.0689  0.2103 -0.2763
  149DOPC  H17S17811   2.437   2.616  14.464 -0.1489  0.8851  0.3158
  149DOPC  C21817812   2.591   2.577  14.330  0.1537 -0.3280  0.0491
  149DOPC  H18R17813   2.555   2.476  14.297  1.1358 -0.4031 -0.8486
  149DOPC  H18S17814   2.701   2.565  14.331  0.2117 -0.2499 -1.9357
  149DOPC  H18T17815   2.559   2.644  14.247  0.4491  1.6299  1.4589
  149DOPC   C3317816   1.588   3.620  15.160  0.4823 -0.0576 -0.5182
  149DOPC   H3X17817   1.543   3.574  15.251  0.7780  1.5610  0.5029
  149DOPC   H3Y17818   1.595   3.549  15.075  0.3796 -1.7375  0.8360
  149DOPC   C3417819   1.501   3.736  15.116  0.1690  0.2383 -0.3191
  149DOPC   H4X17820   1.552   3.793  15.036 -1.1630 -1.3997 -2.4443
  149DOPC   H4Y17821   1.478   3.797  15.206 -0.4138 -3.1283  1.9976
  149DOPC   C3517822   1.368   3.692  15.061  0.3765 -0.7631  0.3697
  149DOPC   H5X17823   1.314   3.782  15.025  0.2296 -1.1487 -0.3975
  149DOPC   H5Y17824   1.323   3.665  15.158 -0.9173  1.6983  0.5285
  149DOPC   C3617825   1.368   3.594  14.942  0.3852 -0.7306  0.3074
  149DOPC   H6X17826   1.397   3.493  14.979 -0.1767 -0.0790  2.7111
  149DOPC   H6Y17827   1.260   3.574  14.921  0.4987 -1.6918  0.5853
  149DOPC   C3717828   1.442   3.647  14.815 -0.5323 -0.4063  0.6380
  149DOPC   H7X17829   1.399   3.747  14.794  0.3800 -0.2372 -0.5820
  149DOPC   H7Y17830   1.552   3.651  14.831 -0.4924 -0.0868  0.3042
  149DOPC   C3817831   1.415   3.564  14.692 -0.3878  0.4081  0.1724
  149DOPC   H8X17832   1.309   3.530  14.699 -0.6508  0.9611 -0.8648
  149DOPC   H8Y17833   1.474   3.470  14.684 -0.4979  0.1144  2.3333
  149DOPC   C3917834   1.452   3.650  14.572  0.4587  0.3691  0.4948
  149DOPC   H9X17835   1.557   3.681  14.563  0.1807  1.2872  0.3593
  149DOPC  C31017836   1.356   3.688  14.479 -0.7965 -0.3030 -0.2785
  149DOPC  H10X17837   1.384   3.762  14.403  1.3457 -0.5033  0.2400
  149DOPC  C31117838   1.212   3.652  14.484  0.4303 -0.0175  0.4220
  149DOPC  H11X17839   1.177   3.569  14.549 -1.7838 -0.9226 -1.7430
  149DOPC  H11Y17840   1.191   3.625  14.378  0.5359  3.8597 -0.7145
  149DOPC  C31217841   1.121   3.774  14.527 -0.4837  0.3069  0.0112
  149DOPC  H12X17842   1.156   3.863  14.470 -1.0942  0.3480 -0.3096
  149DOPC  H12Y17843   1.141   3.806  14.631  0.5738  2.2855 -0.7299
  149DOPC  C31317844   0.976   3.744  14.493 -0.4967 -0.2155  0.0210
  149DOPC  H13X17845   0.964   3.710  14.388  3.0013 -0.3702 -0.4488
  149DOPC  H13Y17846   0.953   3.657  14.558 -1.2442 -0.3439 -0.4055
  149DOPC  C31417847   0.879   3.863  14.533  0.3896 -0.1691 -0.6764
  149DOPC  H14X17848   0.919   3.910  14.625  0.5829 -1.3711 -0.1231
  149DOPC  H14Y17849   0.877   3.940  14.453  1.1004 -0.4096 -0.9340
  149DOPC  C31517850   0.733   3.814  14.561 -0.9804 -0.5488  0.7305
  149DOPC  H15X17851   0.664   3.897  14.586 -0.9143  0.2894 -1.5860
  149DOPC  H15Y17852   0.740   3.743  14.646  1.3333 -1.1645  0.0895
  149DOPC  C31617853   0.667   3.747  14.437  0.2156  0.3731 -0.7538
  149DOPC  H16X17854   0.609   3.809  14.366  0.1615 -0.0278 -1.0616
  149DOPC  H16Y17855   0.737   3.682  14.380 -3.4575 -3.0547 -1.8139
  149DOPC  C31717856   0.547   3.661  14.492  0.2952 -0.1134  0.7704
  149DOPC  H17X17857   0.583   3.584  14.564  0.2900  0.9608  1.9626
  149DOPC  H17Y17858   0.474   3.726  14.545  0.2384 -0.5817  1.2692
  149DOPC  C31817859   0.474   3.586  14.376 -0.8898 -0.2252 -0.2089
  149DOPC  H18X17860   0.553   3.538  14.314 -0.3448 -1.3133  1.2766
  149DOPC  H18Y17861   0.408   3.508  14.421  1.0941 -2.3152 -0.7107
  149DOPC  H18Z17862   0.412   3.661  14.321 -0.0082 -0.2000 -1.2043
  150DOPC     N17863   4.444   6.988  15.868 -0.0377  1.0233 -0.0641
  150DOPC   C1217864   4.582   6.941  15.835  0.5651 -0.9732 -0.4583
  150DOPC  H12A17865   4.569   6.848  15.782  0.0995 -0.1436 -1.8578
  150DOPC  H12B17866   4.640   6.928  15.925  0.2443  1.3479  0.1421
  150DOPC   C1317867   4.353   7.001  15.741 -0.8534  0.0828 -0.0696
  150DOPC  H13A17868   4.258   7.037  15.778 -0.4382  0.9072  0.2063
  150DOPC  H13B17869   4.384   7.074  15.668  2.8439 -1.1774  0.0667
  150DOPC  H13C17870   4.334   6.907  15.691  1.9341 -0.8610  0.4884
  150DOPC   C1417871   4.438   7.125  15.938  0.6433  0.5688  0.0758
  150DOPC  H14A17872   4.336   7.153  15.963 -0.1487 -1.5948 -0.5332
  150DOPC  H14B17873   4.508   7.143  16.018 -1.0381 -0.6366  1.9187
  150DOPC  H14C17874   4.467   7.200  15.865  1.2757 -0.5021 -0.7970
  150DOPC   C1517875   4.385   6.889  15.966 -0.1644  0.1766 -0.6198
  150DOPC  H15A17876   4.293   6.926  16.010  0.4039 -0.2240  0.9886
  150DOPC  H15B17877   4.446   6.884  16.055  0.8132  0.4161 -1.2589
  150DOPC  H15C17878   4.379   6.787  15.932 -3.2613  0.4019 -0.9981
  150DOPC   C1117879   4.670   7.034  15.743  0.0615  0.2513 -0.3581
  150DOPC  H11A17880   4.758   6.971  15.718  0.3194 -0.9050  3.0217
  150DOPC  H11B17881   4.618   7.057  15.648  1.4249 -0.5077 -1.3360
  150DOPC     P17882   4.785   7.129  15.957  0.1059 -0.1915 -0.3463
  150DOPC   O1317883   4.831   6.986  15.961 -0.0531  0.1239  0.2492
  150DOPC   O1417884   4.712   7.176  16.072 -0.3676 -0.2259  0.1982
  150DOPC   O1217885   4.714   7.149  15.815  0.8495  0.7034 -0.1580
  150DOPC   O1117886   4.914   7.221  15.946 -0.2522  0.4406  0.0424
  150DOPC    C117887   4.974   7.261  15.822 -0.1631 -0.7917 -0.1179
  150DOPC    HA17888   5.046   7.341  15.849 -1.3774 -0.5954  2.8586
  150DOPC    HB17889   4.904   7.309  15.750  0.3122 -1.0024 -0.7309
  150DOPC    C217890   5.040   7.146  15.746  0.3848 -0.0044  0.8008
  150DOPC    HS17891   5.020   7.054  15.806  1.6545 -1.4132 -0.8467
  150DOPC   O2117892   5.180   7.169  15.744  0.7395 -0.0337 -0.4986
  150DOPC   C2117893   5.262   7.074  15.762 -0.5996  0.1321 -0.3122
  150DOPC   O2217894   5.244   6.954  15.768  0.0060 -0.0733 -0.2656
  150DOPC   C2217895   5.400   7.138  15.757 -0.1043  0.1424 -0.1960
  150DOPC   H2R17896   5.468   7.052  15.737  1.2066  0.7866  1.3167
  150DOPC   H2S17897   5.432   7.175  15.856  0.5540  0.6918 -0.6045
  150DOPC    C317898   4.990   7.137  15.600  0.0697  0.3322  0.5046
  150DOPC    HX17899   4.995   7.231  15.542 -0.8961  0.5000  0.6708
  150DOPC    HY17900   4.884   7.105  15.606  0.0626  0.2187 -0.1830
  150DOPC   O3117901   5.066   7.051  15.515 -0.5716  0.0929 -0.6106
  150DOPC   C3117902   5.049   6.916  15.526  0.0195 -0.6095 -0.5456
  150DOPC   O3217903   4.970   6.852  15.591 -0.0813 -0.1508  0.4392
  150DOPC   C3217904   5.156   6.851  15.438  0.7708  0.0390 -0.2799
  150DOPC   H2X17905   5.201   6.924  15.368  3.1183 -1.8775 -0.9195
  150DOPC   H2Y17906   5.242   6.825  15.504  0.4051 -1.0174 -0.2049
  150DOPC   C2317907   5.417   7.254  15.652  0.4942  0.6635 -0.2372
  150DOPC   H3R17908   5.514   7.299  15.680  1.5093 -1.2652 -0.5158
  150DOPC   H3S17909   5.339   7.333  15.661  0.4108  0.4075  1.7498
  150DOPC   C2417910   5.421   7.195  15.512 -0.3384 -0.1077 -0.5523
  150DOPC   H4R17911   5.339   7.123  15.491 -0.3351  0.1395 -1.4657
  150DOPC   H4S17912   5.519   7.143  15.506  1.3600  2.6456  1.4755
  150DOPC   C2517913   5.419   7.309  15.407  0.2059 -0.2436 -0.3774
  150DOPC   H5R17914   5.509   7.368  15.434  1.7747 -2.9002  0.6812
  150DOPC   H5S17915   5.320   7.357  15.418 -0.3884 -1.6835  0.9628
  150DOPC   C2617916   5.420   7.262  15.258  0.3501  0.6141 -0.0550
  150DOPC   H6R17917   5.333   7.194  15.242 -2.0650  2.5763  3.5311
  150DOPC   H6S17918   5.515   7.205  15.243 -0.8253 -1.4548 -0.1058
  150DOPC   C2717919   5.414   7.391  15.171 -0.9453 -0.4569 -0.3738
  150DOPC   H7R17920   5.479   7.469  15.216 -3.4496  1.0135  0.9454
  150DOPC   H7S17921   5.310   7.429  15.182 -0.6305  0.0750  0.9788
  150DOPC   C2817922   5.443   7.359  15.024 -0.8381  0.3323 -0.3048
  150DOPC   H8R17923   5.437   7.461  14.981 -0.5585  1.1073  1.4406
  150DOPC   H8S17924   5.358   7.295  14.992 -0.8228 -0.0821  0.4669
  150DOPC   C2917925   5.577   7.294  15.005 -0.7477  0.0727 -0.2334
  150DOPC   H9R17926   5.665   7.358  15.014  1.3943 -2.2017 -3.0086
  150DOPC  C21017927   5.589   7.165  14.973 -0.4752  0.5581  0.7263
  150DOPC  H10R17928   5.690   7.130  14.946 -1.0035  1.3626 -2.7168
  150DOPC  C21117929   5.481   7.068  14.940  0.0313  0.3940  0.8623
  150DOPC  H11R17930   5.481   7.040  14.833  1.2859 -1.6810  1.3537
  150DOPC  H11S17931   5.376   7.096  14.962 -0.7760 -0.3165 -1.7209
  150DOPC  C21217932   5.509   6.935  15.020 -0.5903  0.0036  0.3490
  150DOPC  H12R17933   5.517   6.960  15.128  2.1636 -2.5733  0.8705
  150DOPC  H12S17934   5.610   6.896  14.993 -0.1132 -0.7047  2.8775
  150DOPC  C21317935   5.409   6.825  15.003  0.3225  0.6221 -0.7862
  150DOPC  H13R17936   5.309   6.861  15.036  0.7463 -0.4798  2.0623
  150DOPC  H13S17937   5.431   6.749  15.082  0.7519 -2.1166 -3.3647
  150DOPC  C21417938   5.400   6.762  14.870  0.5311 -0.4359  0.0919
  150DOPC  H14R17939   5.486   6.696  14.849  0.0296 -0.9389 -0.4014
  150DOPC  H14S17940   5.410   6.844  14.796  1.3909  0.7300  1.4271
  150DOPC  C21517941   5.277   6.680  14.841  0.6226  0.2103 -0.8187
  150DOPC  H15R17942   5.188   6.746  14.855 -1.3181 -2.7172  2.2488
  150DOPC  H15S17943   5.272   6.600  14.918 -0.9098  1.0201 -0.0225
  150DOPC  C21617944   5.267   6.607  14.703 -0.1884 -0.0085  0.4539
  150DOPC  H16R17945   5.179   6.540  14.702  0.5093 -0.9659  1.0285
  150DOPC  H16S17946   5.354   6.544  14.673  0.8204  1.5748 -0.1006
  150DOPC  C21717947   5.251   6.703  14.578  0.3125 -0.4806 -0.0271
  150DOPC  H17R17948   5.199   6.798  14.602  0.0983 -0.4877 -0.4551
  150DOPC  H17S17949   5.180   6.659  14.505 -1.7725  1.2009  0.8818
  150DOPC  C21817950   5.375   6.747  14.504 -0.5501 -0.5738  0.1953
  150DOPC  H18R17951   5.354   6.767  14.397  0.1657 -1.4731 -0.1335
  150DOPC  H18S17952   5.453   6.668  14.511 -0.9186 -1.1098 -1.3373
  150DOPC  H18T17953   5.414   6.843  14.546  0.1636 -0.6488 -0.2784
  150DOPC   C3317954   5.113   6.719  15.356 -0.0512  0.0805 -0.4194
  150DOPC   H3X17955   5.075   6.646  15.431  0.3249  1.2876  1.0095
  150DOPC   H3Y17956   5.204   6.676  15.308  0.3956  2.1573 -1.5608
  150DOPC   C3417957   5.013   6.760  15.250 -0.3129  0.0294 -0.3300
  150DOPC   H4X17958   5.057   6.838  15.183  0.8017  0.6126  1.0114
  150DOPC   H4Y17959   4.924   6.807  15.297 -0.2682  0.4203 -0.6223
  150DOPC   C3517960   4.973   6.636  15.169 -0.3098 -0.4582  0.5345
  150DOPC   H5X17961   5.065   6.597  15.121 -1.0671 -3.5107  1.3934
  150DOPC   H5Y17962   4.911   6.669  15.083  2.1126 -0.1239 -1.1867
  150DOPC   C3617963   4.910   6.527  15.247 -0.3945  0.2189 -0.1833
  150DOPC   H6X17964   4.980   6.494  15.328 -1.4988  0.4736  0.8984
  150DOPC   H6Y17965   4.820   6.565  15.299  0.5381  1.3990  0.6288
  150DOPC   C3717966   4.858   6.405  15.169 -0.2992  0.2474 -0.3930
  150DOPC   H7X17967   4.808   6.335  15.239 -0.0538  0.7269  0.2713
  150DOPC   H7Y17968   4.779   6.435  15.097  0.7284  0.2837 -1.5477
  150DOPC   C3817969   4.966   6.331  15.090 -0.6569  0.3455 -0.3025
  150DOPC   H8X17970   5.046   6.289  15.154 -1.8337 -0.8971  0.4146
  150DOPC   H8Y17971   5.011   6.409  15.025  0.1861 -0.6471 -0.9395
  150DOPC   C3917972   4.929   6.209  15.009 -0.0988  0.2306  0.2856
  150DOPC   H9X17973   4.859   6.140  15.059 -1.4244  0.7215 -0.8404
  150DOPC  C31017974   4.958   6.181  14.878  0.8211 -0.6442  0.0931
  150DOPC  H10X17975   4.897   6.109  14.821 -0.4783  1.2367 -1.0013
  150DOPC  C31117976   5.049   6.250  14.789 -0.1325 -0.0644 -0.4452
  150DOPC  H11X17977   5.108   6.327  14.843 -2.0385  0.4439  1.0241
  150DOPC  H11Y17978   5.000   6.306  14.706 -0.0780 -0.9465 -1.0844
  150DOPC  C31217979   5.157   6.166  14.727 -0.0257  0.3671  0.0906
  150DOPC  H12X17980   5.108   6.079  14.677 -1.3754  1.1834 -0.0597
  150DOPC  H12Y17981   5.218   6.118  14.806 -2.8598 -1.1555  1.4968
  150DOPC  C31317982   5.238   6.233  14.613 -0.6189  0.7880 -0.3902
  150DOPC  H13X17983   5.287   6.324  14.653 -0.6772  0.1326  1.2489
  150DOPC  H13Y17984   5.321   6.166  14.583 -1.0854  0.4285 -0.9028
  150DOPC  C31417985   5.161   6.261  14.485  0.3858 -0.4208  0.8284
  150DOPC  H14X17986   5.116   6.165  14.451  0.0707  0.5583 -1.7641
  150DOPC  H14Y17987   5.062   6.310  14.502  0.0357 -0.1493 -1.6378
  150DOPC  C31517988   5.236   6.340  14.376 -1.0812  0.5602 -0.2112
  150DOPC  H15X17989   5.337   6.303  14.348 -2.1176 -2.0694 -0.8120
  150DOPC  H15Y17990   5.252   6.448  14.397  0.2233  0.9983 -3.0733
  150DOPC  C31617991   5.154   6.325  14.243 -0.1063  0.8973  0.7140
  150DOPC  H16X17992   5.129   6.217  14.232  0.6184  0.6613  1.3625
  150DOPC  H16Y17993   5.064   6.388  14.255  0.5572  2.5913 -2.1412
  150DOPC  C31717994   5.223   6.365  14.108 -0.2520  0.5133 -0.7389
  150DOPC  H17X17995   5.300   6.288  14.086 -1.0378 -0.0963 -1.4272
  150DOPC  H17Y17996   5.147   6.353  14.027 -0.1041 -1.0522 -0.6792
  150DOPC  C31817997   5.282   6.500  14.114 -0.1046  0.2025  0.5808
  150DOPC  H18X17998   5.344   6.527  14.025  0.2001 -0.8450  0.4604
  150DOPC  H18Y17999   5.200   6.575  14.120  1.4023  2.1439 -1.3141
  150DOPC  H18Z18000   5.343   6.519  14.204  0.7436  0.2965  0.0025
  151DOPC     N18001   1.728   3.923  16.055  0.0471  0.1610 -0.5012
  151DOPC   C1218002   1.811   3.941  15.932  0.0504  1.2467  0.2388
  151DOPC  H12A18003   1.794   3.851  15.875  0.2198 -0.3336  2.5029
  151DOPC  H12B18004   1.915   3.945  15.959  0.3310 -2.4261  0.1607
  151DOPC   C1318005   1.592   3.887  16.024  0.6457  0.1901  0.7303
  151DOPC  H13A18006   1.547   3.957  15.955  0.4785  0.5702  1.2128
  151DOPC  H13B18007   1.587   3.784  15.991 -1.4689  0.3437  0.3779
  151DOPC  H13C18008   1.522   3.881  16.107  0.5267 -0.3940  0.5892
  151DOPC   C1418009   1.727   4.050  16.137  0.0959  0.3345 -0.2270
  151DOPC  H14A18010   1.823   4.079  16.177 -0.1027  0.5803  0.0767
  151DOPC  H14B18011   1.679   4.130  16.081 -0.4033 -0.7255 -1.3865
  151DOPC  H14C18012   1.656   4.033  16.217 -0.1934 -2.7861 -1.0181
  151DOPC   C1518013   1.776   3.824  16.148  0.0482  0.1208  0.0635
  151DOPC  H15A18014   1.786   3.724  16.107  1.2044  1.0887 -2.1829
  151DOPC  H15B18015   1.705   3.825  16.230  0.2070  3.2259  0.2838
  151DOPC  H15C18016   1.878   3.846  16.175  0.2967 -0.3644 -0.4490
  151DOPC   C1118017   1.782   4.054  15.832  0.2782  0.8305 -0.0028
  151DOPC  H11A18018   1.809   4.148  15.885  1.9179  0.9326 -0.9706
  151DOPC  H11B18019   1.844   4.049  15.740 -2.0774 -1.0313 -1.6256
  151DOPC     P18020   1.587   3.964  15.685 -0.4692  0.0442 -0.5233
  151DOPC   O1318021   1.438   3.979  15.681 -0.2181 -0.2833  0.2030
  151DOPC   O1418022   1.634   3.828  15.729  0.3422 -0.7733 -0.2477
  151DOPC   O1218023   1.640   4.065  15.799  0.1976  0.0607 -0.5196
  151DOPC   O1118024   1.658   4.011  15.556 -0.2790  0.0225 -0.2294
  151DOPC    C118025   1.650   4.146  15.515 -0.1777  0.1166 -0.8773
  151DOPC    HA18026   1.716   4.210  15.578 -2.3793  0.8745  0.7875
  151DOPC    HB18027   1.544   4.180  15.517  0.0218  0.9712  2.6812
  151DOPC    C218028   1.703   4.165  15.372  0.6393 -0.2828  0.3590
  151DOPC    HS18029   1.717   4.274  15.360 -0.6642 -0.2120 -0.7507
  151DOPC   O2118030   1.604   4.102  15.279 -0.1507  0.0809  0.3384
  151DOPC   C2118031   1.548   4.185  15.202  0.5496 -0.2022  0.2046
  151DOPC   O2218032   1.558   4.307  15.210 -0.0285 -0.0615 -0.1680
  151DOPC   C2218033   1.453   4.106  15.113 -0.2280  0.1458  0.7068
  151DOPC   H2R18034   1.388   4.040  15.174 -0.0062  0.9148  1.7937
  151DOPC   H2S18035   1.516   4.047  15.043 -0.9724  1.3465 -1.0477
  151DOPC    C318036   1.847   4.110  15.342 -0.3439  0.2208  0.0462
  151DOPC    HX18037   1.848   3.999  15.338 -0.7246  0.2349 -0.6039
  151DOPC    HY18038   1.916   4.130  15.427  0.4099  0.1027 -0.5268
  151DOPC   O3118039   1.896   4.171  15.221  0.0050 -0.2440 -0.2100
  151DOPC   C3118040   1.851   4.120  15.112  0.2245 -0.4721  0.8174
  151DOPC   O3218041   1.792   4.011  15.095  0.0714 -0.2784 -0.2926
  151DOPC   C3218042   1.867   4.229  15.000 -1.0167 -0.1308  0.4745
  151DOPC   H2X18043   1.823   4.321  15.043 -0.3309  1.0646 -1.2592
  151DOPC   H2Y18044   1.975   4.248  14.986 -1.1538  0.4466  0.1636
  151DOPC   C2318045   1.377   4.194  15.014 -0.0010  0.1516 -0.1190
  151DOPC   H3R18046   1.447   4.257  14.955 -1.2917  1.9585  0.1776
  151DOPC   H3S18047   1.299   4.258  15.062 -0.5720  1.9316 -3.1676
  151DOPC   C2418048   1.301   4.100  14.911 -1.1514 -0.2189  0.5743
  151DOPC   H4R18049   1.221   4.054  14.974  0.4848 -1.7004  1.6824
  151DOPC   H4S18050   1.378   4.027  14.876 -0.0824  1.5140 -0.8209
  151DOPC   C2518051   1.236   4.180  14.800  0.2762 -0.0753 -0.7540
  151DOPC   H5R18052   1.168   4.260  14.837 -0.7972 -1.5786  0.6834
  151DOPC   H5S18053   1.171   4.108  14.746 -1.1956 -1.7409  2.9210
  151DOPC   C2618054   1.331   4.255  14.709  0.0666 -0.8894 -0.5932
  151DOPC   H6R18055   1.419   4.200  14.669  1.2933  0.0164  0.7649
  151DOPC   H6S18056   1.376   4.345  14.755 -1.0826  0.0897 -1.3180
  151DOPC   C2718057   1.267   4.304  14.581 -0.2019 -0.5813  0.0935
  151DOPC   H7R18058   1.337   4.365  14.520 -0.2637  0.4271  0.9989
  151DOPC   H7S18059   1.182   4.370  14.609  1.6144  0.6086  3.2542
  151DOPC   C2818060   1.207   4.192  14.487  0.0459 -0.2106  0.3751
  151DOPC   H8R18061   1.139   4.246  14.418  0.6063 -0.4531 -0.3742
  151DOPC   H8S18062   1.143   4.125  14.549 -1.1439 -0.6310 -1.2536
  151DOPC   C2918063   1.300   4.103  14.411  0.5995  0.5405  0.5562
  151DOPC   H9R18064   1.359   4.026  14.462  0.4336  0.2690  0.3459
  151DOPC  C21018065   1.316   4.101  14.276  0.1218 -0.1532  0.2522
  151DOPC  H10R18066   1.377   4.017  14.241  2.3134  0.5398  2.1778
  151DOPC  C21118067   1.254   4.202  14.180 -0.2094 -0.3314  0.1211
  151DOPC  H11R18068   1.335   4.235  14.112  0.8360 -1.1684  0.9302
  151DOPC  H11S18069   1.215   4.293  14.231  0.0285 -1.3538  2.2453
  151DOPC  C21218070   1.140   4.129  14.095  0.2965 -0.4401 -0.6723
  151DOPC  H12R18071   1.053   4.110  14.161  0.4838 -1.8189 -0.8000
  151DOPC  H12S18072   1.170   4.026  14.066 -3.4032 -1.9313  0.2104
  151DOPC  C21318073   1.096   4.209  13.969 -0.3656 -0.2247  0.4478
  151DOPC  H13R18074   1.186   4.227  13.907  0.2074  0.7351  1.5262
  151DOPC  H13S18075   1.053   4.308  13.994  0.5588  0.0985  0.8210
  151DOPC  C21418076   1.000   4.123  13.883  0.0668  0.3168 -0.1901
  151DOPC  H14R18077   0.907   4.119  13.944 -0.9826 -2.5569 -1.8110
  151DOPC  H14S18078   1.027   4.016  13.883 -0.4709  0.1617  0.8870
  151DOPC  C21518079   0.966   4.176  13.745 -0.0937  0.4548  0.5720
  151DOPC  H15R18080   1.043   4.138  13.674 -1.2251 -0.3546 -0.2480
  151DOPC  H15S18081   0.975   4.286  13.742  1.3943  0.3799  1.0752
  151DOPC  C21618082   0.831   4.121  13.683 -0.3316 -0.0537  0.2011
  151DOPC  H16R18083   0.817   4.149  13.576 -0.1717 -0.6945  0.0073
  151DOPC  H16S18084   0.745   4.159  13.742  0.2641  0.9194  0.4716
  151DOPC  C21718085   0.816   3.967  13.703 -0.0713  0.0414  0.9404
  151DOPC  H17R18086   0.818   3.940  13.810  1.1953 -3.0195  0.2602
  151DOPC  H17S18087   0.900   3.919  13.647  2.0154  2.2599  1.9888
  151DOPC  C21818088   0.685   3.914  13.646  0.4785  0.6216  0.5717
  151DOPC  H18R18089   0.608   3.895  13.723  1.2396 -2.6932  0.6675
  151DOPC  H18S18090   0.693   3.820  13.587 -0.8832  1.7607 -1.6024
  151DOPC  H18T18091   0.653   3.981  13.563 -0.0341 -0.6589 -0.2997
  151DOPC   C3318092   1.794   4.173  14.873  0.7010 -0.0221 -0.0373
  151DOPC   H3X18093   1.688   4.148  14.897  0.2867  0.5673 -1.1778
  151DOPC   H3Y18094   1.839   4.084  14.825  2.1378  0.3513  0.5708
  151DOPC   C3418095   1.787   4.292  14.778 -0.4032 -0.1411  0.1219
  151DOPC   H4X18096   1.751   4.267  14.676  0.0732 -0.4302  0.0202
  151DOPC   H4Y18097   1.890   4.333  14.765 -0.6190  0.6768  0.8926
  151DOPC   C3518098   1.681   4.398  14.815 -0.1788  0.0267  0.3687
  151DOPC   H5X18099   1.699   4.446  14.914 -0.0143 -0.7306  0.7079
  151DOPC   H5Y18100   1.586   4.341  14.821  0.3926 -1.2052 -1.5901
  151DOPC   C3618101   1.650   4.504  14.707  0.1610 -0.1352  0.6329
  151DOPC   H6X18102   1.744   4.562  14.693  0.2805 -0.6897 -1.2073
  151DOPC   H6Y18103   1.626   4.447  14.615  0.4079 -0.5928  0.8528
  151DOPC   C3718104   1.543   4.616  14.730  0.1548  0.0605 -0.0842
  151DOPC   H7X18105   1.452   4.568  14.771  1.0700 -1.2146  0.5271
  151DOPC   H7Y18106   1.561   4.694  14.807 -0.1858  0.5568 -0.4997
  151DOPC   C3818107   1.501   4.682  14.594  0.2419 -0.3579  0.2715
  151DOPC   H8X18108   1.472   4.596  14.530  1.2590 -0.5883  0.0979
  151DOPC   H8Y18109   1.587   4.728  14.540 -0.9139  0.2587 -1.0993
  151DOPC   C3918110   1.389   4.782  14.609  0.5876  0.6250 -0.0424
  151DOPC   H9X18111   1.328   4.760  14.698  0.9458 -1.2932 -0.2253
  151DOPC  C31018112   1.344   4.880  14.529 -0.2787  0.9323  0.1345
  151DOPC  H10X18113   1.256   4.940  14.557 -0.0548  0.8031  1.1472
  151DOPC  C31118114   1.403   4.918  14.393 -0.3056 -0.0148  0.2813
  151DOPC  H11X18115   1.483   4.845  14.368 -0.9379 -1.3091  1.8416
  151DOPC  H11Y18116   1.456   5.016  14.394  1.2350 -0.7545 -1.8639
  151DOPC  C31218117   1.301   4.928  14.286 -0.0886  0.2425  0.3600
  151DOPC  H12X18118   1.231   5.002  14.331  1.2996  0.4542  2.2372
  151DOPC  H12Y18119   1.259   4.825  14.275  3.3929 -1.3397  0.7751
  151DOPC  C31318120   1.345   4.997  14.155  0.2876  0.1182  0.3014
  151DOPC  H13X18121   1.393   5.096  14.169 -0.3519  0.6124 -0.8431
  151DOPC  H13Y18122   1.412   4.933  14.094 -0.5129  0.3042 -0.8137
  151DOPC  C31418123   1.234   5.025  14.056  0.6478  0.3913 -0.3711
  151DOPC  H14X18124   1.170   5.100  14.106  0.3796 -0.9507  1.3982
  151DOPC  H14Y18125   1.290   5.069  13.971  0.8829  2.8232  0.9566
  151DOPC  C31518126   1.143   4.907  14.023  0.3959 -1.0446  0.1500
  151DOPC  H15X18127   1.105   4.873  14.121  3.1106 -2.2348  0.8712
  151DOPC  H15Y18128   1.213   4.828  13.989 -0.6842 -0.8947 -2.7758
  151DOPC  C31618129   1.044   4.943  13.907  0.0423 -0.2139  0.5673
  151DOPC  H16X18130   0.971   5.022  13.937  0.3650  1.5735 -2.7799
  151DOPC  H16Y18131   1.097   4.994  13.824 -1.6016 -1.4365 -1.3491
  151DOPC  C31718132   0.963   4.825  13.851 -0.4792 -0.4147  0.6633
  151DOPC  H17X18133   0.899   4.775  13.927  0.5391 -1.8922  0.5876
  151DOPC  H17Y18134   0.893   4.870  13.778 -0.0495 -1.0564 -0.1538
  151DOPC  C31818135   1.047   4.720  13.785  0.1044 -0.1474  0.0720
  151DOPC  H18X18136   1.133   4.696  13.852  0.4740  2.4742  0.6314
  151DOPC  H18Y18137   0.989   4.630  13.756  2.0137 -0.5957 -2.6660
  151DOPC  H18Z18138   1.086   4.769  13.694 -0.0174 -0.0788  0.0569
  152DOPC     N18139   4.751   1.458  16.244 -0.0922 -0.3497 -0.2917
  152DOPC   C1218140   4.680   1.327  16.237  0.5994  0.6854  0.1596
  152DOPC  H12A18141   4.578   1.359  16.220  0.9529  1.2454 -1.0431
  152DOPC  H12B18142   4.674   1.273  16.330  1.0653 -0.9351 -0.7021
  152DOPC   C1318143   4.743   1.542  16.118  0.2946 -0.5884 -0.6797
  152DOPC  H13A18144   4.640   1.575  16.107  0.3124 -0.6831 -1.1968
  152DOPC  H13B18145   4.806   1.628  16.131 -2.3730  1.3105  0.6980
  152DOPC  H13C18146   4.777   1.485  16.033 -1.3555 -1.0188 -1.1026
  152DOPC   C1418147   4.891   1.439  16.284 -0.3090 -0.2983  0.3558
  152DOPC  H14A18148   4.942   1.534  16.286  0.6681 -0.8141  0.4279
  152DOPC  H14B18149   4.901   1.410  16.387  0.2723  0.3750  0.4974
  152DOPC  H14C18150   4.943   1.369  16.220  1.1738  0.8493  0.2455
  152DOPC   C1518151   4.693   1.538  16.359 -0.1106 -1.1371 -0.0995
  152DOPC  H15A18152   4.587   1.553  16.351 -0.1675 -0.4521  1.4811
  152DOPC  H15B18153   4.729   1.640  16.355 -2.9221 -0.0797 -0.4967
  152DOPC  H15C18154   4.725   1.503  16.457  0.1354  1.3831  0.7874
  152DOPC   C1118155   4.707   1.236  16.112  0.2569 -0.1913  0.4762
  152DOPC  H11A18156   4.630   1.156  16.112 -0.5659  0.5889  0.9695
  152DOPC  H11B18157   4.696   1.304  16.024 -0.7763  2.0125  2.1992
  152DOPC     P18158   4.879   1.046  16.151 -0.2436 -0.1835  0.4225
  152DOPC   O1318159   4.817   1.020  16.282  0.1864  0.5126 -0.4638
  152DOPC   O1418160   5.025   1.025  16.156  0.4125 -0.6840 -0.1498
  152DOPC   O1218161   4.846   1.195  16.108  0.4716 -0.1217 -0.5279
  152DOPC   O1118162   4.817   0.956  16.037 -0.0921 -0.2280  0.0864
  152DOPC    C118163   4.851   0.972  15.897  0.3344  0.1093  0.4056
  152DOPC    HA18164   4.864   0.876  15.841 -2.9396 -0.6397  0.7394
  152DOPC    HB18165   4.946   1.027  15.880 -0.8867  2.1248 -0.1188
  152DOPC    C218166   4.743   1.049  15.812  0.1720 -0.7295  0.3111
  152DOPC    HS18167   4.729   1.147  15.862  0.5145 -0.2224 -0.5574
  152DOPC   O2118168   4.624   0.968  15.810 -0.0188  0.1652  0.5070
  152DOPC   C2118169   4.509   1.019  15.791  0.4389 -0.5596 -0.0946
  152DOPC   O2218170   4.475   1.138  15.808  0.4162  0.1396  0.4324
  152DOPC   C2218171   4.408   0.910  15.749  0.0529  0.8413 -0.1324
  152DOPC   H2R18172   4.399   0.828  15.823  1.2232 -1.9909 -2.9081
  152DOPC   H2S18173   4.455   0.859  15.662 -0.3616  1.3823 -0.6851
  152DOPC    C318174   4.787   1.075  15.664 -0.5414 -0.2462  0.5650
  152DOPC    HX18175   4.842   0.988  15.622  2.2042  0.5700  2.2126
  152DOPC    HY18176   4.864   1.153  15.682  0.8005 -1.5851  0.8405
  152DOPC   O3118177   4.678   1.113  15.579 -0.3191  0.0084  0.0682
  152DOPC   C3118178   4.647   1.239  15.552 -0.6986 -0.1539  0.0674
  152DOPC   O3218179   4.687   1.329  15.619  0.0709  0.3443  0.0297
  152DOPC   C3218180   4.589   1.259  15.415 -0.4803  0.3000 -1.3815
  152DOPC   H2X18181   4.478   1.248  15.424 -0.1765 -2.0466  0.6917
  152DOPC   H2Y18182   4.602   1.367  15.393  0.4937  0.0040 -2.3122
  152DOPC   C2318183   4.262   0.960  15.706 -0.0057 -0.5651  0.2461
  152DOPC   H3R18184   4.229   1.030  15.786 -0.1792 -1.9820  1.4472
  152DOPC   H3S18185   4.189   0.876  15.706  0.2826 -0.8596 -1.8104
  152DOPC   C2418186   4.269   1.024  15.574 -0.1512 -0.2482 -0.4348
  152DOPC   H4R18187   4.313   0.961  15.493 -0.4618 -1.8677  0.5987
  152DOPC   H4S18188   4.333   1.114  15.570 -1.5560  0.7859 -0.6734
  152DOPC   C2518189   4.127   1.064  15.533 -0.6253 -0.7568  0.0008
  152DOPC   H5R18190   4.080   1.114  15.620  0.8667  0.7890 -0.0352
  152DOPC   H5S18191   4.076   0.972  15.497 -1.2322  0.4038 -2.2863
  152DOPC   C2618192   4.145   1.161  15.423 -0.5382  0.4034  0.4724
  152DOPC   H6R18193   4.201   1.254  15.445  1.3751 -0.4449 -0.5752
  152DOPC   H6S18194   4.046   1.194  15.385  0.0272  0.1147 -1.3301
  152DOPC   C2718195   4.211   1.098  15.300 -0.2097  0.1342 -0.5908
  152DOPC   H7R18196   4.137   1.020  15.272 -1.4248  0.1785  2.1223
  152DOPC   H7S18197   4.310   1.050  15.313  0.4031  1.3761 -0.4655
  152DOPC   C2818198   4.213   1.205  15.180 -0.4133 -0.4191 -0.0499
  152DOPC   H8R18199   4.298   1.268  15.212  0.6508 -2.9276  2.5250
  152DOPC   H8S18200   4.129   1.278  15.186  0.3159  0.4233 -0.0175
  152DOPC   C2918201   4.233   1.150  15.039  0.5145 -0.4677 -0.3086
  152DOPC   H9R18202   4.316   1.080  15.024 -1.3561 -2.7369 -0.6089
  152DOPC  C21018203   4.154   1.175  14.929 -0.1207  0.1254 -0.3354
  152DOPC  H10R18204   4.175   1.142  14.826 -0.2568  3.0434 -1.3810
  152DOPC  C21118205   4.031   1.259  14.934 -0.6461 -0.2493 -0.3292
  152DOPC  H11R18206   4.033   1.330  15.021 -0.5218 -0.6031 -0.0408
  152DOPC  H11S18207   3.948   1.187  14.952  0.4536 -1.2712  0.8479
  152DOPC  C21218208   4.012   1.354  14.811 -0.6615  0.2348 -0.4896
  152DOPC  H12R18209   4.101   1.420  14.806  0.6574 -1.4770 -0.4818
  152DOPC  H12S18210   3.924   1.417  14.833 -0.6069  0.2376 -0.2727
  152DOPC  C21318211   3.992   1.271  14.684  0.3074  0.3657  0.5973
  152DOPC  H13R18212   3.914   1.192  14.695  1.4890 -0.7893  0.9825
  152DOPC  H13S18213   4.078   1.208  14.650 -2.5192 -2.6538 -1.6525
  152DOPC  C21418214   3.946   1.377  14.581 -0.4555  0.1788  0.4492
  152DOPC  H14R18215   3.858   1.433  14.622 -1.3008 -0.8195  0.0483
  152DOPC  H14S18216   3.901   1.331  14.490 -2.3033 -0.7304  1.7609
  152DOPC  C21518217   4.060   1.469  14.525 -0.6140 -0.5885 -0.2701
  152DOPC  H15R18218   4.141   1.396  14.505  1.5090  1.5786 -0.0912
  152DOPC  H15S18219   4.097   1.538  14.603 -2.4312  0.2507 -0.0762
  152DOPC  C21618220   4.012   1.537  14.396  0.6178  0.0081  0.1458
  152DOPC  H16R18221   3.954   1.629  14.413  0.7720  0.8898 -3.3436
  152DOPC  H16S18222   3.951   1.465  14.337 -0.3303  0.4258  0.6163
  152DOPC  C21718223   4.132   1.575  14.309  0.1635 -0.2995  0.6662
  152DOPC  H17R18224   4.223   1.511  14.306  0.1098 -0.3433 -0.6916
  152DOPC  H17S18225   4.164   1.674  14.349 -1.6961  0.8179 -0.4501
  152DOPC  C21818226   4.098   1.608  14.165  0.3153  0.1689 -0.4078
  152DOPC  H18R18227   4.047   1.523  14.114  0.4870 -0.0913 -0.1503
  152DOPC  H18S18228   4.191   1.621  14.105 -0.5495 -1.2546 -2.1515
  152DOPC  H18T18229   4.043   1.704  14.161  1.7901  1.0091 -1.8216
  152DOPC   C3318230   4.637   1.167  15.310 -0.1924  0.5583  0.7146
  152DOPC   H3X18231   4.565   1.142  15.228  0.7504  0.1431 -0.0053
  152DOPC   H3Y18232   4.650   1.064  15.350 -0.7263  0.2726  0.1859
  152DOPC   C3418233   4.767   1.223  15.252 -0.0488  0.1375 -0.1842
  152DOPC   H4X18234   4.841   1.227  15.335 -1.8537 -3.7399  1.8650
  152DOPC   H4Y18235   4.750   1.324  15.210 -1.5051  0.2693  0.6469
  152DOPC   C3518236   4.824   1.134  15.136  0.1977 -0.6882 -0.3044
  152DOPC   H5X18237   4.746   1.096  15.066 -0.7606 -0.7257  0.7610
  152DOPC   H5Y18238   4.886   1.051  15.176  3.5800  2.0003  0.5433
  152DOPC   C3618239   4.912   1.214  15.040  0.6206 -0.0568  0.2496
  152DOPC   H6X18240   4.848   1.297  15.003 -2.2675 -0.5426  3.6652
  152DOPC   H6Y18241   4.999   1.262  15.090  0.4699 -0.7975  1.2457
  152DOPC   C3718242   4.971   1.124  14.926 -0.0103 -0.0143  0.2876
  152DOPC   H7X18243   5.032   1.043  14.971 -0.1160 -0.0060  0.4455
  152DOPC   H7Y18244   4.885   1.083  14.869 -1.3781 -0.4390  2.5260
  152DOPC   C3818245   5.062   1.196  14.819  0.3041 -0.6302 -0.7037
  152DOPC   H8X18246   5.136   1.263  14.867 -1.4052  0.6733  0.2247
  152DOPC   H8Y18247   4.997   1.257  14.752  1.0522 -1.3368 -2.1234
  152DOPC   C3918248   5.140   1.104  14.731 -0.5777 -0.7639  0.3360
  152DOPC   H9X18249   5.244   1.095  14.766 -0.8994  4.0243  3.3514
  152DOPC  C31018250   5.102   1.046  14.621  0.4649  0.0855 -0.1127
  152DOPC  H10X18251   5.172   0.982  14.564 -0.7156  0.9731 -2.7173
  152DOPC  C31118252   4.969   1.079  14.559 -0.3879 -0.1414 -0.3380
  152DOPC  H11X18253   4.891   1.116  14.630  1.7513  1.1418  1.4543
  152DOPC  H11Y18254   4.930   0.979  14.530  0.6398  0.4420 -4.3606
  152DOPC  C31218255   4.956   1.159  14.430 -0.0670  0.1656 -0.7808
  152DOPC  H12X18256   4.996   1.092  14.351 -0.6301 -0.8746 -0.2035
  152DOPC  H12Y18257   5.013   1.253  14.444 -0.6902  0.4753 -0.2696
  152DOPC  C31318258   4.815   1.200  14.395 -0.4599  0.8403  0.2181
  152DOPC  H13X18259   4.770   1.100  14.376 -2.8911  1.9903 -0.3873
  152DOPC  H13Y18260   4.759   1.240  14.482 -0.6353  1.6277 -0.2545
  152DOPC  C31418261   4.826   1.298  14.285  0.3098 -0.5047  0.6301
  152DOPC  H14X18262   4.883   1.385  14.325  1.5273  0.2254 -2.4435
  152DOPC  H14Y18263   4.872   1.248  14.198 -0.2872 -0.1977  0.1293
  152DOPC  C31518264   4.686   1.339  14.225  0.0420  0.4890  0.3126
  152DOPC  H15X18265   4.610   1.288  14.289  1.3004 -0.4240  1.1168
  152DOPC  H15Y18266   4.666   1.310  14.120 -1.1199  0.5987  0.4818
  152DOPC  C31618267   4.669   1.491  14.227  0.2496 -0.2420 -0.2372
  152DOPC  H16X18268   4.724   1.543  14.308 -0.7204  0.8467 -0.2511
  152DOPC  H16Y18269   4.694   1.527  14.124 -2.2987  2.0268 -0.2047
  152DOPC  C31718270   4.516   1.523  14.245 -0.6645 -0.5799  0.3438
  152DOPC  H17X18271   4.457   1.485  14.159 -0.5350  2.5007 -1.2532
  152DOPC  H17Y18272   4.483   1.470  14.337 -1.7481 -2.0340 -0.8276
  152DOPC  C31818273   4.497   1.673  14.251 -0.8612 -0.5401 -0.0336
  152DOPC  H18X18274   4.537   1.732  14.336 -0.5581  0.1952 -0.6798
  152DOPC  H18Y18275   4.543   1.709  14.157  1.0083  0.8165  1.3285
  152DOPC  H18Z18276   4.390   1.698  14.234 -1.1647 -2.8422 -1.9990
  153DOPC     N18277   5.455   7.157  16.557  0.1691  0.0723  0.0085
  153DOPC   C1218278   5.344   7.110  16.466  0.3090  0.0802  0.0656
  153DOPC  H12A18279   5.270   7.187  16.453 -0.8824 -1.3144 -2.0679
  153DOPC  H12B18280   5.282   7.036  16.515 -1.2230 -0.2813 -2.2621
  153DOPC   C1318281   5.387   7.242  16.664 -0.8872  0.3827  0.0633
  153DOPC  H13A18282   5.455   7.278  16.739 -0.5413 -1.7305  0.8021
  153DOPC  H13B18283   5.347   7.335  16.626  0.6924  1.1395  0.1805
  153DOPC  H13C18284   5.319   7.182  16.722 -0.7730 -0.0739 -0.2715
  153DOPC   C1418285   5.546   7.240  16.476  0.0548  0.3207 -0.4104
  153DOPC  H14A18286   5.628   7.278  16.535  2.0966  1.8716 -3.9374
  153DOPC  H14B18287   5.573   7.187  16.386  0.4963  0.7261 -0.5218
  153DOPC  H14C18288   5.488   7.327  16.450  1.3854  1.5128  0.4560
  153DOPC   C1518289   5.528   7.041  16.617  0.1771 -0.1704 -0.1530
  153DOPC  H15A18290   5.538   6.960  16.548 -0.1761  0.9061 -1.5075
  153DOPC  H15B18291   5.490   7.018  16.716  1.0808  2.2818  0.8624
  153DOPC  H15C18292   5.629   7.077  16.628  0.6433 -1.4076 -0.2880
  153DOPC   C1118293   5.371   7.050  16.330 -0.2998  0.5775  0.1451
  153DOPC  H11A18294   5.282   6.993  16.297 -0.2100  0.5709 -0.0815
  153DOPC  H11B18295   5.398   7.122  16.250 -1.8004 -0.2427 -1.1449
  153DOPC     P18296   5.593   6.925  16.260  0.1321  0.0491 -0.5252
  153DOPC   O1318297   5.637   6.786  16.287 -0.0939 -0.3809 -0.5301
  153DOPC   O1418298   5.685   7.032  16.296 -0.0974  0.2266  0.2856
  153DOPC   O1218299   5.468   6.949  16.353  0.3599  0.3117 -0.6070
  153DOPC   O1118300   5.543   6.950  16.116 -0.2179  0.1197 -0.8172
  153DOPC    C118301   5.452   6.871  16.038 -0.2732  0.5303  0.7822
  153DOPC    HA18302   5.382   6.934  15.979  1.2842  0.3158 -1.3976
  153DOPC    HB18303   5.394   6.804  16.104  0.7955 -0.9651  0.2701
  153DOPC    C218304   5.540   6.785  15.937  0.3936  0.1676  0.1485
  153DOPC    HS18305   5.616   6.730  15.996  0.7402 -2.1845 -2.2932
  153DOPC   O2118306   5.596   6.869  15.829  0.2705  0.1539 -0.0476
  153DOPC   C2118307   5.730   6.877  15.825  1.1843 -0.6275  0.0311
  153DOPC   O2218308   5.804   6.846  15.916  0.1611 -0.3916  0.0931
  153DOPC   C2218309   5.778   6.937  15.689  0.5870  0.7358  0.0660
  153DOPC   H2R18310   5.877   6.984  15.710 -0.8286  3.9250  0.2170
  153DOPC   H2S18311   5.700   7.012  15.662 -1.0861 -0.0979  2.2718
  153DOPC    C318312   5.450   6.674  15.871  0.3614 -0.0625 -1.3880
  153DOPC    HX18313   5.388   6.721  15.792 -2.3248 -0.2664  0.4797
  153DOPC    HY18314   5.382   6.646  15.954 -1.3877  1.3905 -2.2688
  153DOPC   O3118315   5.532   6.565  15.822  0.2351  0.4814  0.1902
  153DOPC   C3118316   5.464   6.453  15.801 -0.1976 -0.7493  0.2383
  153DOPC   O3218317   5.344   6.434  15.831  0.2706  0.2121  0.4215
  153DOPC   C3218318   5.549   6.359  15.714  1.0613  0.9632  0.3841
  153DOPC   H2X18319   5.581   6.415  15.624 -0.9627  1.7742  0.1225
  153DOPC   H2Y18320   5.635   6.332  15.779  0.2654 -0.0709  1.0433
  153DOPC   C2318321   5.788   6.823  15.583 -0.1153  0.3077 -0.4996
  153DOPC   H3R18322   5.847   6.741  15.628  1.0913 -0.4387 -3.2621
  153DOPC   H3S18323   5.858   6.847  15.500  3.1376 -2.8539  1.0467
  153DOPC   C2418324   5.656   6.764  15.532  0.0394 -0.9104 -0.2155
  153DOPC   H4R18325   5.594   6.844  15.486  0.6666 -0.7448 -0.7871
  153DOPC   H4S18326   5.607   6.723  15.623 -2.0246  1.6337 -0.0580
  153DOPC   C2518327   5.663   6.664  15.415  0.0934 -0.0144  0.2166
  153DOPC   H5R18328   5.557   6.642  15.393 -0.1926  0.9718  0.5863
  153DOPC   H5S18329   5.706   6.566  15.445  1.1191 -0.0800 -1.3318
  153DOPC   C2618330   5.724   6.717  15.276  0.4780  0.0774 -0.5719
  153DOPC   H6R18331   5.832   6.740  15.286  0.6557 -1.2674  1.0941
  153DOPC   H6S18332   5.672   6.814  15.260 -1.7117 -1.0464 -0.6746
  153DOPC   C2718333   5.705   6.617  15.164  0.2424 -0.3343  1.3695
  153DOPC   H7R18334   5.598   6.633  15.138  0.9686  1.4931 -0.8528
  153DOPC   H7S18335   5.721   6.519  15.214  2.1146 -0.6871  0.1753
  153DOPC   C2818336   5.789   6.620  15.033 -0.4350 -0.0896 -0.8863
  153DOPC   H8R18337   5.898   6.635  15.050 -0.3343 -0.1654 -1.4482
  153DOPC   H8S18338   5.758   6.712  14.979  1.5286 -0.5230 -2.8750
  153DOPC   C2918339   5.761   6.501  14.941  0.5201  0.0059 -0.4548
  153DOPC   H9R18340   5.680   6.529  14.872 -0.6476  2.2832  1.6656
  153DOPC  C21018341   5.830   6.386  14.924  0.3948 -0.2659  0.3084
  153DOPC  H10R18342   5.801   6.310  14.851 -1.9910 -1.1180  2.0281
  153DOPC  C21118343   5.956   6.355  15.006  0.1627  0.3867 -0.3831
  153DOPC  H11R18344   5.946   6.253  15.048  1.4060 -0.3155 -1.6874
  153DOPC  H11S18345   5.971   6.429  15.087 -0.8101  2.5736 -2.0795
  153DOPC  C21218346   6.083   6.364  14.921 -0.6713  0.3633  0.0175
  153DOPC  H12R18347   6.089   6.471  14.892 -1.4567  0.9768  1.9202
  153DOPC  H12S18348   6.084   6.299  14.831  2.1312  0.5916 -0.2051
  153DOPC  C21318349   6.204   6.323  15.003  0.0991 -0.1816  0.4594
  153DOPC  H13R18350   6.182   6.348  15.109 -3.0038 -0.8451  0.0364
  153DOPC  H13S18351   6.295   6.381  14.975  0.1489 -0.7141 -0.5191
  153DOPC  C21418352   6.247   6.176  14.995 -0.4263  0.4626 -0.2845
  153DOPC  H14R18353   6.288   6.154  14.894 -1.9591 -0.0445 -0.8286
  153DOPC  H14S18354   6.150   6.122  14.997 -0.4263  0.4472 -0.6386
  153DOPC  C21518355   6.346   6.131  15.107 -0.2194 -0.3184  0.0910
  153DOPC  H15R18356   6.320   6.174  15.206 -0.5583  0.2442 -0.2431
  153DOPC  H15S18357   6.435   6.190  15.077 -1.0308  2.0432  2.0170
  153DOPC  C21618358   6.376   5.982  15.103  0.2031  0.3528  0.2549
  153DOPC  H16R18359   6.396   5.945  15.000  0.7798  0.0216  0.4812
  153DOPC  H16S18360   6.285   5.933  15.144  1.4124 -2.7989 -0.5792
  153DOPC  C21718361   6.488   5.934  15.195  0.4840  0.0684  0.0037
  153DOPC  H17R18362   6.586   5.985  15.180  0.3685 -0.1522 -1.6478
  153DOPC  H17S18363   6.501   5.827  15.172 -1.2682 -0.5772  1.7288
  153DOPC  C21818364   6.458   5.959  15.346 -0.6911  0.1192  0.4351
  153DOPC  H18R18365   6.533   5.930  15.422 -1.1150  1.1711  1.2798
  153DOPC  H18S18366   6.366   5.901  15.371 -0.2321 -0.6187  0.4402
  153DOPC  H18T18367   6.439   6.067  15.362 -1.5400  0.0620 -0.1463
  153DOPC   C3318368   5.468   6.241  15.656  0.3372  0.2495  0.8091
  153DOPC   H3X18369   5.416   6.195  15.742 -1.1625 -0.1249 -0.2541
  153DOPC   H3Y18370   5.532   6.163  15.611 -0.8756 -1.4859  1.9869
  153DOPC   C3418371   5.364   6.279  15.552 -1.0078  0.4258  0.6209
  153DOPC   H4X18372   5.288   6.350  15.591 -1.5366 -0.8886  2.0352
  153DOPC   H4Y18373   5.322   6.187  15.507  0.3884 -1.2800  2.6361
  153DOPC   C3518374   5.429   6.343  15.424 -0.3194  0.0252 -0.8220
  153DOPC   H5X18375   5.522   6.288  15.398  0.5750  0.7614  0.6976
  153DOPC   H5Y18376   5.460   6.444  15.458  0.0146 -0.5810  0.7567
  153DOPC   C3618377   5.327   6.343  15.307 -0.5537  0.1099 -0.0175
  153DOPC   H6X18378   5.316   6.248  15.252  0.5724 -0.1663  0.2008
  153DOPC   H6Y18379   5.228   6.364  15.354 -1.4335 -1.0069 -1.2907
  153DOPC   C3718380   5.329   6.450  15.199 -0.1762  0.3428  0.3681
  153DOPC   H7X18381   5.224   6.465  15.165  0.1259  1.7202 -0.0519
  153DOPC   H7Y18382   5.370   6.544  15.241  0.0342  1.2584 -1.7238
  153DOPC   C3818383   5.433   6.419  15.094 -0.2140 -0.3130  0.5126
  153DOPC   H8X18384   5.531   6.417  15.146 -1.7317  0.1683  3.6808
  153DOPC   H8Y18385   5.442   6.496  15.014  2.4386 -0.4273  0.6217
  153DOPC   C3918386   5.415   6.292  15.014 -0.5617  0.3835 -0.0617
  153DOPC   H9X18387   5.321   6.283  14.958 -1.1438  0.8695  0.8121
  153DOPC  C31018388   5.503   6.192  15.005  0.1536 -0.0677  0.1211
  153DOPC  H10X18389   5.484   6.107  14.938  1.2349  0.6397 -1.1448
  153DOPC  C31118390   5.629   6.164  15.086  0.6413 -0.0304  0.8116
  153DOPC  H11X18391   5.658   6.231  15.170  1.2541  0.3608  0.2971
  153DOPC  H11Y18392   5.711   6.171  15.011  0.4533 -2.7239  0.2562
  153DOPC  C31218393   5.620   6.029  15.161  0.1390  0.0790  0.8375
  153DOPC  H12X18394   5.581   5.954  15.089 -2.2512  0.7901  1.2998
  153DOPC  H12Y18395   5.552   6.025  15.248  0.2788 -0.2486  0.9337
  153DOPC  C31318396   5.767   5.976  15.200  0.6132  0.3916 -0.1624
  153DOPC  H13X18397   5.823   6.043  15.270 -0.9148  1.9899 -0.4192
  153DOPC  H13Y18398   5.748   5.877  15.248 -3.7694  0.8463 -0.6352
  153DOPC  C31418399   5.863   5.961  15.074 -0.4700  0.5071 -0.1051
  153DOPC  H14X18400   5.909   6.060  15.051  1.8846 -0.5442 -0.1982
  153DOPC  H14Y18401   5.954   5.902  15.098  0.5716  1.8502 -0.6403
  153DOPC  C31518402   5.806   5.884  14.951 -0.1718 -0.2336  0.4316
  153DOPC  H15X18403   5.713   5.938  14.922  0.0667 -0.7894 -1.5555
  153DOPC  H15Y18404   5.770   5.785  14.985 -2.4738  0.5162  0.3699
  153DOPC  C31618405   5.909   5.871  14.840  1.1923 -0.5998  0.4186
  153DOPC  H16X18406   5.996   5.808  14.868  1.1429 -2.3336 -2.8028
  153DOPC  H16Y18407   5.851   5.801  14.775 -1.4748 -0.0569  2.0631
  153DOPC  C31718408   5.955   6.002  14.784  0.1016  0.8129  0.2272
  153DOPC  H17X18409   5.864   6.066  14.784 -0.0668  0.8041 -3.4178
  153DOPC  H17Y18410   6.026   6.059  14.848  0.1081  1.6923 -0.5461
  153DOPC  C31818411   6.008   6.000  14.640 -0.2958  0.4315 -0.5309
  153DOPC  H18X18412   6.015   6.103  14.600  1.2490  0.0914 -1.2125
  153DOPC  H18Y18413   6.103   5.942  14.640 -2.0501 -2.6832 -1.8539
  153DOPC  H18Z18414   5.945   5.949  14.564  0.7156 -0.0042 -1.0948
  154DOPC     N18415   6.031   4.548  16.154  0.1042  0.4996  0.0279
  154DOPC   C1218416   6.021   4.393  16.158  0.0029  0.2053  0.4058
  154DOPC  H12A18417   6.016   4.357  16.057 -0.4379 -0.7582  0.7617
  154DOPC  H12B18418   5.934   4.348  16.204  2.5603 -2.5460  3.0488
  154DOPC   C1318419   6.152   4.580  16.080 -0.6661 -0.0275 -0.5905
  154DOPC  H13A18420   6.234   4.537  16.136 -1.1508 -1.0898 -0.6710
  154DOPC  H13B18421   6.157   4.545  15.978 -0.4934 -4.1111  0.6204
  154DOPC  H13C18422   6.174   4.685  16.089 -0.0059 -0.1983 -0.0239
  154DOPC   C1418423   6.036   4.614  16.287 -0.4488  0.1982 -0.5346
  154DOPC  H14A18424   5.947   4.594  16.346 -0.1533  0.5139  0.0230
  154DOPC  H14B18425   6.119   4.584  16.349 -0.1270  1.1323 -0.4977
  154DOPC  H14C18426   6.042   4.721  16.278 -1.0781  0.1296 -2.1284
  154DOPC   C1518427   5.907   4.606  16.100  0.3182  0.5788  0.4280
  154DOPC  H15A18428   5.820   4.565  16.150  1.1118 -0.5483  0.9368
  154DOPC  H15B18429   5.891   4.573  15.999 -2.6710 -0.5192  1.1513
  154DOPC  H15C18430   5.915   4.714  16.104 -1.0181  0.8435 -2.0972
  154DOPC   C1118431   6.134   4.313  16.231 -0.1059  0.2342  0.2422
  154DOPC  H11A18432   6.125   4.333  16.340  0.8848  1.1644  0.1622
  154DOPC  H11B18433   6.122   4.206  16.203  2.3708  0.3136 -1.4614
  154DOPC     P18434   6.364   4.291  16.093  0.1180 -0.0567 -0.0030
  154DOPC   O1318435   6.403   4.162  16.144  0.2397  0.2891 -0.4025
  154DOPC   O1418436   6.480   4.378  16.061 -0.8334  0.2980 -0.1690
  154DOPC   O1218437   6.270   4.359  16.196  0.0298  0.3558 -0.5233
  154DOPC   O1118438   6.272   4.280  15.973  0.4729 -0.0358  0.0131
  154DOPC    C118439   6.314   4.218  15.852 -0.2016 -0.6639 -0.3216
  154DOPC    HA18440   6.346   4.113  15.872  0.6860 -0.4803 -0.7299
  154DOPC    HB18441   6.402   4.269  15.807  0.5272 -0.6769  1.0304
  154DOPC    C218442   6.206   4.209  15.743 -0.0788 -0.4452 -0.0589
  154DOPC    HS18443   6.116   4.156  15.782 -0.7273  0.8742  0.2861
  154DOPC   O2118444   6.260   4.124  15.641 -0.3486 -0.7386 -0.0239
  154DOPC   C2118445   6.186   4.078  15.546 -0.6304  0.4862 -0.1370
  154DOPC   O2218446   6.069   4.110  15.528 -0.1467  0.4916  0.5354
  154DOPC   C2218447   6.264   3.980  15.463  0.1133  0.3721  0.0018
  154DOPC   H2R18448   6.200   3.889  15.453 -0.0278  0.3842  0.7042
  154DOPC   H2S18449   6.341   3.947  15.536 -0.0151  0.0965  0.0165
  154DOPC    C318450   6.169   4.354  15.701 -0.3691 -0.0148  0.2436
  154DOPC    HX18451   6.121   4.400  15.790  1.5126 -0.7496  1.7339
  154DOPC    HY18452   6.100   4.332  15.618  2.0531 -0.7455 -1.7014
  154DOPC   O3118453   6.280   4.438  15.656  0.0031  0.3122  0.2042
  154DOPC   C3118454   6.287   4.567  15.696  0.1910  0.2378  0.4086
  154DOPC   O3218455   6.199   4.631  15.741 -0.2644  0.7966  0.1208
  154DOPC   C3218456   6.436   4.610  15.676 -0.4179 -0.4260  0.6024
  154DOPC   H2X18457   6.449   4.717  15.701 -0.3511  0.2423 -1.9932
  154DOPC   H2Y18458   6.496   4.545  15.743  0.4824  0.5707  0.7858
  154DOPC   C2318459   6.327   4.039  15.336  0.5437 -0.1294 -0.3335
  154DOPC   H3R18460   6.251   4.039  15.255 -2.4060 -2.0139  2.1781
  154DOPC   H3S18461   6.402   3.963  15.307 -0.1175  0.3053 -3.4596
  154DOPC   C2418462   6.396   4.171  15.341 -0.3600  0.6951 -0.7642
  154DOPC   H4R18463   6.326   4.238  15.397  0.5418 -0.7671  2.3319
  154DOPC   H4S18464   6.405   4.229  15.247  1.5222  1.8590  0.0825
  154DOPC   C2518465   6.527   4.176  15.426  0.1212 -0.1044 -0.0296
  154DOPC   H5R18466   6.509   4.110  15.513  1.2902  1.0394  1.1314
  154DOPC   H5S18467   6.549   4.276  15.469  0.9001 -1.5350  3.1852
  154DOPC   C2618468   6.644   4.119  15.346 -0.3178  0.0520  0.3220
  154DOPC   H6R18469   6.639   4.169  15.247  0.6823 -1.3981 -0.5184
  154DOPC   H6S18470   6.639   4.009  15.328 -1.8774 -0.2060  2.0610
  154DOPC   C2718471   6.782   4.138  15.414  0.1685  0.1453 -0.1153
  154DOPC   H7R18472   6.756   4.102  15.516 -2.7802 -0.6451 -1.0319
  154DOPC   H7S18473   6.808   4.246  15.415 -1.5859  0.6592 -2.4969
  154DOPC   C2818474   6.891   4.049  15.353  0.0316  0.4109 -0.1470
  154DOPC   H8R18475   6.987   4.065  15.407  0.8231  0.1161 -1.4101
  154DOPC   H8S18476   6.914   4.079  15.248  0.6695  0.7618  0.0860
  154DOPC   C2918477   6.864   3.904  15.369  0.9089  0.5275 -0.5835
  154DOPC   H9R18478   6.834   3.868  15.469 -2.0486  0.0433 -1.5418
  154DOPC  C21018479   6.864   3.809  15.270  0.0835  0.3562 -0.2129
  154DOPC  H10R18480   6.824   3.710  15.296  2.6474  0.1298  3.8414
  154DOPC  C21118481   6.879   3.827  15.118  0.2548 -0.2157 -0.1818
  154DOPC  H11R18482   6.890   3.932  15.084 -2.0158  0.0661 -0.1860
  154DOPC  H11S18483   6.789   3.781  15.073  0.4061  2.1041 -3.1842
  154DOPC  C21218484   6.998   3.749  15.051 -0.2618 -0.2996 -0.5284
  154DOPC  H12R18485   7.015   3.781  14.946  1.2212 -0.9948 -0.5229
  154DOPC  H12S18486   6.983   3.640  15.060  1.0295 -0.7053 -2.6641
  154DOPC  C21318487   7.140   3.777  15.114  0.0621  0.1064 -0.8988
  154DOPC  H13R18488   7.221   3.719  15.065 -2.1307 -3.7309 -0.3180
  154DOPC  H13S18489   7.135   3.745  15.220 -0.3403 -1.0597 -1.2595
  154DOPC  C21418490   7.186   3.926  15.109 -0.0707 -0.2701 -0.0078
  154DOPC  H14R18491   7.099   3.983  15.149 -0.5181 -1.6338  0.9905
  154DOPC  H14S18492   7.196   3.952  15.001 -2.0250 -2.3227 -0.7798
  154DOPC  C21518493   7.310   3.974  15.186  0.2819 -0.3026  0.7733
  154DOPC  H15R18494   7.316   3.910  15.277 -0.6522 -0.0503  1.0284
  154DOPC  H15S18495   7.281   4.078  15.211 -3.2182 -1.3846  1.9670
  154DOPC  C21618496   7.430   3.966  15.103 -0.6226  0.2320  0.4315
  154DOPC  H16R18497   7.457   3.859  15.089  1.2163  0.8283 -1.0306
  154DOPC  H16S18498   7.513   4.014  15.160  0.1021  1.2897 -1.4461
  154DOPC  C21718499   7.437   4.061  14.984 -0.5533  0.2503  0.8032
  154DOPC  H17R18500   7.425   4.167  15.015 -0.1578 -0.0396  1.9833
  154DOPC  H17S18501   7.361   4.038  14.906  1.2680  2.1697 -1.7591
  154DOPC  C21818502   7.567   4.048  14.905 -0.4583  0.5886 -0.0790
  154DOPC  H18R18503   7.567   4.101  14.808 -0.6172 -1.0420 -1.0022
  154DOPC  H18S18504   7.585   3.942  14.878 -1.3672  0.1014  1.1476
  154DOPC  H18T18505   7.654   4.082  14.966 -0.2752 -0.6828  0.3988
  154DOPC   C3318506   6.478   4.615  15.525  0.5315  0.4394  0.1081
  154DOPC   H3X18507   6.416   4.695  15.479 -1.5935 -0.7517  0.7671
  154DOPC   H3Y18508   6.457   4.513  15.487  1.2541  0.1499  0.4747
  154DOPC   C3418509   6.622   4.665  15.505  1.0332  0.4518 -0.2037
  154DOPC   H4X18510   6.697   4.591  15.538  0.9015 -1.1616 -3.1718
  154DOPC   H4Y18511   6.637   4.767  15.546  0.5504  0.3495  0.2324
  154DOPC   C3518512   6.655   4.678  15.359  0.2242 -0.3635  0.2898
  154DOPC   H5X18513   6.589   4.744  15.299 -0.0158  1.5724  2.5514
  154DOPC   H5Y18514   6.653   4.574  15.319 -4.4872 -0.0942 -0.7880
  154DOPC   C3618515   6.793   4.744  15.347  0.1483 -0.0758  0.1585
  154DOPC   H6X18516   6.789   4.841  15.401 -0.4120  1.2670 -2.1490
  154DOPC   H6Y18517   6.871   4.683  15.397  1.3133  0.2398 -1.2424
  154DOPC   C3718518   6.845   4.770  15.205  0.7155 -0.2002 -0.1791
  154DOPC   H7X18519   6.782   4.854  15.167  0.1291  0.9385  2.9289
  154DOPC   H7Y18520   6.938   4.830  15.207 -0.0302  1.1282 -2.1566
  154DOPC   C3818521   6.869   4.640  15.122  0.4704  0.2858  0.0475
  154DOPC   H8X18522   6.860   4.657  15.013  0.7291  2.0725  0.2836
  154DOPC   H8Y18523   6.797   4.558  15.141  0.6859 -0.5090 -2.2503
  154DOPC   C3918524   7.012   4.591  15.150 -0.1372  0.2069 -0.9551
  154DOPC   H9X18525   7.088   4.670  15.160  0.1483 -0.1751  0.0106
  154DOPC  C31018526   7.054   4.464  15.148 -0.3516  0.3930  0.3616
  154DOPC  H10X18527   7.162   4.444  15.161 -0.2175 -0.6573 -1.8576
  154DOPC  C31118528   6.972   4.340  15.127 -0.1071  0.9028  0.2701
  154DOPC  H11X18529   6.870   4.356  15.167 -0.4386  1.0780 -0.6242
  154DOPC  H11Y18530   7.013   4.257  15.188 -0.1246  1.6502  1.3259
  154DOPC  C31218531   6.962   4.305  14.982 -0.4240 -0.0209  0.1540
  154DOPC  H12X18532   6.906   4.384  14.927  0.5518  1.2185  0.8920
  154DOPC  H12Y18533   6.906   4.212  14.959  1.9825 -0.9910 -2.2680
  154DOPC  C31318534   7.102   4.300  14.903 -0.1064 -0.6291  0.5451
  154DOPC  H13X18535   7.168   4.385  14.927  1.6205 -2.1934  1.5624
  154DOPC  H13Y18536   7.152   4.207  14.938 -0.5592 -1.1286 -0.1125
  154DOPC  C31418537   7.076   4.283  14.750  0.5016 -0.3191  0.3818
  154DOPC  H14X18538   7.119   4.186  14.719  0.1128 -0.5535  0.5782
  154DOPC  H14Y18539   6.967   4.285  14.729  0.1913 -0.4844  1.9178
  154DOPC  C31518540   7.135   4.406  14.673  0.2971 -0.2532 -0.1596
  154DOPC  H15X18541   7.240   4.423  14.704  0.6503 -0.8868 -0.9831
  154DOPC  H15Y18542   7.073   4.495  14.699 -1.2758 -1.3710  0.0248
  154DOPC  C31618543   7.147   4.399  14.518 -0.5791 -0.2048 -0.3942
  154DOPC  H16X18544   7.043   4.398  14.479 -0.9995  1.9388  0.5388
  154DOPC  H16Y18545   7.189   4.496  14.484 -0.8237 -0.3100 -1.0139
  154DOPC  C31718546   7.232   4.290  14.457 -0.0751  0.2065  0.2507
  154DOPC  H17X18547   7.320   4.274  14.524  0.6750  0.0539 -0.7593
  154DOPC  H17Y18548   7.180   4.193  14.443  0.0077  0.4741 -2.2094
  154DOPC  C31818549   7.285   4.316  14.316 -0.2698  0.3412 -0.1800
  154DOPC  H18X18550   7.205   4.352  14.247  0.7960  0.1635 -1.5599
  154DOPC  H18Y18551   7.345   4.407  14.334 -2.2445  1.5617  0.5093
  154DOPC  H18Z18552   7.334   4.226  14.273  1.6633  1.7500 -1.0362
  155DOPC     N18553   2.011   2.715  16.482  0.1550  0.0260 -0.1326
  155DOPC   C1218554   1.940   2.773  16.360 -0.4820  0.2713 -0.0395
  155DOPC  H12A18555   2.016   2.821  16.300  2.0633 -0.5078  2.3388
  155DOPC  H12B18556   1.874   2.846  16.404 -1.1441 -1.3250  1.7424
  155DOPC   C1318557   2.066   2.825  16.563  0.3090 -0.6957  0.2513
  155DOPC  H13A18558   2.086   2.779  16.659  0.0563 -2.2106 -0.3922
  155DOPC  H13B18559   2.159   2.869  16.531 -0.5137  0.3829 -0.7231
  155DOPC  H13C18560   1.984   2.892  16.586 -0.1226 -0.6744 -1.2184
  155DOPC   C1418561   2.132   2.636  16.446 -0.7735  0.2882  0.7667
  155DOPC  H14A18562   2.109   2.572  16.362  0.4593 -0.7214  1.1766
  155DOPC  H14B18563   2.196   2.709  16.401  1.8303 -0.5328  2.8638
  155DOPC  H14C18564   2.185   2.591  16.528 -1.2838  1.2711  1.6570
  155DOPC   C1518565   1.905   2.655  16.567  0.6500  0.1588  0.1615
  155DOPC  H15A18566   1.837   2.592  16.511 -0.5777  0.8655  0.8243
  155DOPC  H15B18567   1.841   2.730  16.609 -0.1348 -0.9173  0.9394
  155DOPC  H15C18568   1.946   2.603  16.652  0.7588  1.1031  0.6954
  155DOPC   C1118569   1.862   2.677  16.265 -0.1757 -0.0659 -0.1590
  155DOPC  H11A18570   1.795   2.614  16.327 -0.5803  0.4448 -0.0771
  155DOPC  H11B18571   1.792   2.730  16.198 -1.5488 -0.8725  0.5861
  155DOPC     P18572   2.043   2.657  16.074  0.1812 -0.0456 -0.4462
  155DOPC   O1318573   2.145   2.555  16.044 -0.5767 -0.5934 -0.6509
  155DOPC   O1418574   2.096   2.790  16.116  0.4901 -0.1511  0.1948
  155DOPC   O1218575   1.958   2.599  16.189  0.4977  0.0672  0.1036
  155DOPC   O1118576   1.950   2.674  15.946  0.3025  0.5610  0.4511
  155DOPC    C118577   1.849   2.578  15.910  0.0627  0.6233 -0.1106
  155DOPC    HA18578   1.746   2.597  15.945  0.1032 -0.6279  0.7626
  155DOPC    HB18579   1.866   2.473  15.942 -1.7851  0.1019 -0.7277
  155DOPC    C218580   1.839   2.562  15.754  0.1281 -0.1804 -0.0542
  155DOPC    HS18581   1.942   2.542  15.715 -0.2744 -0.1226 -1.1777
  155DOPC   O2118582   1.795   2.681  15.693  0.4147 -0.7843  0.0263
  155DOPC   C2118583   1.850   2.717  15.575 -0.4141  0.0036  0.1720
  155DOPC   O2218584   1.943   2.658  15.523  0.7337  0.2235  0.4874
  155DOPC   C2218585   1.774   2.835  15.522  0.5811  0.2113 -0.7334
  155DOPC   H2R18586   1.810   2.911  15.594  0.9663 -1.7992  1.2992
  155DOPC   H2S18587   1.664   2.824  15.523  0.7745 -2.4329  0.1606
  155DOPC    C318588   1.743   2.439  15.711 -0.2450 -0.5345  0.2784
  155DOPC    HX18589   1.639   2.476  15.718 -0.1499 -0.2643  0.2777
  155DOPC    HY18590   1.761   2.357  15.783  3.2051 -0.9772 -0.9170
  155DOPC   O3118591   1.764   2.398  15.572  0.4544  0.2245 -0.3757
  155DOPC   C3118592   1.873   2.327  15.553 -0.0909  0.0900  0.2833
  155DOPC   O3218593   1.952   2.303  15.643 -0.1587 -0.6444 -0.0410
  155DOPC   C3218594   1.880   2.284  15.410 -0.8070  0.1284  0.3835
  155DOPC   H2X18595   1.885   2.173  15.406 -1.6497  0.0907  0.1779
  155DOPC   H2Y18596   1.785   2.318  15.364 -1.5307 -0.5545  1.3364
  155DOPC   C2318597   1.817   2.877  15.383 -0.4598  0.4158  0.5628
  155DOPC   H3R18598   1.926   2.899  15.387 -0.3527  0.3998 -1.3694
  155DOPC   H3S18599   1.763   2.972  15.367  0.0779  0.5877 -0.2624
  155DOPC   C2418600   1.763   2.797  15.267  0.3517  0.3548  0.2135
  155DOPC   H4R18601   1.652   2.791  15.275  0.4110  1.1112  2.0484
  155DOPC   H4S18602   1.805   2.694  15.272 -0.4379  0.0129 -0.0679
  155DOPC   C2518603   1.796   2.864  15.131  0.2279 -0.1412 -0.2024
  155DOPC   H5R18604   1.757   2.793  15.055  0.0816 -1.8042  1.3285
  155DOPC   H5S18605   1.904   2.877  15.110  0.6335  0.4117  1.9947
  155DOPC   C2618606   1.723   2.996  15.093  0.1956 -0.3315  0.0528
  155DOPC   H6R18607   1.748   3.085  15.155 -0.6390  0.4908 -0.7533
  155DOPC   H6S18608   1.613   2.981  15.104  0.2280 -1.4129 -0.9357
  155DOPC   C2718609   1.758   3.040  14.945  0.0931 -0.6485 -0.2352
  155DOPC   H7R18610   1.713   2.959  14.884 -0.8241 -0.7232  0.5181
  155DOPC   H7S18611   1.864   3.018  14.918  0.1801  0.3908 -0.7822
  155DOPC   C2818612   1.721   3.181  14.890  0.2702 -0.7527 -0.0378
  155DOPC   H8R18613   1.733   3.166  14.781 -0.8592 -0.8373 -0.1693
  155DOPC   H8S18614   1.800   3.253  14.921 -0.7863 -0.5716  2.4870
  155DOPC   C2918615   1.585   3.227  14.921  0.6804  0.8044 -1.0867
  155DOPC   H9R18616   1.576   3.303  15.000  0.9264  0.6954 -0.9517
  155DOPC  C21018617   1.472   3.179  14.864  0.2439 -0.1505 -0.7818
  155DOPC  H10R18618   1.376   3.228  14.883  0.0588 -0.8283  0.1009
  155DOPC  C21118619   1.463   3.077  14.752 -0.4319  0.3375  0.4852
  155DOPC  H11R18620   1.409   2.991  14.798 -0.3952  0.6156  1.0660
  155DOPC  H11S18621   1.558   3.034  14.715  0.5785  1.6126  1.4774
  155DOPC  C21218622   1.390   3.124  14.627 -0.4186 -0.0627 -0.1483
  155DOPC  H12R18623   1.390   3.037  14.558  0.5191 -0.7049  0.6417
  155DOPC  H12S18624   1.448   3.205  14.579  0.6910 -0.7701 -0.0200
  155DOPC  C21318625   1.250   3.154  14.663  0.0316 -0.0517 -0.5462
  155DOPC  H13R18626   1.231   3.224  14.748 -2.6366 -2.4051  1.0006
  155DOPC  H13S18627   1.198   3.060  14.691  1.1140 -1.1358 -2.0373
  155DOPC  C21418628   1.170   3.188  14.537 -0.0036 -0.1761  0.3580
  155DOPC  H14R18629   1.189   3.114  14.456 -1.5682 -0.9435  0.6681
  155DOPC  H14S18630   1.214   3.281  14.494  0.2958 -1.0123 -1.2086
  155DOPC  C21518631   1.029   3.217  14.575 -0.4880  0.1400  0.3201
  155DOPC  H15R18632   1.036   3.281  14.665  0.4742  0.6399 -0.1005
  155DOPC  H15S18633   0.973   3.124  14.599 -2.8060  1.6235  0.9789
  155DOPC  C21618634   0.949   3.286  14.468  0.4995  0.2399  0.2598
  155DOPC  H16R18635   0.945   3.232  14.371  2.3768 -0.8668  0.7570
  155DOPC  H16S18636   0.993   3.383  14.435 -1.8675  1.4377  0.3753
  155DOPC  C21718637   0.808   3.318  14.520  0.5553  0.2918  0.1008
  155DOPC  H17R18638   0.806   3.424  14.551  1.0992  0.3431 -0.0222
  155DOPC  H17S18639   0.781   3.271  14.617 -0.2586  2.6248  1.0843
  155DOPC  C21818640   0.702   3.297  14.408 -0.3019  0.1206 -0.0949
  155DOPC  H18R18641   0.741   3.317  14.306 -1.9161 -0.2948 -0.8297
  155DOPC  H18S18642   0.618   3.368  14.425 -1.7567 -1.1596 -1.6770
  155DOPC  H18T18643   0.659   3.195  14.414 -0.1785  0.0851  0.2399
  155DOPC   C3318644   2.004   2.359  15.354  0.5326 -0.2722  0.2541
  155DOPC   H3X18645   2.080   2.382  15.432 -0.3988  0.9432  0.8307
  155DOPC   H3Y18646   1.981   2.458  15.309  1.9038  0.2478  0.6395
  155DOPC   C3418647   2.069   2.275  15.243  0.2865 -0.9362  0.0783
  155DOPC   H4X18648   1.998   2.275  15.158 -3.0550 -1.8700  2.6362
  155DOPC   H4Y18649   2.094   2.171  15.272  0.9694 -0.2938  1.9665
  155DOPC   C3518650   2.204   2.333  15.198 -0.2997 -0.4937  0.0512
  155DOPC   H5X18651   2.269   2.344  15.288 -2.2631 -2.7024  1.8777
  155DOPC   H5Y18652   2.188   2.429  15.144  1.0931  0.4087  1.1568
  155DOPC   C3618653   2.294   2.241  15.105  0.5898 -0.3289 -0.0921
  155DOPC   H6X18654   2.329   2.149  15.156  1.4698  0.1433  0.1685
  155DOPC   H6Y18655   2.243   2.216  15.009  1.7484  0.3106 -0.9165
  155DOPC   C3718656   2.419   2.327  15.058  0.6985  0.5212 -0.2294
  155DOPC   H7X18657   2.379   2.391  14.976  1.2028  2.0274  0.6609
  155DOPC   H7Y18658   2.439   2.376  15.155 -4.1162  1.9210  0.2940
  155DOPC   C3818659   2.540   2.239  15.011 -0.2628  0.4014 -0.2811
  155DOPC   H8X18660   2.608   2.307  14.956  0.2869 -0.2178 -0.3936
  155DOPC   H8Y18661   2.505   2.162  14.938 -1.4691 -0.7643  1.4399
  155DOPC   C3918662   2.599   2.160  15.122 -0.3983  1.1287 -0.4028
  155DOPC   H9X18663   2.616   2.215  15.215  0.1079 -1.2623  0.9874
  155DOPC  C31018664   2.614   2.028  15.125  0.1053  0.6047 -0.2588
  155DOPC  H10X18665   2.650   1.978  15.217  1.9142 -0.5198 -1.5046
  155DOPC  C31118666   2.595   1.930  15.015 -0.5913  0.2221 -0.0739
  155DOPC  H11X18667   2.574   1.976  14.916 -2.6123 -0.3212  0.0584
  155DOPC  H11Y18668   2.512   1.857  15.024  1.1861 -2.4016 -2.8926
  155DOPC  C31218669   2.719   1.843  15.002 -0.6465 -0.1203 -0.2027
  155DOPC  H12X18670   2.816   1.888  14.973  0.0230 -1.7147 -0.5839
  155DOPC  H12Y18671   2.706   1.764  14.925  0.7995 -2.4379  1.7744
  155DOPC  C31318672   2.760   1.763  15.131  0.6065 -0.6776 -0.2762
  155DOPC  H13X18673   2.802   1.833  15.206  1.7200 -0.0389 -1.4515
  155DOPC  H13Y18674   2.662   1.718  15.158  1.0818 -1.4520  0.2160
  155DOPC  C31418675   2.867   1.657  15.117 -0.2519 -0.3709 -0.2551
  155DOPC  H14X18676   2.833   1.575  15.050 -2.7307  0.3055  0.0761
  155DOPC  H14Y18677   2.962   1.701  15.081  0.0445  1.0127  2.0144
  155DOPC  C31518678   2.902   1.588  15.247  0.1040 -0.2819  0.7225
  155DOPC  H15X18679   2.806   1.540  15.274 -0.0006  0.5185  1.8930
  155DOPC  H15Y18680   2.916   1.661  15.330 -1.1448  0.3065  0.4425
  155DOPC  C31618681   3.020   1.489  15.250 -0.2804  0.4077 -0.1689
  155DOPC  H16X18682   3.106   1.557  15.234 -0.7287  0.5471 -2.2352
  155DOPC  H16Y18683   3.028   1.449  15.354 -0.2641  1.6994  0.3432
  155DOPC  C31718684   3.022   1.395  15.129  0.7853 -0.0285 -0.3053
  155DOPC  H17X18685   2.925   1.341  15.136  0.6730  0.3376  1.5439
  155DOPC  H17Y18686   3.029   1.452  15.035  1.7201 -0.8992 -0.7873
  155DOPC  C31818687   3.139   1.295  15.136  0.0432 -0.0758  0.5646
  155DOPC  H18X18688   3.132   1.234  15.229  0.5932 -1.0029  0.0176
  155DOPC  H18Y18689   3.147   1.207  15.068  2.3287 -0.2980  1.0523
  155DOPC  H18Z18690   3.235   1.349  15.148 -1.5245  3.4059 -1.1588
  156DOPC     N18691   4.668   5.593  16.542 -0.0723  0.3840 -0.1852
  156DOPC   C1218692   4.654   5.530  16.405  0.1556 -0.4518  0.6253
  156DOPC  H12A18693   4.552   5.550  16.375  1.4324  2.9029 -2.1362
  156DOPC  H12B18694   4.669   5.424  16.416 -0.0872 -0.3990  1.5557
  156DOPC   C1318695   4.576   5.532  16.645  1.0607  0.0241 -0.3386
  156DOPC  H13A18696   4.596   5.584  16.737  1.5382 -1.4002  0.3837
  156DOPC  H13B18697   4.474   5.553  16.617  0.1331 -0.8024  2.1579
  156DOPC  H13C18698   4.593   5.427  16.663  0.1245 -0.2229 -0.8218
  156DOPC   C1418699   4.646   5.740  16.536 -0.1575  0.3705 -0.0766
  156DOPC  H14A18700   4.588   5.769  16.623  0.7132  0.0474  0.6267
  156DOPC  H14B18701   4.733   5.803  16.546 -0.7347  1.3570 -0.9781
  156DOPC  H14C18702   4.601   5.766  16.441 -0.3718 -0.7400 -0.2951
  156DOPC   C1518703   4.807   5.568  16.602  0.2963  0.4458 -0.1800
  156DOPC  H15A18704   4.877   5.586  16.522 -1.4722 -0.6761 -2.0793
  156DOPC  H15B18705   4.808   5.464  16.633  1.1934  0.7786  0.9776
  156DOPC  H15C18706   4.828   5.643  16.677  1.5184  0.3508 -0.3930
  156DOPC   C1118707   4.744   5.586  16.290  0.4492 -0.1290  0.0029
  156DOPC  H11A18708   4.707   5.562  16.188 -1.2414 -0.3662  0.6376
  156DOPC  H11B18709   4.740   5.696  16.303 -0.8122 -0.1208 -0.3072
  156DOPC     P18710   4.909   5.394  16.242 -0.4364 -0.2602 -0.1121
  156DOPC   O1318711   4.791   5.305  16.274 -0.4793 -0.1049 -0.1146
  156DOPC   O1418712   5.052   5.350  16.267 -0.0568  0.0805 -0.0114
  156DOPC   O1218713   4.876   5.532  16.312 -0.4681 -0.1751 -0.2739
  156DOPC   O1118714   4.892   5.423  16.081  0.1458  0.5944  0.0842
  156DOPC    C118715   4.955   5.538  16.025  0.5399  0.6097 -0.6498
  156DOPC    HA18716   5.058   5.505  16.000  0.0965 -1.8428  0.4016
  156DOPC    HB18717   4.967   5.613  16.106 -0.8904 -0.2903  0.4559
  156DOPC    C218718   4.877   5.592  15.903  0.4449 -0.1569  0.0446
  156DOPC    HS18719   4.770   5.614  15.922 -0.1479  0.6968 -3.6125
  156DOPC   O2118720   4.889   5.493  15.800 -0.6631 -0.0768  0.3128
  156DOPC   C2118721   4.798   5.505  15.700  0.0091  0.0725  0.2388
  156DOPC   O2218722   4.715   5.595  15.689  0.2603  0.4684 -0.2811
  156DOPC   C2218723   4.806   5.404  15.590 -0.0676  0.1760  0.0919
  156DOPC   H2R18724   4.699   5.403  15.560  0.2496  2.6765 -1.4844
  156DOPC   H2S18725   4.834   5.302  15.621 -1.3629 -0.0952  0.4285
  156DOPC    C318726   4.943   5.724  15.859  0.3526 -0.3434 -0.3533
  156DOPC    HX18727   4.945   5.796  15.943  1.5207 -0.5609 -0.1700
  156DOPC    HY18728   4.885   5.773  15.778 -0.4538  1.2127  1.1125
  156DOPC   O3118729   5.070   5.710  15.806 -0.0268 -0.0218 -0.6320
  156DOPC   C3118730   5.137   5.816  15.772  0.5083  0.1808 -0.0491
  156DOPC   O3218731   5.094   5.929  15.787 -0.2231  0.6706 -0.4285
  156DOPC   C3218732   5.269   5.779  15.697 -0.0056 -0.5356  0.6340
  156DOPC   H2X18733   5.285   5.672  15.724  2.1928 -0.1090  1.1793
  156DOPC   H2Y18734   5.241   5.790  15.590 -3.1993 -1.6111  1.2364
  156DOPC   C2318735   4.879   5.457  15.473  0.6331  0.4557 -0.0515
  156DOPC   H3R18736   4.863   5.566  15.461  3.3443  1.0237  0.7699
  156DOPC   H3S18737   4.861   5.393  15.384  0.1146  0.4973  0.0247
  156DOPC   C2418738   5.026   5.430  15.493  0.0165  0.6242  0.0979
  156DOPC   H4R18739   5.052   5.331  15.537 -0.0042 -0.0184 -1.2954
  156DOPC   H4S18740   5.072   5.500  15.565  0.5467  0.1634  0.2137
  156DOPC   C2518741   5.114   5.447  15.368 -0.1769 -0.4504  1.0258
  156DOPC   H5R18742   5.105   5.550  15.329  2.0336  0.3210  2.3467
  156DOPC   H5S18743   5.094   5.386  15.278  2.6958  0.3027 -0.2288
  156DOPC   C2618744   5.260   5.435  15.414 -0.9380 -0.7071  0.1287
  156DOPC   H6R18745   5.287   5.330  15.435 -1.4242 -0.8974 -0.1918
  156DOPC   H6S18746   5.277   5.497  15.505  0.0216  1.5652 -1.4803
  156DOPC   C2718747   5.361   5.503  15.325 -0.2725 -0.4725  0.6444
  156DOPC   H7R18748   5.315   5.585  15.265  0.7586 -1.4389 -1.6047
  156DOPC   H7S18749   5.376   5.428  15.244 -1.2169  0.9440 -0.9272
  156DOPC   C2818750   5.484   5.540  15.399 -0.1614  0.2933 -0.8131
  156DOPC   H8R18751   5.519   5.449  15.453 -0.0199  1.2860  0.8232
  156DOPC   H8S18752   5.462   5.615  15.478 -2.4675 -2.0051  0.8824
  156DOPC   C2918753   5.590   5.599  15.304  0.5162  0.1680 -0.0436
  156DOPC   H9R18754   5.577   5.699  15.262 -1.5487  0.7015  1.7296
  156DOPC  C21018755   5.707   5.533  15.271  0.1275 -0.1739 -0.3005
  156DOPC  H10R18756   5.788   5.580  15.213 -0.6027 -1.2984 -2.3111
  156DOPC  C21118757   5.738   5.392  15.312  0.3053  0.1459 -0.1356
  156DOPC  H11R18758   5.795   5.329  15.240  0.9262 -0.5440  0.9411
  156DOPC  H11S18759   5.643   5.339  15.332  0.7887  0.4615  3.6739
  156DOPC  C21218760   5.809   5.388  15.451 -0.3143  0.0891 -0.0510
  156DOPC  H12R18761   5.775   5.474  15.513 -1.3274  0.0175 -0.4904
  156DOPC  H12S18762   5.919   5.395  15.435 -0.5979  1.0311 -1.9403
  156DOPC  C21318763   5.776   5.262  15.525  0.3307  0.3870 -0.5937
  156DOPC  H13R18764   5.800   5.183  15.451 -1.2471 -1.2693  0.5750
  156DOPC  H13S18765   5.668   5.252  15.551  1.1410 -0.9283  2.7512
  156DOPC  C21418766   5.861   5.246  15.648 -0.3204 -0.1430 -0.1440
  156DOPC  H14R18767   5.968   5.251  15.618  0.0238  0.6641  1.1142
  156DOPC  H14S18768   5.829   5.149  15.691 -0.9227  0.1141 -0.0022
  156DOPC  C21518769   5.845   5.362  15.748  0.4194 -0.1513 -1.0476
  156DOPC  H15R18770   5.883   5.458  15.708  1.1380  1.0186  2.1471
  156DOPC  H15S18771   5.913   5.336  15.832 -0.5440 -0.9057 -0.4798
  156DOPC  C21618772   5.704   5.370  15.795  0.8991  0.5781 -0.5458
  156DOPC  H16R18773   5.663   5.270  15.820 -0.2441  0.8645 -1.1836
  156DOPC  H16S18774   5.636   5.400  15.712 -1.5800 -1.8690  0.4388
  156DOPC  C21718775   5.682   5.470  15.908 -0.1532 -0.1420  0.3500
  156DOPC  H17R18776   5.748   5.559  15.893  1.3238 -0.9476  1.7780
  156DOPC  H17S18777   5.734   5.418  15.991 -1.4972 -1.0211  0.6686
  156DOPC  C21818778   5.533   5.484  15.932  0.4946 -0.0260 -0.7021
  156DOPC  H18R18779   5.498   5.380  15.950 -1.0566 -0.0310 -3.3344
  156DOPC  H18S18780   5.472   5.516  15.845 -0.0482 -0.6912 -0.5761
  156DOPC  H18T18781   5.516   5.551  16.019 -0.4365 -0.0753 -0.8380
  156DOPC   C3318782   5.390   5.863  15.753  0.3310  0.1045 -0.4794
  156DOPC   H3X18783   5.401   5.847  15.863 -0.9607  0.0436 -0.3338
  156DOPC   H3Y18784   5.369   5.971  15.739  0.5452  0.1777 -0.2411
  156DOPC   C3418785   5.523   5.808  15.687 -0.4680 -1.0562  0.7175
  156DOPC   H4X18786   5.520   5.839  15.580  0.9080  0.8791  1.1887
  156DOPC   H4Y18787   5.519   5.698  15.701 -1.4308 -0.8727  1.9999
  156DOPC   C3518788   5.644   5.867  15.757  0.3548 -0.0742  0.2305
  156DOPC   H5X18789   5.638   5.840  15.865  0.1000 -2.0326 -0.2427
  156DOPC   H5Y18790   5.654   5.976  15.740 -0.2434  0.0333  0.5202
  156DOPC   C3618791   5.790   5.815  15.715 -0.1293  0.2037  0.2618
  156DOPC   H6X18792   5.873   5.845  15.783 -1.7942 -1.0133  2.9919
  156DOPC   H6Y18793   5.799   5.708  15.690  1.7459 -0.1732  2.2364
  156DOPC   C3718794   5.830   5.875  15.577  0.2924  0.8467  0.1962
  156DOPC   H7X18795   5.760   5.838  15.499  2.2244 -0.6281 -0.9416
  156DOPC   H7Y18796   5.804   5.983  15.581 -1.6505  0.4342 -0.0049
  156DOPC   C3818797   5.976   5.855  15.543  0.2755  0.3614  0.4044
  156DOPC   H8X18798   6.000   5.747  15.558  0.2364  0.4122  0.8611
  156DOPC   H8Y18799   6.046   5.907  15.612  0.7874  0.8427 -0.4578
  156DOPC   C3918800   6.017   5.895  15.409 -0.3850  0.3733  0.7115
  156DOPC   H9X18801   6.015   5.812  15.336 -3.8213 -0.9389  2.0829
  156DOPC  C31018802   6.054   6.015  15.373 -0.2516 -0.1164 -0.0332
  156DOPC  H10X18803   6.055   6.036  15.265  0.5431 -0.1344 -0.0372
  156DOPC  C31118804   6.063   6.145  15.458 -0.0730 -0.1820  0.1986
  156DOPC  H11X18805   6.152   6.206  15.428  0.0443 -0.4556 -0.0104
  156DOPC  H11Y18806   6.079   6.119  15.565  1.5201 -0.1786 -0.0077
  156DOPC  C31218807   5.938   6.229  15.445  0.8047  0.2430 -0.5159
  156DOPC  H12X18808   5.843   6.176  15.470  1.7965 -0.5485  1.9448
  156DOPC  H12Y18809   5.927   6.266  15.341  0.4876 -1.6685 -1.2013
  156DOPC  C31318810   5.944   6.355  15.529  0.2043 -0.3488 -0.1014
  156DOPC  H13X18811   5.846   6.402  15.508  1.3414  1.2374 -2.2729
  156DOPC  H13Y18812   5.948   6.338  15.639  0.5543 -2.0503 -0.3497
  156DOPC  C31418813   6.064   6.446  15.493  0.6498  0.2171  0.1821
  156DOPC  H14X18814   6.065   6.536  15.558  1.1912 -0.2172  0.7918
  156DOPC  H14Y18815   6.157   6.392  15.524  0.3658 -0.3173  0.1119
  156DOPC  C31518816   6.074   6.485  15.344 -0.3560  0.2059  0.0530
  156DOPC  H15X18817   5.972   6.496  15.301 -0.4655 -0.8027  0.0341
  156DOPC  H15Y18818   6.117   6.395  15.296 -0.8068  0.1347 -0.2283
  156DOPC  C31618819   6.144   6.616  15.336  0.7951  0.3041 -0.5054
  156DOPC  H16X18820   6.073   6.694  15.372  0.4840 -0.5818  0.9107
  156DOPC  H16Y18821   6.234   6.625  15.400  0.8100 -1.3006 -0.2640
  156DOPC  C31718822   6.185   6.647  15.192 -0.5486  0.2277 -0.2736
  156DOPC  H17X18823   6.261   6.574  15.156 -0.5655 -0.7900  1.6422
  156DOPC  H17Y18824   6.092   6.635  15.131  0.2030  2.5637 -2.0270
  156DOPC  C31818825   6.243   6.789  15.184 -0.4103  0.6858  0.6753
  156DOPC  H18X18826   6.191   6.857  15.254 -0.1206  0.8746  0.7058
  156DOPC  H18Y18827   6.352   6.793  15.206 -0.6020  2.4491  1.3993
  156DOPC  H18Z18828   6.225   6.808  15.076 -0.9649 -2.1795  0.1829
  157DOPC     N18829   6.446   1.679  16.100  0.0731 -0.7407  0.3139
  157DOPC   C1218830   6.462   1.815  16.031  0.0645  0.2845 -0.2334
  157DOPC  H12A18831   6.547   1.866  16.073 -0.0281  0.2538 -0.0067
  157DOPC  H12B18832   6.380   1.878  16.064 -0.5390 -2.2446  3.8061
  157DOPC   C1318833   6.559   1.595  16.052 -0.5662  0.1429  0.4715
  157DOPC  H13A18834   6.543   1.568  15.948 -1.0043 -0.5949  0.7244
  157DOPC  H13B18835   6.653   1.646  16.066 -0.0441 -0.6174 -0.1459
  157DOPC  H13C18836   6.568   1.502  16.105  0.4517 -0.0836 -0.0656
  157DOPC   C1418837   6.315   1.615  16.073  0.0167  0.2984 -0.3413
  157DOPC  H14A18838   6.306   1.520  16.122  1.9779  0.8669  1.2619
  157DOPC  H14B18839   6.245   1.677  16.127  0.6722  0.5085  0.2698
  157DOPC  H14C18840   6.285   1.617  15.969  0.3544 -2.4125 -0.5657
  157DOPC   C1518841   6.467   1.701  16.246 -0.3465 -0.6160 -0.7914
  157DOPC  H15A18842   6.402   1.782  16.275  0.4375  0.7248 -2.5877
  157DOPC  H15B18843   6.570   1.731  16.263 -0.2456 -0.0886 -2.1616
  157DOPC  H15C18844   6.448   1.613  16.305  0.7994 -0.9712 -0.9235
  157DOPC   C1118845   6.477   1.805  15.873  0.2076  0.6048 -0.2456
  157DOPC  H11A18846   6.405   1.729  15.836  0.8645  1.2294 -3.0036
  157DOPC  H11B18847   6.448   1.898  15.820 -2.4286 -1.2540 -2.3572
  157DOPC     P18848   6.731   1.867  15.842  0.0085  0.3656 -0.6095
  157DOPC   O1318849   6.851   1.795  15.882 -0.3835  0.0630 -0.7594
  157DOPC   O1418850   6.684   1.979  15.924 -0.3724 -0.2670 -0.3022
  157DOPC   O1218851   6.611   1.759  15.829 -0.8816 -0.2285 -0.2753
  157DOPC   O1118852   6.753   1.913  15.694  0.4325  0.4565  0.3066
  157DOPC    C118853   6.647   1.980  15.626  1.0762 -0.1829 -0.3919
  157DOPC    HA18854   6.596   2.053  15.693 -1.5598 -2.1101 -0.1406
  157DOPC    HB18855   6.566   1.909  15.601 -2.9370  3.7571  0.0252
  157DOPC    C218856   6.690   2.065  15.502  0.4012  0.0095  0.1632
  157DOPC    HS18857   6.609   2.140  15.488 -0.2849 -0.6323  0.6228
  157DOPC   O2118858   6.696   1.997  15.375 -0.8810  0.0329  0.3745
  157DOPC   C2118859   6.584   1.940  15.319  0.5144 -0.3790  0.1993
  157DOPC   O2218860   6.470   1.955  15.362  0.1321 -0.7106  0.2134
  157DOPC   C2218861   6.608   1.866  15.193  0.0176 -0.6163  0.6962
  157DOPC   H2R18862   6.714   1.831  15.201  0.4074  0.4025  0.2126
  157DOPC   H2S18863   6.598   1.936  15.107  0.5956 -0.0744  1.0570
  157DOPC    C318864   6.825   2.144  15.532 -0.2294 -0.6985  0.6166
  157DOPC    HX18865   6.909   2.073  15.546  0.3355  0.1201  1.5485
  157DOPC    HY18866   6.818   2.202  15.627 -1.9899 -1.2876  0.8827
  157DOPC   O3118867   6.861   2.232  15.417  0.0327 -0.1224 -0.4617
  157DOPC   C3118868   6.806   2.360  15.422  0.0124 -0.4301 -0.7334
  157DOPC   O3218869   6.748   2.405  15.520  0.1309 -0.7109 -0.1951
  157DOPC   C3218870   6.851   2.436  15.299 -0.7971 -0.5892 -0.5232
  157DOPC   H2X18871   6.920   2.516  15.335  0.0244 -2.0060  1.2179
  157DOPC   H2Y18872   6.913   2.367  15.238 -0.3976 -0.4791 -0.2480
  157DOPC   C2318873   6.508   1.748  15.164 -0.6919 -0.1143  0.0764
  157DOPC   H3R18874   6.420   1.784  15.108 -0.6014  1.2313  0.7564
  157DOPC   H3S18875   6.469   1.702  15.256  0.3269 -1.7730 -0.2747
  157DOPC   C2418876   6.577   1.634  15.081  0.2938 -0.5798 -0.6135
  157DOPC   H4R18877   6.519   1.541  15.065  0.4998 -0.8063 -0.0813
  157DOPC   H4S18878   6.675   1.613  15.129  0.5177  1.6618  0.0449
  157DOPC   C2518879   6.619   1.690  14.950  0.0882  0.4227  0.5301
  157DOPC   H5R18880   6.681   1.621  14.888 -0.1998  0.8288 -0.2234
  157DOPC   H5S18881   6.684   1.780  14.953  1.6251 -0.3819 -2.9426
  157DOPC   C2618882   6.491   1.732  14.863 -0.5227 -0.5845 -0.0436
  157DOPC   H6R18883   6.517   1.764  14.759 -0.2237 -0.8957 -0.0682
  157DOPC   H6S18884   6.447   1.823  14.908  0.2405  1.3481 -2.9041
  157DOPC   C2718885   6.378   1.623  14.850 -0.6252  0.0735  0.6768
  157DOPC   H7R18886   6.346   1.577  14.945 -1.6281  1.8082  1.2295
  157DOPC   H7S18887   6.401   1.532  14.791 -3.0922  0.0915 -0.4250
  157DOPC   C2818888   6.249   1.683  14.789  0.2838  0.2229 -0.3936
  157DOPC   H8R18889   6.215   1.764  14.857 -0.9670 -0.0784 -0.6352
  157DOPC   H8S18890   6.172   1.602  14.787  1.2938 -0.7594 -0.7740
  157DOPC   C2918891   6.267   1.735  14.652 -0.3337  0.5568  0.2892
  157DOPC   H9R18892   6.338   1.818  14.635 -0.7371  0.5496 -1.7644
  157DOPC  C21018893   6.237   1.667  14.542  0.0312 -1.2227  0.7239
  157DOPC  H10R18894   6.257   1.704  14.441 -0.0179  0.9128  1.4614
  157DOPC  C21118895   6.149   1.544  14.541 -1.0286 -0.0112 -0.8359
  157DOPC  H11R18896   6.181   1.474  14.621  0.5764  2.2054  0.6046
  157DOPC  H11S18897   6.171   1.479  14.454 -0.9664 -1.2279  0.0581
  157DOPC  C21218898   6.007   1.584  14.540  1.0484  0.0440  0.4711
  157DOPC  H12R18899   5.973   1.657  14.463 -0.0465  0.4643  1.3205
  157DOPC  H12S18900   5.984   1.630  14.639  0.9109  0.9908  0.0141
  157DOPC  C21318901   5.919   1.463  14.505  0.0756  0.2466 -0.1424
  157DOPC  H13R18902   5.922   1.395  14.592  0.2913  1.3556  0.7346
  157DOPC  H13S18903   5.962   1.404  14.421  0.2968  0.5865 -0.2691
  157DOPC  C21418904   5.781   1.501  14.456 -0.5374 -0.5350  0.1965
  157DOPC  H14R18905   5.782   1.572  14.370  0.9666 -1.2427 -0.4018
  157DOPC  H14S18906   5.721   1.553  14.535 -3.3032  1.3209 -2.8232
  157DOPC  C21518907   5.692   1.378  14.430 -0.5407 -0.3657  0.4440
  157DOPC  H15R18908   5.692   1.302  14.511 -1.6705 -0.6856  0.1557
  157DOPC  H15S18909   5.743   1.332  14.342  0.0065  2.2337 -0.6970
  157DOPC  C21618910   5.551   1.404  14.392 -0.2313 -0.1251  0.4268
  157DOPC  H16R18911   5.542   1.439  14.287  1.5388 -0.2588  0.1910
  157DOPC  H16S18912   5.507   1.483  14.456  0.1401  2.1086 -1.9256
  157DOPC  C21718913   5.463   1.276  14.386 -0.2823 -0.0684 -0.5217
  157DOPC  H17R18914   5.545   1.207  14.356  1.8006  0.8582  2.5618
  157DOPC  H17S18915   5.384   1.267  14.308 -0.0877 -1.1300 -0.6084
  157DOPC  C21818916   5.395   1.237  14.522  0.0108 -0.6800 -0.9340
  157DOPC  H18R18917   5.317   1.311  14.551 -2.6938 -2.9611 -1.8889
  157DOPC  H18S18918   5.467   1.226  14.606  0.2116  1.6842 -0.7215
  157DOPC  H18T18919   5.338   1.142  14.507 -1.3299 -0.2301  0.9415
  157DOPC   C3318920   6.737   2.505  15.215  0.2369  1.0606  0.3853
  157DOPC   H3X18921   6.787   2.574  15.144 -0.0384 -0.7678 -1.6903
  157DOPC   H3Y18922   6.666   2.557  15.283  1.7619  2.2992  1.0932
  157DOPC   C3418923   6.671   2.409  15.121  0.5115 -0.3170  0.0101
  157DOPC   H4X18924   6.747   2.348  15.067  0.2340 -1.0312  0.3981
  157DOPC   H4Y18925   6.617   2.469  15.045 -0.6330 -2.3016 -0.8579
  157DOPC   C3518926   6.574   2.318  15.194 -0.6150 -0.3218 -0.2887
  157DOPC   H5X18927   6.497   2.382  15.243  0.7304  1.0176  0.1732
  157DOPC   H5Y18928   6.620   2.257  15.275 -1.9741  2.2913  2.6775
  157DOPC   C3618929   6.512   2.220  15.102  0.1816  0.8194 -0.1868
  157DOPC   H6X18930   6.591   2.169  15.043 -1.8499 -1.7995 -0.8675
  157DOPC   H6Y18931   6.459   2.156  15.176 -0.6104  0.1790 -1.2789
  157DOPC   C3718932   6.407   2.286  15.000 -0.0103 -0.1675 -0.1649
  157DOPC   H7X18933   6.321   2.333  15.052 -0.6272 -1.8898  0.4289
  157DOPC   H7Y18934   6.460   2.364  14.941 -0.3691  0.5523  0.4368
  157DOPC   C3818935   6.354   2.182  14.899  0.0511  0.5281 -0.1417
  157DOPC   H8X18936   6.297   2.104  14.953  2.2217 -0.4039  0.9567
  157DOPC   H8Y18937   6.444   2.131  14.859  0.5417  0.6502  0.7789
  157DOPC   C3918938   6.274   2.250  14.788  0.2331  0.3707 -0.4573
  157DOPC   H9X18939   6.320   2.340  14.745  0.6543  0.6632  0.5919
  157DOPC  C31018940   6.162   2.205  14.728 -0.1073  0.4655 -0.2935
  157DOPC  H10X18941   6.105   2.270  14.661 -0.1962  1.5736  0.8092
  157DOPC  C31118942   6.086   2.071  14.741 -0.6136  0.2209  0.0705
  157DOPC  H11X18943   5.994   2.094  14.798 -0.7355  1.4862 -0.6185
  157DOPC  H11Y18944   6.151   1.985  14.768 -1.1199 -0.7091 -1.5235
  157DOPC  C31218945   6.036   2.018  14.603  0.7860  0.3276  0.2597
  157DOPC  H12X18946   5.999   1.913  14.607 -0.2081  0.5345 -2.0906
  157DOPC  H12Y18947   6.129   2.016  14.542  1.3324 -0.1257  1.0760
  157DOPC  C31318948   5.932   2.116  14.547 -0.3196  0.7261  0.1970
  157DOPC  H13X18949   5.877   2.151  14.637  0.2854 -3.5859  2.5095
  157DOPC  H13Y18950   5.977   2.202  14.494  0.7940 -0.6398 -1.1641
  157DOPC  C31418951   5.825   2.044  14.456 -0.9056 -0.0277 -0.3540
  157DOPC  H14X18952   5.794   1.949  14.505 -2.0717  0.5323  0.0177
  157DOPC  H14Y18953   5.734   2.108  14.451  0.3499  1.7517 -2.2718
  157DOPC  C31518954   5.886   2.003  14.324  0.2430 -0.6419  0.1544
  157DOPC  H15X18955   5.819   1.931  14.272 -1.6548  1.2926 -0.2026
  157DOPC  H15Y18956   5.981   1.949  14.347  1.3681  0.9835 -0.4738
  157DOPC  C31618957   5.911   2.120  14.224 -0.2780 -0.0244  0.4975
  157DOPC  H16X18958   5.838   2.203  14.217  1.0197  1.1011 -0.4193
  157DOPC  H16Y18959   6.008   2.160  14.261  0.2704 -1.2610  0.4257
  157DOPC  C31718960   5.924   2.068  14.080  0.4334 -0.1478 -0.8710
  157DOPC  H17X18961   5.979   1.972  14.081  2.6984  0.9924  2.9786
  157DOPC  H17Y18962   5.821   2.052  14.042  1.0467 -1.0512 -2.2235
  157DOPC  C31818963   5.998   2.165  13.985  0.1701  0.2230 -0.6357
  157DOPC  H18X18964   5.980   2.134  13.880  0.8010 -2.2915 -0.0726
  157DOPC  H18Y18965   5.951   2.266  13.981  0.7649  0.4717 -2.0216
  157DOPC  H18Z18966   6.104   2.177  14.017 -0.2321  0.7108  0.5831
  158DOPC     N18967   5.554   0.347  15.982 -0.2923 -0.0391 -0.2904
  158DOPC   C1218968   5.446   0.272  15.897 -0.1049 -0.4859  0.7191
  158DOPC  H12A18969   5.399   0.349  15.837 -0.3206  1.5327  3.2781
  158DOPC  H12B18970   5.366   0.230  15.957 -0.6843  0.1916  0.4363
  158DOPC   C1318971   5.675   0.376  15.896 -0.2313  0.3885 -0.0462
  158DOPC  H13A18972   5.728   0.291  15.857  0.7148  1.0096 -0.1558
  158DOPC  H13B18973   5.634   0.426  15.809 -1.1997  1.1824  0.8520
  158DOPC  H13C18974   5.744   0.444  15.944  0.0823 -0.4444  0.7084
  158DOPC   C1418975   5.591   0.273  16.110 -0.1192  0.1253 -0.3677
  158DOPC  H14A18976   5.630   0.178  16.077 -1.1349 -0.0277 -1.1781
  158DOPC  H14B18977   5.658   0.325  16.176  1.0255 -2.4446  0.6054
  158DOPC  H14C18978   5.494   0.253  16.153 -0.3042 -1.8294 -1.5685
  158DOPC   C1518979   5.510   0.480  16.032  0.4913  0.0207  1.0209
  158DOPC  H15A18980   5.413   0.467  16.077 -0.0873  0.6578 -0.0106
  158DOPC  H15B18981   5.496   0.556  15.957  0.1106  0.1799  1.2502
  158DOPC  H15C18982   5.572   0.522  16.110 -2.3671  1.8501  2.4947
  158DOPC   C1118983   5.487   0.163  15.799 -0.6351  0.0433  0.3511
  158DOPC  H11A18984   5.401   0.136  15.735 -0.6055 -1.0168  0.7486
  158DOPC  H11B18985   5.566   0.202  15.730  0.7188 -0.6123  1.4667
  158DOPC     P18986   5.457  -0.065  15.920 -0.6354  0.3406 -0.6004
  158DOPC   O1318987   5.355  -0.025  16.022  0.2917  0.0196  0.3263
  158DOPC   O1418988   5.559  -0.151  15.978 -0.0274  0.3115 -0.1811
  158DOPC   O1218989   5.541   0.056  15.873  0.5971  0.4954 -0.1730
  158DOPC   O1118990   5.413  -0.129  15.789  0.3697  0.5747  0.2080
  158DOPC    C118991   5.509  -0.187  15.699 -0.4057  0.3014  0.1779
  158DOPC    HA18992   5.515  -0.298  15.707  0.8886  0.4221  1.2324
  158DOPC    HB18993   5.608  -0.140  15.711  0.6240 -1.9999  1.3886
  158DOPC    C218994   5.459  -0.164  15.551 -0.0856  0.3106  0.7668
  158DOPC    HS18995   5.495  -0.247  15.487  1.4768  3.2480 -2.4812
  158DOPC   O2118996   5.513  -0.046  15.490 -0.1056 -0.6020 -0.5490
  158DOPC   C2118997   5.636  -0.051  15.473 -0.3678  0.3038 -0.1362
  158DOPC   O2218998   5.712  -0.143  15.494  0.0628  0.6175 -0.2003
  158DOPC   C2218999   5.685   0.079  15.404  0.0606  0.1993 -0.9202
  158DOPC   H2R19000   5.794   0.096  15.407 -0.1003  1.3921 -1.1772
  158DOPC   H2S19001   5.645   0.164  15.463 -1.4444 -0.1807 -1.3416
  158DOPC    C319002   5.304  -0.180  15.544  0.8398 -0.2030 -0.3855
  158DOPC    HX19003   5.267  -0.086  15.592  4.2441  0.5304  1.1252
  158DOPC    HY19004   5.264  -0.270  15.596 -1.2840  1.4376  1.0103
  158DOPC   O3119005   5.258  -0.191  15.409 -0.0144  0.9263  0.0666
  158DOPC   C3119006   5.171  -0.103  15.366  0.4859 -0.0455  0.1723
  158DOPC   O3219007   5.116  -0.007  15.426 -0.2601 -0.3437  0.1364
  158DOPC   C3219008   5.121  -0.142  15.227 -0.6579 -0.0587 -0.0355
  158DOPC   H2X19009   5.149  -0.058  15.161 -0.6888  1.3728  1.7002
  158DOPC   H2Y19010   5.172  -0.232  15.188  0.7986  0.8447 -0.2737
  158DOPC   C2319011   5.614   0.108  15.268 -0.1904  0.0708  0.0319
  158DOPC   H3R19012   5.627   0.215  15.242 -0.0719  0.1478  0.3918
  158DOPC   H3S19013   5.504   0.100  15.280 -0.3821  1.9148 -0.2188
  158DOPC   C2419014   5.661   0.013  15.151  0.3488  0.1593 -0.2066
  158DOPC   H4R19015   5.758  -0.032  15.179  0.1156 -1.3165 -1.6573
  158DOPC   H4S19016   5.673   0.077  15.061  0.1703 -1.1888 -1.2171
  158DOPC   C2519017   5.565  -0.104  15.139 -0.6760 -0.5908  0.4666
  158DOPC   H5R19018   5.550  -0.139  15.244 -0.5819 -2.4605 -0.0935
  158DOPC   H5S19019   5.619  -0.183  15.083 -1.2521  0.0026 -0.9813
  158DOPC   C2619020   5.428  -0.075  15.072 -0.2858  0.0668 -0.4220
  158DOPC   H6R19021   5.385   0.014  15.123  1.1631  2.0680 -2.4607
  158DOPC   H6S19022   5.365  -0.162  15.099  2.7560 -1.9064  0.8356
  158DOPC   C2719023   5.441  -0.059  14.926 -0.3513  0.1437  0.8884
  158DOPC   H7R19024   5.476  -0.156  14.885  2.5723  1.5271 -0.1215
  158DOPC   H7S19025   5.513   0.020  14.895  0.8117 -1.4276 -0.5631
  158DOPC   C2819026   5.310  -0.050  14.843 -0.1465 -0.2886 -0.0883
  158DOPC   H8R19027   5.343  -0.053  14.737 -2.5430  0.0701 -0.8982
  158DOPC   H8S19028   5.267   0.049  14.865 -2.7965 -1.4173  0.1913
  158DOPC   C2919029   5.208  -0.155  14.862  0.2336 -0.4996 -0.5785
  158DOPC   H9R19030   5.230  -0.241  14.927 -0.9129  1.3979  2.5876
  158DOPC  C21019031   5.099  -0.166  14.784  0.0244 -0.6328  0.3075
  158DOPC  H10R19032   5.031  -0.253  14.789 -1.2343  0.0816 -2.4652
  158DOPC  C21119033   5.053  -0.059  14.688 -0.4738  0.8423  0.1242
  158DOPC  H11R19034   5.143  -0.002  14.655  1.2875 -0.2423  2.6969
  158DOPC  H11S19035   4.999   0.013  14.753 -2.2356  0.7336 -1.1766
  158DOPC  C21219036   4.964  -0.110  14.572  0.1147 -0.2463  0.4948
  158DOPC  H12R19037   4.971  -0.015  14.514 -2.0688  0.9843  2.0733
  158DOPC  H12S19038   4.860  -0.132  14.603  0.0208 -1.7814 -0.8158
  158DOPC  C21319039   5.009  -0.230  14.492 -0.0818  0.9442 -0.6717
  158DOPC  H13R19040   4.924  -0.245  14.422  0.3003 -0.5454 -0.8492
  158DOPC  H13S19041   5.022  -0.316  14.561  0.2606  0.5838 -1.1720
  158DOPC  C21419042   5.137  -0.192  14.423  0.6122 -0.5231  0.3439
  158DOPC  H14R19043   5.213  -0.175  14.502  0.8858  0.1597 -0.0621
  158DOPC  H14S19044   5.124  -0.102  14.360 -4.0215 -0.3616  1.1817
  158DOPC  C21519045   5.196  -0.306  14.335  0.3180 -0.1412 -0.7924
  158DOPC  H15R19046   5.263  -0.364  14.402  1.9995 -0.1311 -2.3884
  158DOPC  H15S19047   5.257  -0.262  14.254 -0.4775  0.0220 -1.3145
  158DOPC  C21619048   5.092  -0.396  14.265 -0.1309 -0.3079 -0.2476
  158DOPC  H16R19049   5.024  -0.441  14.340  0.2314 -2.4876 -1.1577
  158DOPC  H16S19050   5.139  -0.487  14.223 -1.8449 -0.9448 -0.8944
  158DOPC  C21719051   5.010  -0.323  14.150 -0.1009 -0.4383 -0.2565
  158DOPC  H17R19052   4.932  -0.260  14.198 -1.5068 -0.1629 -2.7101
  158DOPC  H17S19053   4.958  -0.397  14.085 -0.4130  2.2685 -3.3378
  158DOPC  C21819054   5.091  -0.230  14.055 -0.1538 -0.2990  0.5299
  158DOPC  H18R19055   5.022  -0.199  13.974 -0.4991 -0.0261  0.9262
  158DOPC  H18S19056   5.170  -0.286  14.000  0.1364  0.0102  0.6307
  158DOPC  H18T19057   5.115  -0.138  14.112 -1.3573 -0.0577  0.6855
  158DOPC   C3319058   4.968  -0.188  15.224 -0.1411 -0.5529 -0.2244
  158DOPC   H3X19059   4.904  -0.106  15.261 -0.6605 -0.7862 -0.5944
  158DOPC   H3Y19060   4.955  -0.278  15.288 -0.8961  0.0528  0.4958
  158DOPC   C3419061   4.920  -0.217  15.078  0.2994  0.3081  0.0303
  158DOPC   H4X19062   4.992  -0.294  15.041 -0.6829 -0.1402 -1.0522
  158DOPC   H4Y19063   4.937  -0.134  15.006 -1.6854  0.0541 -0.8041
  158DOPC   C3519064   4.775  -0.273  15.064 -0.0681 -0.2175 -0.0194
  158DOPC   H5X19065   4.703  -0.196  15.099  1.0747 -0.4972  3.3653
  158DOPC   H5Y19066   4.774  -0.354  15.140 -0.8115 -0.1955  0.0055
  158DOPC   C3619067   4.747  -0.343  14.930  0.4751 -0.1338 -0.5517
  158DOPC   H6X19068   4.840  -0.382  14.883 -0.9368 -1.0772 -2.7563
  158DOPC   H6Y19069   4.690  -0.435  14.955 -0.8993  1.3458  2.2305
  158DOPC   C3719070   4.669  -0.255  14.833 -0.7085  0.6396  0.3634
  158DOPC   H7X19071   4.576  -0.230  14.889  0.2278  2.5626  1.1443
  158DOPC   H7Y19072   4.716  -0.156  14.813  1.1377  0.2997  2.6009
  158DOPC   C3819073   4.622  -0.337  14.711 -0.6511  0.3882  0.3663
  158DOPC   H8X19074   4.570  -0.431  14.739 -5.1986  2.7711  0.8638
  158DOPC   H8Y19075   4.714  -0.363  14.654 -1.4027 -3.2214  0.5527
  158DOPC   C3919076   4.529  -0.265  14.622  0.7046  0.2646  0.3543
  158DOPC   H9X19077   4.429  -0.250  14.666 -0.1906 -0.3861 -1.3649
  158DOPC  C31019078   4.532  -0.232  14.492  0.4987  0.1375  0.5433
  158DOPC  H10X19079   4.444  -0.182  14.448 -0.5880 -0.4754  1.9321
  158DOPC  C31119080   4.635  -0.275  14.394 -0.5935  0.0205  0.3520
  158DOPC  H11X19081   4.680  -0.373  14.420 -0.9627  0.0389  1.0777
  158DOPC  H11Y19082   4.709  -0.191  14.395  0.7510 -1.0653 -1.4193
  158DOPC  C31219083   4.571  -0.301  14.253 -0.6176  0.1598  1.5058
  158DOPC  H12X19084   4.652  -0.285  14.177 -1.7141  2.5239  0.7452
  158DOPC  H12Y19085   4.501  -0.216  14.239 -3.1883 -1.9882  0.5551
  158DOPC  C31319086   4.506  -0.437  14.243  0.1707  0.6896  0.1777
  158DOPC  H13X19087   4.451  -0.452  14.338 -1.8937  0.8707 -0.9245
  158DOPC  H13Y19088   4.427  -0.444  14.165 -1.4333  0.3631  1.7654
  158DOPC  C31419089   4.612  -0.545  14.208  0.3368  0.2869  0.4309
  158DOPC  H14X19090   4.706  -0.523  14.265 -0.7765  0.4419  2.2949
  158DOPC  H14Y19091   4.579  -0.646  14.240 -0.6469 -0.2702 -2.1578
  158DOPC  C31519092   4.645  -0.561  14.061  0.1586  0.1704  0.2497
  158DOPC  H15X19093   4.693  -0.469  14.021  0.7695 -0.7880 -1.2939
  158DOPC  H15Y19094   4.549  -0.571  14.006 -0.4106  1.4355  0.9608
  158DOPC  C31619095   4.744  -0.682  14.041  0.0513 -0.4087  0.0802
  158DOPC  H16X19096   4.824  -0.675  14.119 -0.4039  2.4835  0.4094
  158DOPC  H16Y19097   4.694  -0.780  14.054 -0.8423  0.1620  1.1678
  158DOPC  C31719098   4.815  -0.662  13.901  0.2007  0.6230 -0.9126
  158DOPC  H17X19099   4.744  -0.642  13.819 -0.4930  2.4463  0.0886
  158DOPC  H17Y19100   4.869  -0.566  13.914  1.2454 -0.0311 -0.2382
  158DOPC  C31819101   4.919  -0.771  13.868  0.5020 -0.0359  0.1739
  158DOPC  H18X19102   4.879  -0.872  13.887 -0.4949  0.3340  0.1047
  158DOPC  H18Y19103   4.962  -0.772  13.766  1.8707 -1.7522  0.7212
  158DOPC  H18Z19104   5.011  -0.768  13.930  1.4576  0.3569 -1.2169
  159DOPC     N19105   7.793   2.732  16.276  0.0551 -0.3941  0.1728
  159DOPC   C1219106   7.672   2.797  16.194 -0.2909  0.3283  0.0799
  159DOPC  H12A19107   7.685   2.904  16.201 -0.7955  0.3077  1.9641
  159DOPC  H12B19108   7.583   2.782  16.254 -0.2478 -0.3900 -0.0250
  159DOPC   C1319109   7.924   2.759  16.211  0.2953  0.0290  0.2824
  159DOPC  H13A19110   7.964   2.859  16.215  0.3003  0.1792 -2.2083
  159DOPC  H13B19111   8.006   2.710  16.263 -0.0461 -0.9577 -0.0897
  159DOPC  H13C19112   7.928   2.709  16.115  0.6116 -2.3753  1.4804
  159DOPC   C1419113   7.776   2.588  16.281  0.3205  0.1506 -0.0909
  159DOPC  H14A19114   7.685   2.551  16.326  1.1087 -1.1209  0.4887
  159DOPC  H14B19115   7.775   2.554  16.178 -1.7033 -0.2174  0.0107
  159DOPC  H14C19116   7.860   2.546  16.333 -0.3936 -1.3120 -0.0885
  159DOPC   C1519117   7.782   2.790  16.411 -0.3766 -0.1376 -0.0590
  159DOPC  H15A19118   7.687   2.772  16.458  0.8704  0.5599  2.9633
  159DOPC  H15B19119   7.784   2.898  16.411  0.4303 -0.1410  0.2427
  159DOPC  H15C19120   7.856   2.767  16.486 -1.2040  0.2202  0.8803
  159DOPC   C1119121   7.644   2.741  16.048  0.5054 -0.2237 -0.2398
  159DOPC  H11A19122   7.576   2.812  15.997 -1.5166 -0.8833  1.3879
  159DOPC  H11B19123   7.741   2.742  15.992 -0.2233  0.5868 -1.5367
  159DOPC     P19124   7.453   2.570  16.074 -0.4012  0.0284  0.1177
  159DOPC   O1319125   7.400   2.659  16.179 -0.3402 -0.2082 -0.1724
  159DOPC   O1419126   7.461   2.423  16.111  0.1041 -0.7390 -0.0413
  159DOPC   O1219127   7.603   2.606  16.037  0.7071  0.1472  0.0500
  159DOPC   O1119128   7.374   2.582  15.939 -0.5535 -0.1934  0.0370
  159DOPC    C119129   7.417   2.552  15.802 -0.8967  0.2067  0.1152
  159DOPC    HA19130   7.343   2.490  15.747 -0.1130 -1.0745  0.4502
  159DOPC    HB19131   7.515   2.498  15.797 -1.5569 -0.9454 -0.9471
  159DOPC    C219132   7.434   2.675  15.707  0.1396 -0.3118 -0.2841
  159DOPC    HS19133   7.518   2.727  15.758 -0.8040  1.0739 -0.0628
  159DOPC   O2119134   7.315   2.757  15.712  0.0434  0.0307 -0.3769
  159DOPC   C2119135   7.338   2.886  15.677  0.2263  0.0749  0.0019
  159DOPC   O2219136   7.443   2.930  15.651 -0.5511  0.2489 -0.0010
  159DOPC   C2219137   7.204   2.967  15.676 -0.7356 -0.4159 -0.6226
  159DOPC   H2R19138   7.181   2.989  15.782 -2.1878 -1.5332 -0.6862
  159DOPC   H2S19139   7.120   2.896  15.660 -1.8069 -0.0355  2.7101
  159DOPC    C319140   7.482   2.645  15.559 -0.3523 -0.3715 -0.3445
  159DOPC    HX19141   7.581   2.598  15.576 -1.3240 -2.1772  0.5727
  159DOPC    HY19142   7.496   2.739  15.501  1.4824 -0.7644 -0.5897
  159DOPC   O3119143   7.384   2.569  15.490  0.0667 -0.1822  0.0221
  159DOPC   C3119144   7.407   2.447  15.463  0.2015 -0.7197 -0.1481
  159DOPC   O3219145   7.508   2.390  15.506 -0.4632 -0.1560  0.2050
  159DOPC   C3219146   7.303   2.395  15.363  0.6836  0.5463 -0.3447
  159DOPC   H2X19147   7.275   2.290  15.385 -1.9354  0.8589 -1.8061
  159DOPC   H2Y19148   7.213   2.460  15.356  1.0074  0.8525 -1.8475
  159DOPC   C2319149   7.212   3.098  15.592  0.1708  0.8581 -0.1944
  159DOPC   H3R19150   7.289   3.164  15.637  1.6996  0.7929 -2.5588
  159DOPC   H3S19151   7.111   3.143  15.599 -1.0235 -1.5372 -0.9104
  159DOPC   C2419152   7.227   3.080  15.436 -0.5891  0.8091 -0.0846
  159DOPC   H4R19153   7.162   2.995  15.407  0.1989 -0.0909  0.6914
  159DOPC   H4S19154   7.330   3.057  15.402 -1.0622 -3.0538  0.6471
  159DOPC   C2519155   7.181   3.215  15.370 -0.3503  0.1061  0.8325
  159DOPC   H5R19156   7.245   3.297  15.410 -2.8226  2.9157 -0.6300
  159DOPC   H5S19157   7.076   3.232  15.399 -0.3258  0.4648  0.7177
  159DOPC   C2619158   7.217   3.216  15.217  0.2711 -0.2172 -0.0113
  159DOPC   H6R19159   7.186   3.118  15.176  0.8691 -0.3931 -0.0481
  159DOPC   H6S19160   7.323   3.222  15.184 -0.3127 -1.6285 -2.4224
  159DOPC   C2719161   7.162   3.340  15.146  0.4108  0.7081  0.3363
  159DOPC   H7R19162   7.206   3.431  15.190  2.0188  0.2414 -0.2448
  159DOPC   H7S19163   7.050   3.344  15.145  0.4431  1.8523  0.1906
  159DOPC   C2819164   7.210   3.354  15.000 -0.0851  0.2800 -0.3463
  159DOPC   H8R19165   7.321   3.354  14.997 -0.0569  0.2958  0.5878
  159DOPC   H8S19166   7.164   3.446  14.956  0.7038  1.3999  1.0876
  159DOPC   C2919167   7.166   3.237  14.916 -0.2734  0.4261  0.4925
  159DOPC   H9R19168   7.057   3.228  14.926 -0.3203  0.6847  0.2260
  159DOPC  C21019169   7.225   3.163  14.821  0.0696  0.6639 -0.2127
  159DOPC  H10R19170   7.167   3.077  14.785  0.2605 -0.7319  2.5094
  159DOPC  C21119171   7.366   3.166  14.771  0.1862 -0.1238 -0.7154
  159DOPC  H11R19172   7.394   3.069  14.724 -0.7667 -0.7279 -0.0582
  159DOPC  H11S19173   7.428   3.183  14.862  0.1329 -1.8833 -0.3118
  159DOPC  C21219174   7.391   3.277  14.670 -0.3376 -0.6816 -0.8942
  159DOPC  H12R19175   7.355   3.374  14.710 -1.4468 -1.0456 -0.9805
  159DOPC  H12S19176   7.337   3.267  14.573  0.2468 -1.3556 -1.1629
  159DOPC  C21319177   7.537   3.283  14.632  0.4421 -0.4843  0.0282
  159DOPC  H13R19178   7.572   3.179  14.616 -1.3255 -1.1894  0.6469
  159DOPC  H13S19179   7.588   3.327  14.721  1.1119 -0.1443 -0.5089
  159DOPC  C21419180   7.563   3.379  14.515  0.7699  0.4103  0.1210
  159DOPC  H14R19181   7.543   3.485  14.541  0.0544 -0.4097  3.2251
  159DOPC  H14S19182   7.491   3.364  14.431  1.2625  0.0093 -0.2361
  159DOPC  C21519183   7.703   3.346  14.457  0.2340 -0.0777  0.0361
  159DOPC  H15R19184   7.702   3.352  14.347  0.2205 -2.8022 -0.1996
  159DOPC  H15S19185   7.716   3.238  14.480 -2.3044 -0.4685  0.0024
  159DOPC  C21619186   7.813   3.434  14.516  0.3373  0.1525  0.4572
  159DOPC  H16R19187   7.799   3.443  14.626 -1.4179  0.5658  0.2280
  159DOPC  H16S19188   7.798   3.536  14.475 -3.8678 -0.7815 -0.7772
  159DOPC  C21719189   7.956   3.386  14.473 -0.2226 -0.3026 -0.7719
  159DOPC  H17R19190   7.963   3.389  14.362 -0.3084 -0.0114 -0.7704
  159DOPC  H17S19191   7.973   3.280  14.502  0.5889 -0.1165 -0.5730
  159DOPC  C21819192   8.075   3.467  14.533 -1.0562 -0.2130  0.2180
  159DOPC  H18R19193   8.170   3.429  14.490 -1.5752 -0.6439 -0.5571
  159DOPC  H18S19194   8.067   3.462  14.644 -1.3602 -0.1321  0.2016
  159DOPC  H18T19195   8.065   3.575  14.509  3.4062  0.1196 -1.0389
  159DOPC   C3319196   7.377   2.389  15.229 -0.1024  0.4130  0.0485
  159DOPC   H3X19197   7.474   2.337  15.234  0.4221  1.4755  3.0674
  159DOPC   H3Y19198   7.397   2.493  15.193  1.6608 -0.3071 -1.1334
  159DOPC   C3419199   7.297   2.314  15.127  0.1392  0.7731 -0.5040
  159DOPC   H4X19200   7.203   2.373  15.121  1.3231  3.3585  2.7263
  159DOPC   H4Y19201   7.278   2.212  15.167  0.5798  1.6078  2.0175
  159DOPC   C3519202   7.383   2.313  15.006 -0.1318 -0.1083  0.1015
  159DOPC   H5X19203   7.487   2.281  15.029  0.4166  1.6082  0.1125
  159DOPC   H5Y19204   7.402   2.414  14.966  0.0062 -0.8263 -1.7564
  159DOPC   C3619205   7.310   2.234  14.894  0.2733 -0.1488 -0.5860
  159DOPC   H6X19206   7.252   2.144  14.924  0.9179 -1.1455 -2.1702
  159DOPC   H6Y19207   7.246   2.308  14.843 -0.5230  0.7698  1.6614
  159DOPC   C3719208   7.407   2.178  14.789 -0.2349  0.2418 -0.0101
  159DOPC   H7X19209   7.449   2.265  14.734  3.6699 -2.3367 -1.5735
  159DOPC   H7Y19210   7.493   2.135  14.846 -0.0003  0.8902  0.1412
  159DOPC   C3819211   7.356   2.062  14.693  0.1197 -0.0215 -0.2367
  159DOPC   H8X19212   7.329   1.969  14.748 -0.8332  0.1705 -0.3599
  159DOPC   H8Y19213   7.435   2.041  14.617 -0.9375 -0.7667 -1.1553
  159DOPC   C3919214   7.228   2.098  14.615  0.0088  0.7896 -0.4590
  159DOPC   H9X19215   7.145   2.027  14.624 -1.5050  2.4499 -0.8180
  159DOPC  C31019216   7.222   2.166  14.502 -0.0340 -0.3327 -0.0294
  159DOPC  H10X19217   7.127   2.157  14.447 -0.4823 -1.3048  0.8884
  159DOPC  C31119218   7.342   2.245  14.438  0.4437  0.6838  0.1581
  159DOPC  H11X19219   7.435   2.248  14.499  0.2749  0.2682  0.4457
  159DOPC  H11Y19220   7.313   2.351  14.425  0.3718  0.6856  0.3285
  159DOPC  C31219221   7.379   2.198  14.298 -0.3519 -0.4899 -0.9241
  159DOPC  H12X19222   7.447   2.268  14.245 -2.0544  0.4250 -1.9806
  159DOPC  H12Y19223   7.286   2.198  14.236 -0.9026  1.0312 -0.1545
  159DOPC  C31319224   7.446   2.054  14.300  0.1974 -0.6057  0.5289
  159DOPC  H13X19225   7.524   2.047  14.379  0.6413 -2.4195 -0.0361
  159DOPC  H13Y19226   7.365   1.989  14.340  0.6248 -0.1741  2.1462
  159DOPC  C31419227   7.495   2.014  14.158 -0.2398  0.5570 -0.5357
  159DOPC  H14X19228   7.411   2.000  14.086 -0.3156 -0.5400 -0.2486
  159DOPC  H14Y19229   7.565   2.095  14.130  2.0687 -1.1117  0.1398
  159DOPC  C31519230   7.566   1.872  14.162  0.0749 -0.2056 -0.0499
  159DOPC  H15X19231   7.673   1.871  14.192  0.6083  1.9891 -1.6397
  159DOPC  H15Y19232   7.574   1.836  14.057  2.2054  0.1452 -0.0562
  159DOPC  C31619233   7.488   1.772  14.250  0.6481  0.1259 -0.7752
  159DOPC  H16X19234   7.476   1.804  14.356 -1.4432  0.0343 -0.9490
  159DOPC  H16Y19235   7.393   1.745  14.199  0.0046 -1.6766  1.2231
  159DOPC  C31719236   7.556   1.634  14.262  0.2279  0.7498 -0.6625
  159DOPC  H17X19237   7.559   1.592  14.159 -0.3188  1.2361 -0.8819
  159DOPC  H17Y19238   7.653   1.640  14.315 -0.4145  1.1958  0.4940
  159DOPC  C31819239   7.472   1.537  14.363  0.4611 -0.3133  0.1164
  159DOPC  H18X19240   7.382   1.518  14.302 -0.3623  0.8141  0.9429
  159DOPC  H18Y19241   7.526   1.451  14.409  2.1060  1.4301  1.6224
  159DOPC  H18Z19242   7.446   1.599  14.451  0.9121  1.1437 -0.7406
  160DOPC     N19243   2.620   7.693  16.100  0.6482  0.2373 -0.1451
  160DOPC   C1219244   2.625   7.795  15.990 -0.3311  0.2580  0.8020
  160DOPC  H12A19245   2.715   7.780  15.933  1.5396  0.6813  3.4414
  160DOPC  H12B19246   2.648   7.892  16.033  0.5204  0.0339  0.8704
  160DOPC   C1319247   2.585   7.555  16.057  0.1002 -0.0780 -0.4309
  160DOPC  H13A19248   2.492   7.553  16.002 -0.5805  1.6252  0.5803
  160DOPC  H13B19249   2.658   7.505  15.995 -2.5296  1.2528 -5.0805
  160DOPC  H13C19250   2.569   7.500  16.149 -2.1032  0.6229 -0.3438
  160DOPC   C1419251   2.504   7.733  16.194 -0.1043  0.7327  0.1581
  160DOPC  H14A19252   2.418   7.747  16.131  0.0434  1.0289  0.0222
  160DOPC  H14B19253   2.468   7.662  16.267  1.1252 -1.3351 -1.1463
  160DOPC  H14C19254   2.528   7.819  16.256  0.0207 -0.6634  2.1512
  160DOPC   C1519255   2.744   7.688  16.181 -0.1233 -0.5173 -0.2084
  160DOPC  H15A19256   2.828   7.676  16.115 -0.0652 -1.3442  0.0085
  160DOPC  H15B19257   2.742   7.617  16.262 -1.0448  0.2461  0.4681
  160DOPC  H15C19258   2.759   7.780  16.235  0.8957 -0.6507 -0.2627
  160DOPC   C1119259   2.506   7.807  15.890 -0.5735  0.6105  0.1470
  160DOPC  H11A19260   2.412   7.831  15.944 -1.3325 -3.1721  0.8287
  160DOPC  H11B19261   2.513   7.901  15.831 -0.9535 -0.5183 -1.7898
  160DOPC     P19262   2.579   7.669  15.683  0.0776  0.0341 -0.1098
  160DOPC   O1319263   2.544   7.545  15.618 -0.6086  0.3720  0.2258
  160DOPC   O1419264   2.721   7.687  15.727  0.2858 -0.4738 -0.4756
  160DOPC   O1219265   2.489   7.690  15.811 -0.3798  0.7201  0.6092
  160DOPC   O1119266   2.561   7.788  15.585  0.1473  0.6044  0.8460
  160DOPC    C119267   2.444   7.868  15.573 -0.0103 -0.2967  0.4207
  160DOPC    HA19268   2.472   7.958  15.514 -1.1576  2.0662  3.1947
  160DOPC    HB19269   2.402   7.912  15.666  2.0008  2.2638  0.2298
  160DOPC    C219270   2.328   7.800  15.486  0.1472  0.6412  0.3948
  160DOPC    HS19271   2.289   7.722  15.555 -1.2012  0.7031 -0.2853
  160DOPC   O2119272   2.391   7.747  15.367  0.3803 -0.1160  0.0435
  160DOPC   C2119273   2.319   7.655  15.311  0.1365  0.3169 -0.2443
  160DOPC   O2219274   2.221   7.598  15.359  0.1146 -0.0662 -0.0621
  160DOPC   C2219275   2.385   7.598  15.181  0.1997 -0.0157  0.4824
  160DOPC   H2R19276   2.445   7.508  15.208  1.9633  0.3183 -1.9869
  160DOPC   H2S19277   2.459   7.673  15.148  1.2544 -0.4496  1.7724
  160DOPC    C319278   2.215   7.903  15.459  0.0081 -0.5843 -0.3362
  160DOPC    HX19279   2.258   7.990  15.405 -1.3506  0.8316  0.7231
  160DOPC    HY19280   2.189   7.939  15.561 -0.6438  0.3851 -0.8213
  160DOPC   O3119281   2.106   7.845  15.385 -0.6013 -0.4580 -0.5469
  160DOPC   C3119282   2.015   7.796  15.465  0.2679  0.4895  0.1239
  160DOPC   O3219283   2.032   7.763  15.580  0.2073 -0.1110 -0.1648
  160DOPC   C3219284   1.893   7.758  15.376  0.1342  0.0444 -0.2331
  160DOPC   H2X19285   1.850   7.665  15.420 -0.9620  0.9707  0.7113
  160DOPC   H2Y19286   1.823   7.844  15.381  1.1931  0.9984 -1.2508
  160DOPC   C2319287   2.288   7.549  15.067  0.1385  0.7788 -0.4189
  160DOPC   H3R19288   2.234   7.639  15.031  1.0797  1.2347 -0.7258
  160DOPC   H3S19289   2.218   7.485  15.125  0.4624  2.5365  2.0766
  160DOPC   C2419290   2.358   7.478  14.949 -0.0885  0.4708  0.5246
  160DOPC   H4R19291   2.415   7.389  14.984 -1.0346 -0.6351 -0.6336
  160DOPC   H4S19292   2.436   7.540  14.902  0.1373 -0.3159 -0.1586
  160DOPC   C2519293   2.265   7.424  14.841  0.1346  0.1332 -0.0740
  160DOPC   H5R19294   2.221   7.514  14.792  3.9718  2.1306 -0.1965
  160DOPC   H5S19295   2.187   7.354  14.877  1.7114 -2.3351 -1.2416
  160DOPC   C2619296   2.334   7.371  14.715  0.2062 -0.0162 -0.3604
  160DOPC   H6R19297   2.365   7.265  14.730  0.3464  0.1515  0.6019
  160DOPC   H6S19298   2.426   7.427  14.687 -1.2811  0.9665 -3.8849
  160DOPC   C2719299   2.249   7.373  14.588 -0.6605  0.4728 -0.8312
  160DOPC   H7R19300   2.181   7.460  14.598 -2.0079 -0.2633 -2.8771
  160DOPC   H7S19301   2.182   7.285  14.596 -1.1480  0.8598 -0.6249
  160DOPC   C2819302   2.335   7.381  14.461 -0.7545  0.0840 -0.0682
  160DOPC   H8R19303   2.370   7.278  14.444  2.0140  0.2325  3.5663
  160DOPC   H8S19304   2.426   7.440  14.485 -1.7939  2.2534 -1.1042
  160DOPC   C2919305   2.253   7.439  14.343  0.0535  0.0543 -0.2307
  160DOPC   H9R19306   2.202   7.364  14.280 -1.6003 -0.7455  1.9391
  160DOPC  C21019307   2.231   7.570  14.307 -0.4779  0.8886  0.0787
  160DOPC  H10R19308   2.175   7.590  14.214  1.0783 -0.4299 -1.2128
  160DOPC  C21119309   2.291   7.679  14.392 -0.5539  0.6014 -0.1685
  160DOPC  H11R19310   2.394   7.649  14.422 -0.6928  1.0804  0.8190
  160DOPC  H11S19311   2.227   7.690  14.482 -1.7433 -1.3647 -0.6999
  160DOPC  C21219312   2.290   7.819  14.324 -0.5345  0.4081 -0.8575
  160DOPC  H12R19313   2.308   7.819  14.214  2.6943 -0.1931 -0.4169
  160DOPC  H12S19314   2.371   7.878  14.372  0.6868 -2.5841  1.0401
  160DOPC  C21319315   2.158   7.893  14.352 -0.1206  0.1593  0.0850
  160DOPC  H13R19316   2.146   7.892  14.462  0.3592 -2.4928  0.1743
  160DOPC  H13S19317   2.082   7.825  14.310  1.0530 -1.4167  0.4100
  160DOPC  C21419318   2.165   8.038  14.304  0.8945  0.1452 -0.9219
  160DOPC  H14R19319   2.073   8.082  14.348 -1.9081 -3.0851 -3.0487
  160DOPC  H14S19320   2.160   8.050  14.193 -1.2630 -1.2729 -1.0397
  160DOPC  C21519321   2.265   8.137  14.364  0.0651  0.0862 -0.4432
  160DOPC  H15R19322   2.263   8.237  14.317  1.0334  1.2524  1.8393
  160DOPC  H15S19323   2.368   8.095  14.353  0.6415  0.9453  1.2498
  160DOPC  C21619324   2.240   8.160  14.510 -0.8244 -0.4460 -0.3952
  160DOPC  H16R19325   2.239   8.062  14.561  1.1375  0.4482  1.4830
  160DOPC  H16S19326   2.135   8.196  14.522 -1.0649 -0.9309 -0.9562
  160DOPC  C21719327   2.335   8.257  14.585  0.9946  0.0221  0.5294
  160DOPC  H17R19328   2.336   8.348  14.521  0.2093 -1.1766 -1.2692
  160DOPC  H17S19329   2.431   8.208  14.611 -0.2071 -2.2316  1.0071
  160DOPC  C21819330   2.265   8.300  14.718 -0.2936 -0.3006 -0.2752
  160DOPC  H18R19331   2.252   8.205  14.773  0.2111 -0.7907 -0.9906
  160DOPC  H18S19332   2.171   8.343  14.677  0.1471  1.9166  0.8447
  160DOPC  H18T19333   2.312   8.378  14.783 -0.4863  1.4233 -2.0938
  160DOPC   C3319334   1.934   7.727  15.231  0.3134 -0.0532 -0.4571
  160DOPC   H3X19335   2.025   7.663  15.224  1.2577  1.3982 -2.1542
  160DOPC   H3Y19336   1.966   7.826  15.191 -0.8184  0.7124  0.4617
  160DOPC   C3419337   1.815   7.679  15.155 -0.3553 -0.9130 -0.4110
  160DOPC   H4X19338   1.766   7.602  15.219 -1.3307 -0.7503 -0.9376
  160DOPC   H4Y19339   1.843   7.630  15.060 -1.7168 -1.6071 -0.4767
  160DOPC   C3519340   1.708   7.781  15.119 -0.2495 -0.6610  0.1260
  160DOPC   H5X19341   1.737   7.857  15.043 -0.4778  0.3473  1.0224
  160DOPC   H5Y19342   1.660   7.831  15.206 -0.0984 -2.6827  1.4194
  160DOPC   C3619343   1.597   7.709  15.041 -0.6394 -1.0073  0.3018
  160DOPC   H6X19344   1.641   7.652  14.956  0.6939  0.0928  0.2088
  160DOPC   H6Y19345   1.555   7.641  15.118 -0.8636  0.8552  1.9275
  160DOPC   C3719346   1.489   7.798  14.978  0.6398  0.0886  0.0098
  160DOPC   H7X19347   1.441   7.865  15.053 -0.5762  0.7166 -1.2811
  160DOPC   H7Y19348   1.537   7.861  14.900 -2.1917  0.4277 -1.5844
  160DOPC   C3819349   1.382   7.714  14.908 -0.5366  0.5195 -0.1510
  160DOPC   H8X19350   1.424   7.656  14.824 -1.9026  2.0821 -2.0193
  160DOPC   H8Y19351   1.313   7.784  14.857  1.2346  1.9201 -0.7243
  160DOPC   C3919352   1.309   7.613  14.995  0.0432  0.0244  0.0862
  160DOPC   H9X19353   1.344   7.509  14.996 -0.1050 -0.0268  0.0447
  160DOPC  C31019354   1.192   7.644  15.055 -0.4152 -0.2108  0.1520
  160DOPC  H10X19355   1.128   7.569  15.103 -1.8193  1.8006  1.6114
  160DOPC  C31119356   1.123   7.778  15.052 -0.1498 -0.9833 -0.0529
  160DOPC  H11X19357   1.192   7.863  15.031  0.6257 -0.4840  3.7333
  160DOPC  H11Y19358   1.083   7.808  15.151  2.0651  0.6710  0.4281
  160DOPC  C31219359   1.011   7.786  14.945 -0.1212  0.3147 -0.4441
  160DOPC  H12X19360   1.065   7.781  14.848  0.1982 -0.7161 -0.2227
  160DOPC  H12Y19361   0.972   7.890  14.948  3.2051  1.6634  0.2006
  160DOPC  C31319362   0.896   7.678  14.940  0.0394  0.2273 -0.2132
  160DOPC  H13X19363   0.842   7.684  14.843  0.1030 -0.6842 -0.3173
  160DOPC  H13Y19364   0.949   7.580  14.939 -1.2127 -0.4703 -0.1352
  160DOPC  C31419365   0.798   7.685  15.065 -0.3055  0.1498  0.5230
  160DOPC  H14X19366   0.750   7.585  15.076  0.5709 -0.3700 -0.1678
  160DOPC  H14Y19367   0.859   7.696  15.157  2.0031  1.1028 -1.0065
  160DOPC  C31519368   0.697   7.800  15.065 -0.4567  0.4780 -0.0892
  160DOPC  H15X19369   0.632   7.810  14.976 -0.9454  0.3271  0.2474
  160DOPC  H15Y19370   0.753   7.896  15.068 -1.9842  1.3917  0.2823
  160DOPC  C31619371   0.607   7.816  15.191 -0.0318 -0.0804 -0.0771
  160DOPC  H16X19372   0.547   7.724  15.207 -2.3227  1.2436 -0.6736
  160DOPC  H16Y19373   0.667   7.836  15.283  0.3506 -1.5007  0.0161
  160DOPC  C31719374   0.500   7.936  15.181 -0.6006  0.4888  0.3531
  160DOPC  H17X19375   0.443   7.944  15.276 -0.0594  3.0778  0.5407
  160DOPC  H17Y19376   0.567   8.023  15.165  0.4154 -0.0970  1.2543
  160DOPC  C31819377   0.402   7.912  15.069  0.6698  0.6815 -0.6075
  160DOPC  H18X19378   0.316   7.981  15.073 -0.2497 -0.4373 -0.7058
  160DOPC  H18Y19379   0.459   7.923  14.974  1.6091 -0.9668 -0.2845
  160DOPC  H18Z19380   0.372   7.805  15.073  2.1476  0.2118 -1.1740
  161DOPC     N19381   4.162   8.273  15.727  0.2264  0.4897 -0.2066
  161DOPC   C1219382   4.296   8.350  15.728 -0.0086 -0.4142 -0.8941
  161DOPC  H12A19383   4.369   8.285  15.773  0.1005  0.2743 -0.0549
  161DOPC  H12B19384   4.284   8.429  15.800  0.4040  0.8909 -2.2051
  161DOPC   C1319385   4.133   8.206  15.862 -0.0762  0.3691  0.1364
  161DOPC  H13A19386   4.048   8.140  15.860  1.1878 -1.3323 -2.1693
  161DOPC  H13B19387   4.215   8.138  15.881  1.2687  0.9786 -2.9435
  161DOPC  H13C19388   4.138   8.279  15.942  3.8068  0.2896  0.1831
  161DOPC   C1419389   4.170   8.166  15.623  0.6179 -1.1497  0.4054
  161DOPC  H14A19390   4.084   8.100  15.621  1.7165 -2.6016 -0.0615
  161DOPC  H14B19391   4.179   8.209  15.524  1.0331 -1.0947  0.4672
  161DOPC  H14C19392   4.251   8.097  15.638  1.7385 -0.4722 -2.1497
  161DOPC   C1519393   4.052   8.369  15.698 -0.7006 -0.5334 -0.1919
  161DOPC  H15A19394   4.077   8.420  15.607  1.1118 -0.0626  0.5414
  161DOPC  H15B19395   4.037   8.437  15.780 -0.1526  0.7098 -1.0944
  161DOPC  H15C19396   3.957   8.319  15.682 -1.5950  0.5146  1.4781
  161DOPC   C1119397   4.349   8.419  15.597  0.1423 -0.2764 -0.0703
  161DOPC  H11A19398   4.454   8.445  15.622 -0.4318  0.3481  1.8389
  161DOPC  H11B19399   4.355   8.348  15.511 -1.9917 -3.5792  2.2929
  161DOPC     P19400   4.291   8.671  15.656  0.3236  0.0719  0.0587
  161DOPC   O1319401   4.365   8.641  15.778  0.1340  0.3854  0.5844
  161DOPC   O1419402   4.160   8.731  15.683  0.0507 -0.6304  0.3945
  161DOPC   O1219403   4.275   8.541  15.571 -0.2884 -0.0711  0.7584
  161DOPC   O1119404   4.378   8.770  15.561 -0.5075  0.4152 -0.0348
  161DOPC    C119405   4.491   8.719  15.491  0.0054 -0.0227  0.3698
  161DOPC    HA19406   4.531   8.627  15.538  1.0513  0.4678  0.4687
  161DOPC    HB19407   4.575   8.791  15.490 -0.2072  0.2296  0.5078
  161DOPC    C219408   4.462   8.674  15.340 -0.4027 -0.2155  0.1974
  161DOPC    HS19409   4.410   8.575  15.343 -1.3439  0.2809  0.8979
  161DOPC   O2119410   4.592   8.666  15.282  0.3891 -0.3743 -0.1399
  161DOPC   C2119411   4.614   8.574  15.186 -0.0896  0.2857 -0.1773
  161DOPC   O2219412   4.537   8.487  15.155  0.3734  0.6381  0.4204
  161DOPC   C2219413   4.751   8.594  15.135 -0.0275  0.2224  0.1236
  161DOPC   H2R19414   4.813   8.518  15.188  0.1016 -1.2081 -1.9747
  161DOPC   H2S19415   4.798   8.689  15.169  0.8996  1.4491 -4.0515
  161DOPC    C319416   4.367   8.768  15.265 -0.3968 -0.5274 -0.2562
  161DOPC    HX19417   4.412   8.868  15.248  0.0938 -0.7704 -0.3952
  161DOPC    HY19418   4.272   8.781  15.323  0.0806  1.0571  0.2232
  161DOPC   O3119419   4.328   8.717  15.137  0.1822  0.4355 -0.0437
  161DOPC   C3119420   4.226   8.623  15.130 -0.7481 -0.1101  0.7985
  161DOPC   O3219421   4.161   8.598  15.224  0.5688 -0.0081 -0.7937
  161DOPC   C3219422   4.209   8.571  14.984  0.2541  0.5261  0.1868
  161DOPC   H2X19423   4.213   8.651  14.907  0.4921 -0.1071 -0.4715
  161DOPC   H2Y19424   4.296   8.508  14.958  1.0757  0.9331  1.8300
  161DOPC   C2319425   4.753   8.560  14.988  0.1454  0.2317 -0.1629
  161DOPC   H3R19426   4.715   8.460  14.957  0.3216 -0.3931  1.5193
  161DOPC   H3S19427   4.858   8.567  14.954  0.2653  3.2676  0.5591
  161DOPC   C2419428   4.655   8.646  14.906 -0.7829 -0.2540  0.7282
  161DOPC   H4R19429   4.676   8.752  14.932  1.3132 -0.5936  0.6169
  161DOPC   H4S19430   4.549   8.628  14.935 -1.0623 -1.2807 -0.7931
  161DOPC   C2519431   4.674   8.612  14.757 -0.6123 -0.2238 -0.1008
  161DOPC   H5R19432   4.633   8.510  14.744 -1.0990  0.0164 -0.5148
  161DOPC   H5S19433   4.781   8.611  14.730 -0.6464  0.4025 -0.2910
  161DOPC   C2619434   4.587   8.708  14.673 -0.5404  0.0105 -0.4577
  161DOPC   H6R19435   4.655   8.796  14.664  0.6051 -0.5285  1.9953
  161DOPC   H6S19436   4.495   8.734  14.729  0.0472  2.5430 -0.5696
  161DOPC   C2719437   4.542   8.651  14.534  0.5079 -0.4213 -0.5787
  161DOPC   H7R19438   4.497   8.736  14.478  2.2217  1.0330  0.1737
  161DOPC   H7S19439   4.470   8.568  14.553 -0.6836  1.0040  1.5232
  161DOPC   C2819440   4.665   8.592  14.451  0.5431 -0.5992 -0.3111
  161DOPC   H8R19441   4.717   8.518  14.515 -1.7446 -1.1551  1.0323
  161DOPC   H8S19442   4.720   8.689  14.445 -2.1789  1.2852  2.1797
  161DOPC   C2919443   4.637   8.534  14.317  0.7077  0.4707  0.2558
  161DOPC   H9R19444   4.544   8.476  14.316 -0.5145  2.3168 -1.6210
  161DOPC  C21019445   4.700   8.542  14.198 -0.7937  0.3581 -0.0676
  161DOPC  H10R19446   4.652   8.487  14.116 -0.1017 -1.4713  0.6924
  161DOPC  C21119447   4.823   8.624  14.173 -0.3982 -0.6651 -0.6063
  161DOPC  H11R19448   4.838   8.711  14.241 -3.3113  0.0266 -0.7225
  161DOPC  H11S19449   4.812   8.669  14.072 -1.0187  2.1969  0.6256
  161DOPC  C21219450   4.956   8.540  14.183 -0.1223 -0.3577 -0.4483
  161DOPC  H12R19451   4.944   8.452  14.116  0.7101  1.3186 -2.9850
  161DOPC  H12S19452   4.961   8.511  14.290 -1.3004  1.3043  0.0941
  161DOPC  C21319453   5.080   8.620  14.137 -0.1975  0.4284 -0.6684
  161DOPC  H13R19454   5.170   8.556  14.146 -1.0223 -0.7483 -0.6587
  161DOPC  H13S19455   5.104   8.711  14.198  1.2131 -0.4030  0.0672
  161DOPC  C21419456   5.082   8.673  14.002  0.2279 -0.2225  0.3830
  161DOPC  H14R19457   4.990   8.730  13.980  0.9380  1.0441  0.6333
  161DOPC  H14S19458   5.078   8.586  13.933 -3.2540 -1.1709  1.5965
  161DOPC  C21519459   5.204   8.756  13.972 -0.1589  0.4081  0.8961
  161DOPC  H15R19460   5.283   8.686  14.005 -0.3028 -0.8738 -1.2933
  161DOPC  H15S19461   5.203   8.848  14.034 -1.6795  1.1360 -0.1405
  161DOPC  C21619462   5.234   8.790  13.825 -0.2371 -0.4101 -0.1899
  161DOPC  H16R19463   5.150   8.848  13.782 -1.4547 -1.6164  0.4717
  161DOPC  H16S19464   5.256   8.696  13.770 -0.0731 -2.0585  2.5012
  161DOPC  C21719465   5.364   8.863  13.824 -0.2796  0.1970 -0.1098
  161DOPC  H17R19466   5.435   8.785  13.862 -1.3135 -1.7489 -1.9369
  161DOPC  H17S19467   5.370   8.958  13.881  0.2030  1.2227 -1.7934
  161DOPC  C21819468   5.404   8.893  13.676 -0.1064 -0.0188 -0.5158
  161DOPC  H18R19469   5.350   8.976  13.626 -0.9199 -0.6041 -0.6164
  161DOPC  H18S19470   5.377   8.802  13.618  1.9894 -2.4421  2.0285
  161DOPC  H18T19471   5.512   8.922  13.673 -0.4724  1.5838  0.6182
  161DOPC   C3319472   4.090   8.482  14.976 -0.3509  0.5961 -0.1418
  161DOPC   H3X19473   3.995   8.540  14.981  0.7595  2.6519 -1.3206
  161DOPC   H3Y19474   4.085   8.404  15.055 -0.5701  0.9367  0.1842
  161DOPC   C3419475   4.092   8.400  14.848  0.3850  0.3021  0.2057
  161DOPC   H4X19476   4.010   8.326  14.839  0.1743  0.6286 -0.6299
  161DOPC   H4Y19477   4.178   8.330  14.861 -0.3599 -0.6254  0.2662
  161DOPC   C3519478   4.116   8.476  14.718  0.1921  0.2345 -0.6806
  161DOPC   H5X19479   4.219   8.514  14.699  0.5070 -1.0517 -1.7060
  161DOPC   H5Y19480   4.049   8.564  14.728  1.4364  1.5119 -2.7439
  161DOPC   C3619481   4.095   8.392  14.595  0.4681 -0.0250  0.0300
  161DOPC   H6X19482   4.144   8.292  14.604  1.4162  0.1336 -2.4457
  161DOPC   H6Y19483   3.989   8.363  14.583  0.6617  0.0764 -2.5025
  161DOPC   C3719484   4.145   8.448  14.466  0.1305  0.3559 -0.3227
  161DOPC   H7X19485   4.097   8.547  14.449 -0.4100  0.6129  2.3755
  161DOPC   H7Y19486   4.255   8.464  14.469  0.0209  1.1472  3.4397
  161DOPC   C3819487   4.114   8.361  14.345  0.5036 -0.3581  0.0356
  161DOPC   H8X19488   4.008   8.350  14.314  0.6805  1.2718 -1.2517
  161DOPC   H8Y19489   4.158   8.261  14.367 -1.6848 -1.0846  1.5037
  161DOPC   C3919490   4.172   8.425  14.226  0.2744 -0.4900  0.1215
  161DOPC   H9X19491   4.281   8.414  14.220  0.4014 -1.4144  2.7870
  161DOPC  C31019492   4.105   8.484  14.123 -0.0892  0.8170  0.0012
  161DOPC  H10X19493   4.174   8.503  14.039 -0.1652 -0.2198 -0.3075
  161DOPC  C31119494   3.960   8.505  14.102  0.0770  0.5200 -0.1920
  161DOPC  H11X19495   3.922   8.607  14.123 -1.8304 -0.8227  3.7131
  161DOPC  H11Y19496   3.902   8.436  14.165  2.3038 -0.3824  0.9945
  161DOPC  C31219497   3.920   8.480  13.957 -0.4947 -0.1517 -0.2202
  161DOPC  H12X19498   3.967   8.554  13.890  0.3150  0.1740  0.6818
  161DOPC  H12Y19499   3.809   8.490  13.956 -0.4818  0.3772  1.3735
  161DOPC  C31319500   3.950   8.337  13.903  0.5034 -0.2218 -0.1061
  161DOPC  H13X19501   4.061   8.333  13.902  0.8385  3.4088  2.3509
  161DOPC  H13Y19502   3.919   8.268  13.984  1.7204 -0.3052  0.3135
  161DOPC  C31419503   3.878   8.300  13.772 -0.1133 -0.3136 -0.2711
  161DOPC  H14X19504   3.882   8.190  13.760 -0.3120 -0.5400  1.4852
  161DOPC  H14Y19505   3.773   8.335  13.779  0.7495  2.1270  2.6076
  161DOPC  C31519506   3.950   8.357  13.644 -1.0316  0.0162  0.4467
  161DOPC  H15X19507   3.965   8.466  13.652 -1.3661  0.2990 -2.0582
  161DOPC  H15Y19508   3.897   8.343  13.547  0.6397  0.9841 -0.6396
  161DOPC  C31619509   4.095   8.312  13.629 -0.3723  0.4163  0.0181
  161DOPC  H16X19510   4.156   8.346  13.716  1.6362 -2.1170 -0.2654
  161DOPC  H16Y19511   4.108   8.202  13.633  1.5865  0.3318 -3.9791
  161DOPC  C31719512   4.171   8.361  13.505 -0.1207 -0.5153 -0.7596
  161DOPC  H17X19513   4.270   8.311  13.495 -0.0066 -1.0561  2.1614
  161DOPC  H17Y19514   4.104   8.340  13.419  1.8880 -1.0272 -2.2854
  161DOPC  C31819515   4.210   8.510  13.510  0.0507  1.0085 -1.4489
  161DOPC  H18X19516   4.294   8.523  13.582 -1.2635  0.4908  0.2330
  161DOPC  H18Y19517   4.240   8.540  13.407 -1.9894  0.0640 -2.3822
  161DOPC  H18Z19518   4.122   8.577  13.521  1.5967  3.4823 -3.1615
  162DOPC     N19519   1.261   7.144  15.913 -0.2259 -0.0942  0.1995
  162DOPC   C1219520   1.313   7.048  15.811 -0.0791  0.2769 -0.2213
  162DOPC  H12A19521   1.236   6.976  15.790  0.2506 -0.2181  0.2321
  162DOPC  H12B19522   1.381   6.977  15.857 -0.2739 -0.3875 -0.9340
  162DOPC   C1319523   1.167   7.251  15.859  0.2626 -0.2917  0.0647
  162DOPC  H13A19524   1.198   7.292  15.764 -0.6621 -1.5087 -0.8030
  162DOPC  H13B19525   1.072   7.201  15.845 -0.2778  0.5456  0.7036
  162DOPC  H13C19526   1.148   7.333  15.927 -0.5118  1.3563 -2.0408
  162DOPC   C1419527   1.382   7.219  15.977 -0.2596 -0.5090  0.4700
  162DOPC  H14A19528   1.432   7.276  15.901 -0.6039 -0.8425 -0.0172
  162DOPC  H14B19529   1.349   7.289  16.052 -2.5811 -1.8101  0.7762
  162DOPC  H14C19530   1.447   7.145  16.022 -2.5033 -1.3240  2.6381
  162DOPC   C1519531   1.191   7.069  16.018 -0.0287  0.5214  0.1295
  162DOPC  H15A19532   1.263   7.006  16.068 -1.4464 -1.0619  0.2715
  162DOPC  H15B19533   1.112   7.009  15.975  0.0215 -1.2191  2.2984
  162DOPC  H15C19534   1.147   7.133  16.093 -1.6591  0.6264 -0.8665
  162DOPC   C1119535   1.363   7.095  15.676 -0.3452 -0.5831  0.2398
  162DOPC  H11A19536   1.376   7.012  15.604  0.3787  0.3437 -0.7308
  162DOPC  H11B19537   1.278   7.155  15.637  0.5361  1.7224  1.6400
  162DOPC     P19538   1.621   7.137  15.622  0.1479  0.2233 -0.5359
  162DOPC   O1319539   1.655   7.002  15.668 -0.5665 -0.3546  0.0838
  162DOPC   O1419540   1.720   7.248  15.650 -0.3477  0.2002  0.2023
  162DOPC   O1219541   1.482   7.175  15.691 -0.6985  0.3712  0.3880
  162DOPC   O1119542   1.578   7.133  15.469  0.0800  0.6505  0.2845
  162DOPC    C119543   1.511   7.252  15.412 -0.0456 -0.6925  0.4020
  162DOPC    HA19544   1.575   7.300  15.335  2.1056  0.1542  2.5740
  162DOPC    HB19545   1.464   7.324  15.483 -0.3679 -0.8092  0.3081
  162DOPC    C219546   1.396   7.203  15.328 -0.2986  0.3018  0.8660
  162DOPC    HS19547   1.331   7.144  15.396  1.6955  0.7704  3.3387
  162DOPC   O2119548   1.461   7.113  15.230 -0.7228  0.4056 -0.1871
  162DOPC   C2119549   1.384   7.009  15.195  0.0038 -0.1680 -0.3291
  162DOPC   O2219550   1.280   6.977  15.249 -0.7220  0.0784  0.7131
  162DOPC   C2219551   1.440   6.940  15.070 -0.8294  0.1422  0.1998
  162DOPC   H2R19552   1.487   6.851  15.116 -0.4933 -0.6377 -1.5772
  162DOPC   H2S19553   1.509   7.006  15.014 -1.6809 -0.2124 -1.3196
  162DOPC    C319554   1.321   7.320  15.261  0.3560 -0.4217  0.3963
  162DOPC    HX19555   1.390   7.383  15.201 -0.3634 -1.2951 -1.4040
  162DOPC    HY19556   1.289   7.382  15.348  3.4823  0.0122  1.3659
  162DOPC   O3119557   1.219   7.278  15.172  0.0959 -0.0914 -0.1277
  162DOPC   C3119558   1.098   7.266  15.220 -0.8466  0.3765 -0.3626
  162DOPC   O3219559   1.067   7.300  15.331 -0.2975  0.0452 -0.1753
  162DOPC   C3219560   1.010   7.182  15.130  0.0791 -0.4596  0.1691
  162DOPC   H2X19561   1.055   7.176  15.028 -0.9558  1.6042 -0.4646
  162DOPC   H2Y19562   1.008   7.078  15.168  0.5425 -1.2488 -1.7967
  162DOPC   C2319563   1.324   6.902  14.984  0.2185  0.2496  0.2841
  162DOPC   H3R19564   1.237   6.856  15.036 -1.3571  1.8668 -0.7984
  162DOPC   H3S19565   1.359   6.834  14.904  2.3172  1.0317  0.4944
  162DOPC   C2419566   1.274   7.028  14.904 -0.2178  0.5307 -0.7212
  162DOPC   H4R19567   1.358   7.094  14.872 -1.2379  0.3419 -4.0749
  162DOPC   H4S19568   1.223   7.095  14.976  0.5535  1.1344 -0.7172
  162DOPC   C2519569   1.193   6.984  14.784 -0.0045  0.6701  0.2514
  162DOPC   H5R19570   1.096   6.947  14.824 -1.4712  3.6282 -0.2923
  162DOPC   H5S19571   1.249   6.899  14.740  0.6087  1.6867 -1.0087
  162DOPC   C2619572   1.171   7.084  14.666 -0.3997 -0.4150 -0.1915
  162DOPC   H6R19573   1.093   7.054  14.593  0.1776 -1.6753 -0.3154
  162DOPC   H6S19574   1.266   7.104  14.612 -0.7894  0.0915 -0.6984
  162DOPC   C2719575   1.129   7.226  14.715  0.5663  0.2145 -0.1071
  162DOPC   H7R19576   1.215   7.273  14.767  1.1324  1.0790 -1.7569
  162DOPC   H7S19577   1.052   7.211  14.795 -0.6732  0.0769 -1.2818
  162DOPC   C2819578   1.064   7.314  14.598 -0.8245  0.9175 -0.1308
  162DOPC   H8R19579   1.023   7.403  14.649  1.0856  1.2865  0.8749
  162DOPC   H8S19580   0.984   7.247  14.559 -0.1648 -1.5108  2.3330
  162DOPC   C2919581   1.158   7.354  14.484  0.2299  0.0303  0.0861
  162DOPC   H9R19582   1.241   7.285  14.469  0.8045  0.8263 -0.5042
  162DOPC  C21019583   1.153   7.467  14.416  0.6591 -0.5693  0.7136
  162DOPC  H10R19584   1.233   7.486  14.344  1.0773 -1.3162  0.9678
  162DOPC  C21119585   1.045   7.574  14.423  0.7157  0.5845  0.1812
  162DOPC  H11R19586   0.960   7.533  14.482 -0.5632  1.9445 -0.6798
  162DOPC  H11S19587   1.001   7.608  14.328 -2.1673 -0.0436  1.1997
  162DOPC  C21219588   1.097   7.695  14.510 -0.6041  0.1172  0.1824
  162DOPC  H12R19589   1.133   7.662  14.610 -0.0129  2.3780  0.7896
  162DOPC  H12S19590   1.009   7.760  14.528  0.2332  0.4461  3.8274
  162DOPC  C21319591   1.205   7.778  14.437  0.1509 -0.1892  0.4677
  162DOPC  H13R19592   1.166   7.819  14.341  0.8129 -0.3286  0.1290
  162DOPC  H13S19593   1.298   7.720  14.416 -2.4837 -4.1924 -1.4249
  162DOPC  C21419594   1.225   7.900  14.529  0.4517 -0.0070  0.9377
  162DOPC  H14R19595   1.251   7.860  14.630 -0.8273  1.2933  1.8124
  162DOPC  H14S19596   1.131   7.957  14.545 -0.9140 -2.6817  3.4822
  162DOPC  C21519597   1.338   7.999  14.478 -0.3596  0.5826  0.3066
  162DOPC  H15R19598   1.420   7.940  14.431 -3.3763 -1.5595 -2.7888
  162DOPC  H15S19599   1.380   8.061  14.559  0.6379 -0.5317  0.6678
  162DOPC  C21619600   1.291   8.093  14.370  0.7884 -0.6951  0.0205
  162DOPC  H16R19601   1.227   8.169  14.419  1.8693  0.0464  0.3108
  162DOPC  H16S19602   1.240   8.038  14.289  1.2762 -0.5822 -0.3688
  162DOPC  C21719603   1.404   8.164  14.298  0.2257  0.0444 -0.0214
  162DOPC  H17R19604   1.482   8.094  14.261  0.9195 -0.1203  1.6526
  162DOPC  H17S19605   1.455   8.230  14.372 -0.2050  0.8565 -0.4275
  162DOPC  C21819606   1.362   8.257  14.182  0.3573  0.3552 -0.3133
  162DOPC  H18R19607   1.269   8.217  14.135  0.5423  0.3982 -0.7208
  162DOPC  H18S19608   1.448   8.269  14.113  1.9375 -2.4959  0.9791
  162DOPC  H18T19609   1.342   8.353  14.234  2.4379 -0.0336  1.3597
  162DOPC   C3319610   0.863   7.236  15.140  0.2995  0.5149  0.1217
  162DOPC   H3X19611   0.837   7.340  15.111 -1.7550  0.2584  0.8443
  162DOPC   H3Y19612   0.815   7.224  15.240 -2.2609  1.1416 -0.9559
  162DOPC   C3419613   0.783   7.155  15.039  0.7545  0.3020 -0.2879
  162DOPC   H4X19614   0.795   7.045  15.053 -0.9169  0.1399  0.1370
  162DOPC   H4Y19615   0.816   7.188  14.938  0.2602  1.3710 -0.1133
  162DOPC   C3519616   0.628   7.170  15.045 -0.0858  0.4137 -0.2302
  162DOPC   H5X19617   0.611   7.266  14.991  0.4107 -0.4687 -2.0143
  162DOPC   H5Y19618   0.581   7.181  15.145 -2.7242  0.2782 -1.3762
  162DOPC   C3619619   0.553   7.059  14.973 -0.5755  0.0697 -0.7860
  162DOPC   H6X19620   0.605   6.964  15.000  0.0557  0.6274  0.0119
  162DOPC   H6Y19621   0.453   7.052  15.021 -0.4422 -2.4833 -0.7494
  162DOPC   C3719622   0.536   7.083  14.825 -0.3993  0.1569 -0.6029
  162DOPC   H7X19623   0.571   7.183  14.794  0.8594 -0.0590  0.0412
  162DOPC   H7Y19624   0.611   7.021  14.772 -1.8199 -0.6779 -1.7304
  162DOPC   C3819625   0.399   7.044  14.777 -0.1718  0.7349 -0.0757
  162DOPC   H8X19626   0.320   7.091  14.839 -1.1056  0.2401 -0.8695
  162DOPC   H8Y19627   0.398   6.934  14.790 -0.6626  0.7442 -0.0192
  162DOPC   C3919628   0.390   7.080  14.630  0.6107  0.4313 -0.1788
  162DOPC   H9X19629   0.478   7.045  14.575  0.8133  1.1598 -0.3244
  162DOPC  C31019630   0.285   7.138  14.573  0.1621  0.8523  0.8805
  162DOPC  H10X19631   0.302   7.184  14.474 -1.0871 -0.4708  0.0072
  162DOPC  C31119632   0.148   7.173  14.631 -0.0753  0.0456  0.0379
  162DOPC  H11X19633   0.089   7.240  14.564 -1.4498 -0.6941  0.4818
  162DOPC  H11Y19634   0.165   7.244  14.715  3.3104  2.3722 -2.3309
  162DOPC  C31219635   0.081   7.047  14.681  0.2705  0.4854 -0.5503
  162DOPC  H12X19636   0.151   7.004  14.757  1.2430  3.2406  0.2620
  162DOPC  H12Y19637   0.048   6.974  14.605 -0.3233 -0.9940  1.0580
  162DOPC  C31319638  -0.058   7.071  14.751 -0.1118  0.2969 -0.3487
  162DOPC  H13X19639  -0.103   7.153  14.692  0.4659  1.6302  0.9927
  162DOPC  H13Y19640  -0.130   6.986  14.751 -1.1639  1.1654 -0.0148
  162DOPC  C31419641  -0.047   7.122  14.899 -0.1325 -0.3097  0.2164
  162DOPC  H14X19642   0.039   7.191  14.916 -1.0323  1.0321 -0.4434
  162DOPC  H14Y19643  -0.146   7.170  14.917 -0.6750 -1.7575  1.2662
  162DOPC  C31519644  -0.044   7.008  15.007 -0.8750 -0.7291  0.4114
  162DOPC  H15X19645   0.031   6.935  14.971 -0.1970  0.1379  0.0102
  162DOPC  H15Y19646  -0.147   6.966  15.011 -0.4871 -1.7592 -0.1436
  162DOPC  C31619647  -0.004   7.077  15.135  0.0490  1.0619 -0.3972
  162DOPC  H16X19648   0.095   7.127  15.127  1.2586 -1.1640 -0.0208
  162DOPC  H16Y19649  -0.074   7.158  15.166 -0.2029  0.3223  1.0356
  162DOPC  C31719650  -0.002   6.963  15.240 -0.1927  0.3266 -0.4478
  162DOPC  H17X19651  -0.107   6.930  15.251 -0.5888  2.2664  3.3212
  162DOPC  H17Y19652   0.071   6.886  15.205  1.1884  2.4670 -2.6028
  162DOPC  C31819653   0.030   7.001  15.391  0.2540  0.8629 -1.0955
  162DOPC  H18X19654   0.112   7.075  15.394  1.4865 -0.4934 -0.1869
  162DOPC  H18Y19655  -0.057   7.046  15.444 -0.6973 -0.1235 -1.7607
  162DOPC  H18Z19656   0.062   6.913  15.451  0.0969  2.2120  1.0848
  163DOPC     N19657   0.395   3.586  16.486 -0.0469 -0.3480  0.0287
  163DOPC   C1219658   0.291   3.526  16.398  0.1819  0.3118  0.1458
  163DOPC  H12A19659   0.217   3.600  16.369  0.5646  0.9894  0.8518
  163DOPC  H12B19660   0.245   3.449  16.459 -2.1191  2.6296  1.5896
  163DOPC   C1319661   0.447   3.717  16.438 -0.2896 -0.4794 -0.2840
  163DOPC  H13A19662   0.370   3.792  16.425 -2.0949 -2.3953 -1.1093
  163DOPC  H13B19663   0.520   3.748  16.512  0.5192 -0.2607 -1.1544
  163DOPC  H13C19664   0.494   3.701  16.343 -1.0680 -0.8653 -0.6087
  163DOPC   C1419665   0.516   3.498  16.516  0.3675 -0.4849  0.0225
  163DOPC  H14A19666   0.586   3.508  16.434  0.2800  1.4200  0.1305
  163DOPC  H14B19667   0.567   3.530  16.605 -0.6334 -3.6425  1.8724
  163DOPC  H14C19668   0.480   3.398  16.530 -0.9632 -0.1151 -0.5705
  163DOPC   C1519669   0.328   3.606  16.615 -0.5630 -0.4915  0.4093
  163DOPC  H15A19670   0.283   3.525  16.670  1.0134 -0.4863  1.7805
  163DOPC  H15B19671   0.240   3.667  16.603 -1.0694 -0.6811  2.6005
  163DOPC  H15C19672   0.383   3.662  16.689 -1.2136  0.3749  0.2552
  163DOPC   C1119673   0.341   3.474  16.262  0.3765 -0.3631 -0.7080
  163DOPC  H11A19674   0.421   3.399  16.277  0.0118 -0.1837  3.2713
  163DOPC  H11B19675   0.247   3.432  16.219 -0.8611 -0.9319  2.2925
  163DOPC     P19676   0.301   3.684  16.107 -0.1361 -0.3521 -0.3387
  163DOPC   O1319677   0.391   3.792  16.066 -0.5063  0.1299  0.1340
  163DOPC   O1419678   0.194   3.732  16.200  0.5348  0.2161  0.2165
  163DOPC   O1219679   0.395   3.580  16.181 -0.3493 -0.3760 -0.3129
  163DOPC   O1119680   0.246   3.598  15.991 -0.1252  0.3261  0.2720
  163DOPC    C119681   0.310   3.484  15.938  0.4026  0.1729  0.1455
  163DOPC    HA19682   0.376   3.430  16.009 -0.3289 -1.9923 -0.7440
  163DOPC    HB19683   0.368   3.518  15.849 -1.9637  0.7911 -1.2645
  163DOPC    C219684   0.209   3.379  15.886  0.5292 -0.4062 -0.5815
  163DOPC    HS19685   0.168   3.320  15.971  0.2899 -1.0045 -1.0996
  163DOPC   O2119686   0.284   3.292  15.797  0.8605 -0.7838 -0.2823
  163DOPC   C2119687   0.230   3.179  15.752 -0.5385 -0.0987 -0.2211
  163DOPC   O2219688   0.127   3.133  15.799  0.0870  0.2701 -0.3035
  163DOPC   C2219689   0.326   3.111  15.660  0.3499 -0.7979 -0.3425
  163DOPC   H2R19690   0.416   3.077  15.716 -1.1181 -1.5194  1.6841
  163DOPC   H2S19691   0.353   3.181  15.578 -1.1920 -0.3060 -0.4578
  163DOPC    C319692   0.093   3.454  15.814 -0.4359 -0.4566  0.4325
  163DOPC    HX19693   0.140   3.530  15.748  0.7990 -0.7536  0.9321
  163DOPC    HY19694   0.045   3.525  15.884  0.0370 -1.2133  1.5617
  163DOPC   O3119695   0.006   3.368  15.734 -0.2657 -0.0631  0.4066
  163DOPC   C3119696  -0.094   3.322  15.800  0.3371  0.9639  0.6520
  163DOPC   O3219697  -0.129   3.346  15.914  0.5189 -0.0447  0.7525
  163DOPC   C3219698  -0.173   3.228  15.707 -0.1476  0.0102 -0.0834
  163DOPC   H2X19699  -0.110   3.205  15.618  3.2467  0.8573  1.9187
  163DOPC   H2Y19700  -0.190   3.129  15.754 -1.1884  0.7799  1.2210
  163DOPC   C2319701   0.265   2.972  15.603 -0.6847 -0.6863 -0.1172
  163DOPC   H3R19702   0.222   2.911  15.686  0.7525 -0.3320  0.9244
  163DOPC   H3S19703   0.355   2.920  15.564 -1.0445 -0.6506 -1.0094
  163DOPC   C2419704   0.144   2.999  15.516 -0.2463  0.6549 -0.3971
  163DOPC   H4R19705   0.185   3.037  15.420 -0.0177 -0.2645 -0.6736
  163DOPC   H4S19706   0.082   3.075  15.569  0.1869  1.2406 -0.7151
  163DOPC   C2519707   0.065   2.865  15.484  0.6145  0.5234 -0.1347
  163DOPC   H5R19708   0.000   2.831  15.568 -1.9562  0.6235 -1.9552
  163DOPC   H5S19709   0.146   2.794  15.455 -0.0482  0.1449 -1.1259
  163DOPC   C2619710  -0.037   2.872  15.371  0.7480 -0.1614  0.0512
  163DOPC   H6R19711  -0.069   2.769  15.344  0.9077 -0.9204  2.4958
  163DOPC   H6S19712   0.023   2.920  15.290  2.5421  1.0675  1.9902
  163DOPC   C2719713  -0.167   2.952  15.390 -0.4304 -0.2962  0.3753
  163DOPC   H7R19714  -0.143   3.050  15.435  1.4123 -0.5205 -0.0517
  163DOPC   H7S19715  -0.230   2.887  15.453 -1.7774  0.0370 -0.5759
  163DOPC   C2819716  -0.241   2.968  15.248 -0.8593 -0.2853  0.3589
  163DOPC   H8R19717  -0.345   2.998  15.272  0.5188  2.4819  3.9478
  163DOPC   H8S19718  -0.244   2.868  15.199  0.1638 -1.1759  1.9965
  163DOPC   C2919719  -0.177   3.072  15.162 -1.2018 -0.4919 -0.0378
  163DOPC   H9R19720  -0.180   3.175  15.202  0.4259  0.1284 -1.3927
  163DOPC  C21019721  -0.102   3.053  15.048 -0.3736 -0.7896 -0.0401
  163DOPC  H10R19722  -0.057   3.146  15.009 -1.5140  0.2847  1.1575
  163DOPC  C21119723  -0.069   2.916  14.985  0.2771  0.3515 -0.4053
  163DOPC  H11R19724  -0.131   2.889  14.896 -0.3464  0.2780  0.0488
  163DOPC  H11S19725  -0.091   2.844  15.067 -1.5620 -0.8060 -1.8015
  163DOPC  C21219726   0.079   2.906  14.954 -0.7918 -0.5236  0.0245
  163DOPC  H12R19727   0.143   2.954  15.031  1.1184 -0.6887 -1.3923
  163DOPC  H12S19728   0.084   2.968  14.862 -1.8294 -4.8605 -3.2701
  163DOPC  C21319729   0.132   2.765  14.921  0.2258  0.2988  0.2483
  163DOPC  H13R19730   0.232   2.786  14.877  0.2359  1.9192  0.9852
  163DOPC  H13S19731   0.075   2.713  14.842  1.8376  0.8290 -1.3349
  163DOPC  C21419732   0.148   2.666  15.042  0.2526 -0.6928 -0.0672
  163DOPC  H14R19733   0.050   2.681  15.092  0.5383  3.2235 -0.3654
  163DOPC  H14S19734   0.230   2.715  15.099 -0.5080 -1.5147  1.8038
  163DOPC  C21519735   0.177   2.517  15.018 -0.2853 -0.1698  0.8922
  163DOPC  H15R19736   0.274   2.516  14.965 -1.4259  0.9049 -1.3616
  163DOPC  H15S19737   0.098   2.470  14.956  0.9253  0.0834 -0.8877
  163DOPC  C21619738   0.191   2.431  15.136 -0.3093  0.0392  0.0769
  163DOPC  H16R19739   0.099   2.443  15.197 -1.1601  0.6642 -1.2793
  163DOPC  H16S19740   0.277   2.469  15.195 -0.3002 -0.8674  0.6659
  163DOPC  C21719741   0.197   2.284  15.104  0.1066  0.0257  0.3373
  163DOPC  H17R19742   0.297   2.282  15.054  0.4142 -3.0274  0.8565
  163DOPC  H17S19743   0.124   2.247  15.029 -1.4976  2.3845  0.6559
  163DOPC  C21819744   0.188   2.203  15.233  0.1913  0.2769  0.5243
  163DOPC  H18R19745   0.093   2.220  15.288  0.2965  0.1593  0.7441
  163DOPC  H18S19746   0.277   2.226  15.296  0.3581 -0.1982  0.4647
  163DOPC  H18T19747   0.193   2.096  15.203  0.4995  0.7383 -1.1387
  163DOPC   C3319748  -0.314   3.281  15.675 -0.2402  0.2863 -0.5631
  163DOPC   H3X19749  -0.361   3.318  15.768  3.1889 -0.4310  1.6475
  163DOPC   H3Y19750  -0.374   3.200  15.628 -2.2274  1.0309  0.6042
  163DOPC   C3419751  -0.306   3.394  15.576  0.2368 -0.0970  0.2526
  163DOPC   H4X19752  -0.400   3.387  15.516 -0.0317  4.2695 -0.1467
  163DOPC   H4Y19753  -0.216   3.392  15.510  0.1326  1.8063 -0.0101
  163DOPC   C3519754  -0.331   3.532  15.642 -0.9474  0.7512  0.4930
  163DOPC   H5X19755  -0.243   3.547  15.708 -0.4861  0.7296 -0.0988
  163DOPC   H5Y19756  -0.423   3.548  15.701 -0.6876  1.8958  0.6210
  163DOPC   C3619757  -0.315   3.652  15.548  0.8954 -0.1549  0.0791
  163DOPC   H6X19758  -0.323   3.741  15.615 -1.6008 -0.6961  0.5879
  163DOPC   H6Y19759  -0.214   3.641  15.503  0.0146  1.0092 -2.3314
  163DOPC   C3719760  -0.427   3.652  15.445 -0.7593  0.8860 -0.8860
  163DOPC   H7X19761  -0.409   3.562  15.382  0.8767 -0.1006  0.8647
  163DOPC   H7Y19762  -0.521   3.652  15.503 -0.3445  0.2078 -0.1912
  163DOPC   C3819763  -0.432   3.775  15.356 -0.4970 -0.4322  0.5290
  163DOPC   H8X19764  -0.343   3.777  15.290 -1.0346 -1.9788 -0.2765
  163DOPC   H8Y19765  -0.420   3.862  15.424 -0.8226 -0.2049  0.2995
  163DOPC   C3919766  -0.546   3.792  15.263  0.4767  0.2323  0.6638
  163DOPC   H9X19767  -0.527   3.761  15.159  0.7681 -1.3918  1.1793
  163DOPC  C31019768  -0.673   3.825  15.299 -0.1332 -0.6028 -0.3223
  163DOPC  H10X19769  -0.750   3.827  15.219 -1.3919  1.5523  0.8517
  163DOPC  C31119770  -0.735   3.838  15.443 -0.5438 -0.0549  0.1105
  163DOPC  H11X19771  -0.783   3.938  15.444 -1.8911 -0.6309 -1.4956
  163DOPC  H11Y19772  -0.653   3.837  15.518 -1.1612 -1.1635  0.7985
  163DOPC  C31219773  -0.836   3.725  15.467  0.0639  0.4819 -0.1890
  163DOPC  H12X19774  -0.840   3.709  15.577 -1.4130 -0.3652 -0.3348
  163DOPC  H12Y19775  -0.792   3.632  15.426  1.6461  1.8155 -1.7004
  163DOPC  C31319776  -0.982   3.747  15.418  0.1779 -0.1783  0.2801
  163DOPC  H13X19777  -1.010   3.848  15.457 -1.2096 -1.0374  1.6255
  163DOPC  H13Y19778  -0.967   3.744  15.308  0.9281 -2.0659  0.4021
  163DOPC  C31419779  -1.086   3.639  15.465 -0.0644  0.4907 -0.0345
  163DOPC  H14X19780  -1.167   3.631  15.389  0.7824  0.2232 -0.9354
  163DOPC  H14Y19781  -1.019   3.551  15.466  1.0879  1.3489  0.2742
  163DOPC  C31519782  -1.145   3.661  15.602 -0.4981  0.0892 -0.3848
  163DOPC  H15X19783  -1.213   3.749  15.600  1.3707  1.5820 -1.2662
  163DOPC  H15Y19784  -1.071   3.684  15.681 -0.8265  1.8982 -0.5607
  163DOPC  C31619785  -1.231   3.543  15.648 -0.7257 -0.1907 -0.3631
  163DOPC  H16X19786  -1.160   3.458  15.652  0.5256  0.8494  0.8353
  163DOPC  H16Y19787  -1.250   3.556  15.757 -0.3879  0.7955 -0.4073
  163DOPC  C31719788  -1.366   3.527  15.567  0.1539  0.0154  0.0473
  163DOPC  H17X19789  -1.343   3.540  15.459  1.8877  0.4275  0.4357
  163DOPC  H17Y19790  -1.397   3.421  15.578  0.6212 -0.0461  0.8591
  163DOPC  C31819791  -1.472   3.627  15.614  0.1227 -0.6583  0.0581
  163DOPC  H18X19792  -1.479   3.646  15.723  2.7590 -0.4162  0.2284
  163DOPC  H18Y19793  -1.448   3.726  15.570 -3.2204  0.3576  0.2014
  163DOPC  H18Z19794  -1.575   3.594  15.588  0.4439 -0.5548 -1.3881
  164DOPC     N19795   2.010   1.548  15.723 -0.0838  0.2986 -0.3751
  164DOPC   C1219796   1.955   1.491  15.593  0.0764 -0.5039 -0.2155
  164DOPC  H12A19797   1.900   1.398  15.598 -1.0585  0.1358 -0.3507
  164DOPC  H12B19798   2.032   1.488  15.519  1.1189  0.7985  0.7702
  164DOPC   C1319799   2.131   1.480  15.770  0.1499  0.0951  0.7474
  164DOPC  H13A19800   2.207   1.478  15.694 -1.2645 -1.2177 -0.7097
  164DOPC  H13B19801   2.172   1.536  15.853 -1.8196  1.1482  1.0638
  164DOPC  H13C19802   2.104   1.382  15.806 -3.2626  1.5872  2.7628
  164DOPC   C1419803   1.912   1.535  15.834 -0.1951 -0.0910  0.3583
  164DOPC  H14A19804   1.909   1.429  15.854  1.0565 -0.5059 -1.4199
  164DOPC  H14B19805   1.941   1.596  15.918  0.3428  2.0203 -1.2698
  164DOPC  H14C19806   1.816   1.569  15.799 -1.4989 -2.7731  1.0658
  164DOPC   C1519807   2.051   1.697  15.698 -0.0656 -0.0138 -0.1479
  164DOPC  H15A19808   2.128   1.707  15.623  0.5764  2.7232  0.7598
  164DOPC  H15B19809   2.095   1.742  15.785  0.4834 -1.3633  0.2936
  164DOPC  H15C19810   1.962   1.747  15.661  0.6879 -0.2866 -2.4536
  164DOPC   C1119811   1.852   1.587  15.520 -0.4223 -0.1825  0.2194
  164DOPC  H11A19812   1.912   1.679  15.506 -0.3926  0.0877  1.8809
  164DOPC  H11B19813   1.821   1.539  15.425  2.3342  1.0562 -1.4215
  164DOPC     P19814   1.589   1.603  15.566  0.1910  0.0855  0.0407
  164DOPC   O1319815   1.504   1.671  15.668 -0.0447 -0.2579 -0.1070
  164DOPC   O1419816   1.555   1.468  15.537  0.3924  0.1635  0.3441
  164DOPC   O1219817   1.739   1.612  15.604  0.1084 -0.3108  0.1226
  164DOPC   O1119818   1.584   1.690  15.434  0.2587  0.1123  0.3003
  164DOPC    C119819   1.465   1.719  15.362  0.2938 -0.5112 -0.1198
  164DOPC    HA19820   1.496   1.802  15.295  0.4968  0.0539  0.6714
  164DOPC    HB19821   1.381   1.753  15.426  2.2436  1.6764  1.4136
  164DOPC    C219822   1.409   1.600  15.277 -0.4961  0.2963  0.3596
  164DOPC    HS19823   1.366   1.537  15.359 -1.9122  1.9286  0.9361
  164DOPC   O2119824   1.516   1.536  15.201  0.1195  0.5620 -0.2675
  164DOPC   C2119825   1.504   1.406  15.199 -0.0705 -1.0264  0.5070
  164DOPC   O2219826   1.428   1.342  15.275 -0.7042  0.3740  0.0186
  164DOPC   C2219827   1.596   1.351  15.085  0.0274 -0.7874  0.7849
  164DOPC   H2R19828   1.691   1.325  15.139 -0.2062 -1.3850  0.9216
  164DOPC   H2S19829   1.603   1.431  15.009  1.4439 -1.0924  0.5528
  164DOPC    C319830   1.295   1.649  15.185 -0.1956 -0.5468 -0.5788
  164DOPC    HX19831   1.350   1.705  15.108 -0.8611 -1.2837 -1.6235
  164DOPC    HY19832   1.231   1.720  15.241  0.0714 -0.5493 -0.2655
  164DOPC   O3119833   1.240   1.533  15.126  0.2190 -0.2606 -0.3443
  164DOPC   C3119834   1.116   1.500  15.170 -0.0947 -0.2626 -0.5150
  164DOPC   O3219835   1.056   1.553  15.266 -0.2890  0.0244  0.3388
  164DOPC   C3219836   1.050   1.387  15.093 -0.6822  0.1535 -0.1602
  164DOPC   H2X19837   1.116   1.366  15.006  1.1357 -0.4029  1.2804
  164DOPC   H2Y19838   1.066   1.304  15.165  3.3184  1.8459  1.1755
  164DOPC   C2319839   1.541   1.228  15.014 -1.0142  0.7150 -0.0587
  164DOPC   H3R19840   1.511   1.152  15.089 -0.6296 -0.2306 -0.8404
  164DOPC   H3S19841   1.627   1.191  14.955  0.1797  0.8804  1.5183
  164DOPC   C2419842   1.426   1.242  14.915  0.2247  0.2387  0.3544
  164DOPC   H4R19843   1.465   1.323  14.850  1.1249 -1.8067 -1.7767
  164DOPC   H4S19844   1.335   1.283  14.963 -0.0698  1.9850 -1.5523
  164DOPC   C2519845   1.392   1.113  14.836  0.0218  0.1952  0.8138
  164DOPC   H5R19846   1.303   1.137  14.774  0.6337  1.6992  0.4693
  164DOPC   H5S19847   1.373   1.031  14.908  0.0638  0.1901  0.8194
  164DOPC   C2619848   1.505   1.070  14.739 -0.0658  0.1639  0.2310
  164DOPC   H6R19849   1.601   1.044  14.789 -0.9166 -1.8281  0.9258
  164DOPC   H6S19850   1.522   1.165  14.683  0.1748  0.1654  0.3045
  164DOPC   C2719851   1.466   0.953  14.647  0.6494 -0.1478  0.1796
  164DOPC   H7R19852   1.365   0.972  14.606  0.5515 -2.2295 -0.6616
  164DOPC   H7S19853   1.455   0.857  14.702 -0.8627  0.4304  0.9355
  164DOPC   C2819854   1.564   0.941  14.528 -0.3466 -0.2997 -0.0210
  164DOPC   H8R19855   1.667   0.960  14.565 -0.5401  0.7104  0.0233
  164DOPC   H8S19856   1.539   1.026  14.462  1.4256 -0.0797 -0.4781
  164DOPC   C2919857   1.569   0.812  14.446  0.2955 -0.2575 -0.2188
  164DOPC   H9R19858   1.667   0.766  14.465 -0.0303 -1.0770 -0.4921
  164DOPC  C21019859   1.482   0.756  14.365  0.6565 -0.2660  0.3732
  164DOPC  H10R19860   1.495   0.664  14.306 -1.2057 -1.8990  2.3420
  164DOPC  C21119861   1.346   0.810  14.340  0.0774 -0.6699  0.2529
  164DOPC  H11R19862   1.321   0.900  14.401 -1.0200 -2.0919  1.9677
  164DOPC  H11S19863   1.275   0.728  14.361 -2.5910  0.5504 -3.1293
  164DOPC  C21219864   1.334   0.847  14.193  0.1249 -0.7863  0.0489
  164DOPC  H12R19865   1.347   0.758  14.128  2.6858  1.0359 -2.1815
  164DOPC  H12S19866   1.415   0.913  14.154 -1.4950 -0.1259 -2.4398
  164DOPC  C21319867   1.202   0.911  14.157  0.0774 -0.0534  0.1994
  164DOPC  H13R19868   1.206   0.941  14.050  2.5533  1.3455  0.5894
  164DOPC  H13S19869   1.190   1.006  14.214 -1.2828  0.6251 -1.1438
  164DOPC  C21419870   1.066   0.843  14.183 -0.0386 -0.5159  0.1302
  164DOPC  H14R19871   1.060   0.832  14.293  2.7282 -0.1879  0.3833
  164DOPC  H14S19872   1.060   0.740  14.142 -0.6842  0.1189 -1.4643
  164DOPC  C21519873   0.957   0.929  14.119  0.0314  0.5563 -0.2626
  164DOPC  H15R19874   0.990   0.921  14.013  0.7857  2.8161 -0.2581
  164DOPC  H15S19875   0.966   1.034  14.156 -3.2639  0.3013  1.6571
  164DOPC  C21619876   0.811   0.884  14.126 -0.2986 -0.0543 -0.1210
  164DOPC  H16R19877   0.778   0.876  14.232 -1.3875  1.6341 -0.3026
  164DOPC  H16S19878   0.805   0.782  14.082 -1.2505  0.3364 -0.9338
  164DOPC  C21719879   0.717   0.973  14.045  0.2474  0.7310 -0.2749
  164DOPC  H17R19880   0.641   0.905  14.000  1.2690 -0.1084 -0.7581
  164DOPC  H17S19881   0.772   1.017  13.960  2.1235 -1.0903 -0.1008
  164DOPC  C21819882   0.651   1.087  14.121  0.0243 -0.0895 -0.2007
  164DOPC  H18R19883   0.612   1.057  14.220  1.4430  1.5624  0.9015
  164DOPC  H18S19884   0.573   1.130  14.054 -2.2498 -3.9588 -0.2909
  164DOPC  H18T19885   0.725   1.167  14.143  1.1267 -0.6877 -1.5378
  164DOPC   C3319886   0.913   1.410  15.043  0.3176 -0.9119  0.0272
  164DOPC   H3X19887   0.894   1.346  14.954 -0.9320 -0.6261  0.0743
  164DOPC   H3Y19888   0.921   1.515  15.008  0.0498 -1.6773 -2.6098
  164DOPC   C3419889   0.786   1.420  15.133  0.0042  0.5707  0.3373
  164DOPC   H4X19890   0.805   1.501  15.206 -0.3749 -0.4597  1.6236
  164DOPC   H4Y19891   0.776   1.325  15.190  0.0546  1.2548  1.5108
  164DOPC   C3519892   0.656   1.436  15.053  0.0769  0.4113 -0.5368
  164DOPC   H5X19893   0.654   1.379  14.958  1.3365 -1.8048  0.6924
  164DOPC   H5Y19894   0.644   1.542  15.023 -0.3775  1.1662  2.0941
  164DOPC   C3619895   0.531   1.399  15.134 -0.0544 -0.5781  0.0515
  164DOPC   H6X19896   0.552   1.295  15.166 -1.7983 -0.4487  1.7581
  164DOPC   H6Y19897   0.528   1.451  15.232  1.1589 -1.9526  0.8697
  164DOPC   C3719898   0.400   1.410  15.058 -0.0045 -0.5623 -0.0572
  164DOPC   H7X19899   0.401   1.506  15.002  1.9789 -0.7510 -0.4020
  164DOPC   H7Y19900   0.393   1.331  14.981  1.7297 -0.4300 -0.3853
  164DOPC   C3819901   0.271   1.417  15.139 -0.1901 -0.7313  0.0341
  164DOPC   H8X19902   0.188   1.448  15.071 -0.5416 -0.1461  0.7186
  164DOPC   H8Y19903   0.280   1.506  15.205  1.1736 -1.0604  0.3234
  164DOPC   C3919904   0.250   1.289  15.213  0.2464  0.3373  0.4362
  164DOPC   H9X19905   0.336   1.256  15.273 -0.5842 -0.5835  1.1416
  164DOPC  C31019906   0.127   1.231  15.220 -0.3029 -0.3372 -0.3391
  164DOPC  H10X19907   0.119   1.135  15.273 -1.4880 -0.4312 -0.6398
  164DOPC  C31119908  -0.006   1.285  15.173  0.1621 -0.1079 -0.3696
  164DOPC  H11X19909   0.000   1.390  15.139  0.4703 -0.3652 -1.1425
  164DOPC  H11Y19910  -0.072   1.288  15.263 -1.7361  1.1710 -1.7251
  164DOPC  C31219911  -0.073   1.205  15.063  0.3106  0.4854 -0.1825
  164DOPC  H12X19912  -0.157   1.269  15.028 -0.0505 -0.4719 -1.1247
  164DOPC  H12Y19913  -0.120   1.110  15.098 -3.6939  2.1926 -0.3915
  164DOPC  C31319914   0.021   1.174  14.948 -0.4882  0.4616 -0.7231
  164DOPC  H13X19915   0.061   1.263  14.896  1.2163 -0.2340 -0.6685
  164DOPC  H13Y19916   0.111   1.116  14.978 -0.1579  0.9492 -0.7632
  164DOPC  C31419917  -0.072   1.121  14.835  1.0184 -0.2879 -0.1007
  164DOPC  H14X19918  -0.155   1.190  14.810  1.1964  0.6122  1.5775
  164DOPC  H14Y19919  -0.124   1.035  14.881  1.6367 -0.6882 -0.1347
  164DOPC  C31519920   0.003   1.090  14.706  0.0324 -0.2338 -0.1958
  164DOPC  H15X19921   0.088   1.019  14.714  2.4700  2.5462  0.0322
  164DOPC  H15Y19922   0.048   1.182  14.664  2.0016 -2.0478 -2.3108
  164DOPC  C31619923  -0.088   1.021  14.602  0.9182 -0.2880 -0.0873
  164DOPC  H16X19924  -0.137   0.931  14.646 -1.3804  1.1907  0.5126
  164DOPC  H16Y19925  -0.161   1.098  14.573  1.9408  1.2184  1.2046
  164DOPC  C31719926  -0.015   0.975  14.471 -0.3166 -0.6187  0.1346
  164DOPC  H17X19927   0.064   1.046  14.438 -0.6814 -0.6343 -0.8043
  164DOPC  H17Y19928   0.038   0.879  14.488 -0.0556 -0.6392 -0.7381
  164DOPC  C31819929  -0.101   0.956  14.347 -0.4794  0.1659  0.0206
  164DOPC  H18X19930  -0.160   1.048  14.326 -0.5416  0.4780  1.4525
  164DOPC  H18Y19931  -0.038   0.940  14.257  0.7403  0.6212  0.7663
  164DOPC  H18Z19932  -0.162   0.863  14.350  2.8142 -2.1494  0.9315
  165DOPC     N19933   7.263   0.930  16.000  0.9932  0.2089  0.6633
  165DOPC   C1219934   7.212   1.040  15.907  0.1101  0.1674 -0.4540
  165DOPC  H12A19935   7.263   1.030  15.813  2.4970  0.8162  0.6844
  165DOPC  H12B19936   7.247   1.127  15.960  1.9445 -0.5176 -0.4713
  165DOPC   C1319937   7.211   0.792  15.959  0.2694 -0.6094  0.1324
  165DOPC  H13A19938   7.220   0.776  15.853 -1.5902 -0.1573 -0.1258
  165DOPC  H13B19939   7.260   0.716  16.018  0.3892  0.2128  1.1214
  165DOPC  H13C19940   7.105   0.783  15.979  0.5588 -0.7520  1.7491
  165DOPC   C1419941   7.218   0.953  16.139  0.1347 -0.2680 -0.0395
  165DOPC  H14A19942   7.111   0.972  16.140 -0.1687 -1.4064  3.9844
  165DOPC  H14B19943   7.238   0.878  16.215 -1.7202 -1.0175 -0.2296
  165DOPC  H14C19944   7.258   1.042  16.185  0.1427 -0.3986  0.2075
  165DOPC   C1519945   7.415   0.926  15.988  0.2976 -0.4517 -0.5450
  165DOPC  H15A19946   7.454   1.020  16.023 -1.2205  0.6976 -1.7564
  165DOPC  H15B19947   7.452   0.904  15.889  0.9702  1.5853 -0.7806
  165DOPC  H15C19948   7.448   0.848  16.055 -0.1829 -0.9994 -0.9348
  165DOPC   C1119949   7.054   1.049  15.878  0.3810 -0.5598  0.0582
  165DOPC  H11A19950   7.044   1.152  15.836  0.9162  0.5944  2.5506
  165DOPC  H11B19951   7.031   0.983  15.792 -0.6156 -0.7273  0.4424
  165DOPC     P19952   6.852   0.970  16.016  0.1113 -0.2591  0.1529
  165DOPC   O1319953   6.759   1.046  16.110 -0.1637  0.1941  0.1237
  165DOPC   O1419954   6.883   0.836  16.057  0.5947  0.6967  0.1063
  165DOPC   O1219955   6.978   1.051  15.995 -0.1662 -0.1964 -0.4203
  165DOPC   O1119956   6.786   0.969  15.881  0.4157  0.1170  0.1801
  165DOPC    C119957   6.686   1.070  15.846  0.2488  0.5170 -0.1718
  165DOPC    HA19958   6.717   1.173  15.872  0.9426  0.3356 -0.2516
  165DOPC    HB19959   6.588   1.051  15.895  0.1726  0.2706 -0.4196
  165DOPC    C219960   6.656   1.061  15.690 -0.0892  0.3179 -0.1506
  165DOPC    HS19961   6.558   1.107  15.668 -0.3231  1.1111  2.2228
  165DOPC   O2119962   6.665   0.924  15.644 -0.3076 -0.6784 -0.8382
  165DOPC   C2119963   6.544   0.872  15.622 -0.0868 -0.2266 -0.0429
  165DOPC   O2219964   6.437   0.916  15.661 -0.5562 -0.5393  0.0258
  165DOPC   C2219965   6.563   0.740  15.553  0.5129  0.5033 -0.1707
  165DOPC   H2R19966   6.581   0.668  15.635  0.6600  2.0314  1.1886
  165DOPC   H2S19967   6.661   0.749  15.501  1.0023  1.9905  0.9169
  165DOPC    C319968   6.762   1.145  15.617  0.0839 -0.1350 -0.4925
  165DOPC    HX19969   6.860   1.100  15.642 -1.0510 -3.1690 -1.1455
  165DOPC    HY19970   6.752   1.246  15.663 -0.8220  0.5061 -2.0400
  165DOPC   O3119971   6.732   1.152  15.473  0.4987  0.0907 -0.1670
  165DOPC   C3119972   6.805   1.061  15.407 -0.0983 -1.1966  0.3175
  165DOPC   O3219973   6.882   0.978  15.461  0.1072 -0.5065 -0.3873
  165DOPC   C3219974   6.780   1.088  15.263  0.0120 -0.2398  0.5567
  165DOPC   H2X19975   6.670   1.095  15.245 -0.0402  1.3062  1.3305
  165DOPC   H2Y19976   6.812   1.193  15.248  0.6502 -0.1094  2.5145
  165DOPC   C2319977   6.450   0.693  15.456  0.3932 -0.2726 -0.0057
  165DOPC   H3R19978   6.354   0.718  15.507  0.5022 -0.6441  0.3857
  165DOPC   H3S19979   6.456   0.583  15.444  0.0851 -0.3946  0.8433
  165DOPC   C2419980   6.463   0.768  15.325 -0.6068  0.0049  0.2459
  165DOPC   H4R19981   6.556   0.741  15.271 -1.0342  0.5006 -0.7683
  165DOPC   H4S19982   6.483   0.874  15.353  0.9841  0.1481 -1.2502
  165DOPC   C2519983   6.345   0.752  15.232 -0.1773  0.5665 -0.2336
  165DOPC   H5R19984   6.254   0.753  15.294  0.0358  0.8225  0.0754
  165DOPC   H5S19985   6.360   0.654  15.181  0.2277  0.4271  0.1481
  165DOPC   C2619986   6.338   0.859  15.128  0.7059 -0.7750 -0.0675
  165DOPC   H6R19987   6.322   0.955  15.182 -1.2341 -0.0412 -1.8314
  165DOPC   H6S19988   6.254   0.846  15.057  0.4371  1.7603 -0.3289
  165DOPC   C2719989   6.462   0.878  15.045  0.4010 -0.3610  0.7575
  165DOPC   H7R19990   6.471   0.777  15.000  0.4492  0.8386 -2.1558
  165DOPC   H7S19991   6.542   0.903  15.118 -0.4714  0.2220  1.5382
  165DOPC   C2819992   6.456   0.988  14.937 -0.5374 -0.0625 -0.1758
  165DOPC   H8R19993   6.547   0.992  14.872 -1.1358 -0.0970 -1.0374
  165DOPC   H8S19994   6.452   1.086  14.988 -0.8851 -1.3828  2.4630
  165DOPC   C2919995   6.337   0.969  14.851  0.2168  0.6483  0.4379
  165DOPC   H9R19996   6.354   0.901  14.767  0.1317 -1.2074  1.8681
  165DOPC  C21019997   6.218   1.029  14.859 -0.1450  0.2027 -0.5600
  165DOPC  H10R19998   6.142   0.998  14.784 -0.7931 -1.3351  0.6710
  165DOPC  C21119999   6.165   1.136  14.949 -0.6647 -0.1989  0.0156
  165DOPC  H11R20000   6.228   1.146  15.040 -3.0656  0.4545  1.6955
  165DOPC  H11S20001   6.063   1.101  14.977 -1.3445 -1.7639 -3.8493
  165DOPC  C21220002   6.158   1.276  14.893 -0.3615  0.3713  0.9544
  165DOPC  H12R20003   6.060   1.291  14.842 -0.9499  0.1355  1.9871
  165DOPC  H12S20004   6.233   1.284  14.812  0.2383 -2.8941  1.0829
  165DOPC  C21320005   6.161   1.381  14.998 -0.3433 -0.4106 -0.3469
  165DOPC  H13R20006   6.176   1.473  14.937  4.6149 -0.9442 -0.3364
  165DOPC  H13S20007   6.256   1.371  15.055 -0.3742  2.1918  0.3014
  165DOPC  C21420008   6.042   1.394  15.089 -0.5062  0.5095  0.2800
  165DOPC  H14R20009   6.021   1.297  15.138 -4.4225  0.8949 -0.2992
  165DOPC  H14S20010   5.951   1.416  15.028 -2.2711 -1.7380  1.9659
  165DOPC  C21520011   6.061   1.503  15.200 -0.9333 -0.0991  0.5665
  165DOPC  H15R20012   6.147   1.471  15.263  0.2619 -1.4501 -1.6355
  165DOPC  H15S20013   5.974   1.520  15.266 -0.7704  1.2868  0.4477
  165DOPC  C21620014   6.100   1.641  15.143  0.1190 -0.0038  0.2805
  165DOPC  H16R20015   6.023   1.659  15.066  1.2493  2.6997 -0.3346
  165DOPC  H16S20016   6.194   1.645  15.084  0.1768 -0.8094  0.3079
  165DOPC  C21720017   6.093   1.763  15.240  0.1540 -0.4135  0.0782
  165DOPC  H17R20018   6.162   1.735  15.323  0.5206 -0.2261 -0.1644
  165DOPC  H17S20019   5.988   1.774  15.275 -0.1955 -1.9501 -0.4230
  165DOPC  C21820020   6.140   1.894  15.187 -0.6038 -0.6101  0.3159
  165DOPC  H18R20021   6.092   1.908  15.088 -0.2065 -1.9710 -0.0866
  165DOPC  H18S20022   6.250   1.895  15.178 -0.5601 -0.1587  0.8712
  165DOPC  H18T20023   6.126   1.985  15.249  0.4802  0.7182 -1.3015
  165DOPC   C3320024   6.861   0.989  15.178 -0.6748 -0.7361  0.3676
  165DOPC   H3X20025   6.839   0.884  15.207 -2.2471 -0.5450 -0.0028
  165DOPC   H3Y20026   6.968   1.011  15.197 -0.8377 -0.1018  0.5847
  165DOPC   C3420027   6.850   1.013  15.024  0.3719  0.0764 -0.3092
  165DOPC   H4X20028   6.854   1.121  15.000  0.9885  0.4317  1.2505
  165DOPC   H4Y20029   6.746   0.979  15.010  0.3137  0.2626 -0.3264
  165DOPC   C3520030   6.952   0.930  14.946 -0.1393 -0.8491 -0.3127
  165DOPC   H5X20031   6.941   0.827  14.988  0.5594 -1.2837 -1.1560
  165DOPC   H5Y20032   7.057   0.958  14.969 -0.5113  0.0121  0.3812
  165DOPC   C3620033   6.930   0.926  14.791 -0.1761 -0.4704  0.4691
  165DOPC   H6X20034   6.901   1.027  14.757  0.8680  0.1111  1.2427
  165DOPC   H6Y20035   7.021   0.889  14.738 -0.2580  1.9268 -1.5198
  165DOPC   C3720036   6.823   0.820  14.751  0.6184  0.2438 -0.5718
  165DOPC   H7X20037   6.731   0.841  14.810  0.0128 -2.8846 -0.2289
  165DOPC   H7Y20038   6.866   0.724  14.788  0.6615  1.9904  4.7114
  165DOPC   C3820039   6.770   0.835  14.608  0.4098 -0.0688  0.1132
  165DOPC   H8X20040   6.764   0.945  14.599 -1.6330  0.0823  2.2395
  165DOPC   H8Y20041   6.668   0.791  14.606  0.1011  0.5124  1.5313
  165DOPC   C3920042   6.861   0.773  14.505 -0.8654  0.2501 -0.1217
  165DOPC   H9X20043   6.905   0.675  14.529 -2.3399 -0.7561 -1.3354
  165DOPC  C31020044   6.889   0.804  14.376 -0.1782 -0.1413 -0.2950
  165DOPC  H10X20045   6.971   0.750  14.327 -0.1081 -0.6589  0.3825
  165DOPC  C31120046   6.833   0.924  14.299  0.8684  0.1608 -0.1529
  165DOPC  H11X20047   6.732   0.944  14.340 -0.1027 -2.1027 -1.2332
  165DOPC  H11Y20048   6.814   0.883  14.197 -1.5615 -1.8045  0.9891
  165DOPC  C31220049   6.928   1.040  14.291  0.0267  0.1742  0.7984
  165DOPC  H12X20050   7.025   1.018  14.242  0.4322  1.1941  1.1121
  165DOPC  H12Y20051   6.957   1.091  14.385 -1.5001  0.3166  1.2226
  165DOPC  C31320052   6.871   1.142  14.200 -0.3243  0.2546 -0.5924
  165DOPC  H13X20053   6.877   1.104  14.096 -2.6165 -0.6467 -0.4514
  165DOPC  H13Y20054   6.767   1.163  14.232  0.0886  0.4866  0.6751
  165DOPC  C31420055   6.942   1.287  14.193 -0.5502 -0.4796  0.5604
  165DOPC  H14X20056   6.865   1.345  14.138 -1.1526 -2.0804 -0.3568
  165DOPC  H14Y20057   6.947   1.338  14.291 -1.1809  1.4276 -0.3527
  165DOPC  C31520058   7.076   1.275  14.135 -0.5720  0.7286 -0.2116
  165DOPC  H15X20059   7.074   1.199  14.054  2.0365  0.2213  0.1129
  165DOPC  H15Y20060   7.142   1.219  14.205 -0.2384  1.2869 -0.0750
  165DOPC  C31620061   7.150   1.398  14.096 -0.2387 -0.4288  0.2915
  165DOPC  H16X20062   7.128   1.474  14.174  3.6207  0.0397  1.1301
  165DOPC  H16Y20063   7.257   1.373  14.082  0.0083  1.2272 -1.0369
  165DOPC  C31720064   7.097   1.457  13.963 -0.3955  0.5260 -0.4603
  165DOPC  H17X20065   7.089   1.371  13.893 -2.2714 -1.0383  1.5469
  165DOPC  H17Y20066   6.995   1.491  13.989  0.0643  0.0942  2.1118
  165DOPC  C31820067   7.178   1.571  13.903 -0.0293 -0.2962 -0.0040
  165DOPC  H18X20068   7.124   1.615  13.816 -0.4530 -0.6530  0.0790
  165DOPC  H18Y20069   7.176   1.657  13.973 -1.0009 -1.2987  1.2399
  165DOPC  H18Z20070   7.281   1.549  13.867 -0.4605  1.9333 -3.0264
  166DOPC     N20071   0.605   4.082  16.216  0.1114  0.0986 -0.3026
  166DOPC   C1220072   0.534   4.120  16.086 -0.3810 -0.1008  0.1102
  166DOPC  H12A20073   0.585   4.059  16.013  0.5349  1.3017 -0.4589
  166DOPC  H12B20074   0.570   4.215  16.049 -0.3090 -0.1408  0.0743
  166DOPC   C1320075   0.572   3.942  16.262 -0.1407 -0.3429  0.5430
  166DOPC  H13A20076   0.633   3.910  16.345 -1.5235 -1.9957  0.9971
  166DOPC  H13B20077   0.467   3.934  16.287 -1.1050 -1.6230 -3.2742
  166DOPC  H13C20078   0.600   3.871  16.186  1.8584  1.6917 -0.7416
  166DOPC   C1420079   0.578   4.168  16.335 -0.0902 -0.9542 -0.4660
  166DOPC  H14A20080   0.640   4.148  16.422 -1.4240  0.7508  0.9518
  166DOPC  H14B20081   0.585   4.272  16.307  1.0045 -0.0948  2.5802
  166DOPC  H14C20082   0.473   4.160  16.360 -0.0517  0.3871  0.2609
  166DOPC   C1520083   0.755   4.075  16.198 -0.8326 -0.1742 -0.5719
  166DOPC  H15A20084   0.796   4.172  16.175  1.6839 -0.2729  2.7974
  166DOPC  H15B20085   0.787   4.001  16.126 -0.2398 -0.6805  0.1973
  166DOPC  H15C20086   0.805   4.043  16.288  2.0307  1.4608 -1.4411
  166DOPC   C1120087   0.376   4.125  16.074 -0.1057  0.3828  0.0307
  166DOPC  H11A20088   0.342   4.145  15.971  0.7074  0.4629 -0.2304
  166DOPC  H11B20089   0.339   4.020  16.081  0.8842  0.0309  0.1635
  166DOPC     P20090   0.307   4.358  16.170  0.1240  0.1824 -0.1245
  166DOPC   O1320091   0.446   4.405  16.162  0.0236 -0.1546  0.0602
  166DOPC   O1420092   0.218   4.406  16.279 -0.1619  0.0906  0.0884
  166DOPC   O1220093   0.307   4.206  16.176 -0.3837  0.6589  0.6945
  166DOPC   O1120094   0.232   4.382  16.035  0.1897  0.4160  0.1596
  166DOPC    C120095   0.084   4.387  16.042 -0.0967 -0.7048 -0.3145
  166DOPC    HA20096   0.060   4.484  16.090 -0.6984 -0.4185 -1.1779
  166DOPC    HB20097   0.028   4.318  16.109 -0.6511 -0.3450 -0.4015
  166DOPC    C220098   0.006   4.359  15.905  0.0707 -0.3546  0.1646
  166DOPC    HS20099  -0.103   4.353  15.925 -0.0159 -0.8309 -0.4153
  166DOPC   O2120100   0.067   4.237  15.846 -0.0758  0.2169 -0.2591
  166DOPC   C2120101   0.039   4.122  15.909  0.4749  0.7784 -0.2586
  166DOPC   O2220102  -0.030   4.105  16.008  0.0894  0.4084 -0.8774
  166DOPC   C2220103   0.113   3.998  15.843  0.4742 -0.1581 -0.3490
  166DOPC   H2R20104   0.222   4.010  15.863  0.3199  1.0865 -0.2031
  166DOPC   H2S20105   0.099   4.017  15.735 -1.2972  1.2419  0.0803
  166DOPC    C320106   0.021   4.471  15.799 -0.3346 -0.0073  0.2018
  166DOPC    HX20107   0.118   4.464  15.745 -1.0787 -1.2037 -1.0059
  166DOPC    HY20108   0.018   4.566  15.857  0.2639 -0.7836  1.5692
  166DOPC   O3120109  -0.082   4.469  15.699 -0.2146  0.7201  0.4472
  166DOPC   C3120110  -0.052   4.565  15.612 -0.0973 -0.3998 -0.4190
  166DOPC   O3220111   0.043   4.642  15.621 -0.1169 -0.3220  0.1300
  166DOPC   C3220112  -0.157   4.584  15.500 -0.2148 -0.0049 -0.1481
  166DOPC   H2X20113  -0.257   4.555  15.539  0.0034 -1.1516 -0.4198
  166DOPC   H2Y20114  -0.164   4.693  15.478 -0.5752  0.3301  1.4765
  166DOPC   C2320115   0.052   3.863  15.893  0.5057 -0.3645  0.1580
  166DOPC   H3R20116   0.074   3.863  16.002 -1.7938  2.5083  0.7625
  166DOPC   H3S20117   0.101   3.776  15.844 -0.4926 -1.4354  1.0192
  166DOPC   C2420118  -0.100   3.836  15.870  0.2198 -0.1055  0.8489
  166DOPC   H4R20119  -0.123   3.812  15.763  1.3772  0.4020  0.4779
  166DOPC   H4S20120  -0.170   3.922  15.880  0.3148 -0.1466  1.9946
  166DOPC   C2520121  -0.155   3.729  15.959 -0.1052 -0.9095  0.2437
  166DOPC   H5R20122  -0.126   3.747  16.065 -0.5959 -0.9054  0.3790
  166DOPC   H5S20123  -0.107   3.632  15.933  0.3562 -0.1259 -1.9380
  166DOPC   C2620124  -0.305   3.722  15.940 -0.3511  0.3488  0.1894
  166DOPC   H6R20125  -0.328   3.718  15.832  2.9575 -2.7222 -0.5904
  166DOPC   H6S20126  -0.340   3.819  15.982 -0.0491 -0.3175  2.0995
  166DOPC   C2720127  -0.363   3.602  16.013 -0.1941  0.7107  0.0393
  166DOPC   H7R20128  -0.339   3.600  16.122 -0.3525 -0.3262  0.0653
  166DOPC   H7S20129  -0.320   3.513  15.961 -3.9769 -0.9809 -0.4646
  166DOPC   C2820130  -0.514   3.604  15.995 -0.1698  0.3512 -0.1084
  166DOPC   H8R20131  -0.531   3.620  15.886 -0.0752 -0.9969 -0.3374
  166DOPC   H8S20132  -0.571   3.675  16.059 -0.6528 -0.2000  0.0753
  166DOPC   C2920133  -0.580   3.472  16.027 -0.3555  0.1207  0.2121
  166DOPC   H9R20134  -0.523   3.417  16.103 -0.1893  0.3382  0.2466
  166DOPC  C21020135  -0.691   3.421  15.971 -0.1912 -0.7182  0.4997
  166DOPC  H10R20136  -0.723   3.317  15.988 -1.1748 -0.4014  0.6955
  166DOPC  C21120137  -0.761   3.493  15.848 -0.1286  1.0292  0.0936
  166DOPC  H11R20138  -0.749   3.603  15.835 -2.1423  1.4236  1.2940
  166DOPC  H11S20139  -0.869   3.467  15.845  0.2475 -0.8017 -3.6916
  166DOPC  C21220140  -0.708   3.444  15.707 -0.0605 -0.2912  0.3560
  166DOPC  H12R20141  -0.598   3.434  15.709  0.1596  1.6967  0.2789
  166DOPC  H12S20142  -0.737   3.516  15.627  1.7680  0.0874 -0.0036
  166DOPC  C21320143  -0.752   3.306  15.670  0.4506  0.5304 -0.2820
  166DOPC  H13R20144  -0.863   3.312  15.668  0.4719  0.9959 -0.2084
  166DOPC  H13S20145  -0.725   3.236  15.752  0.6829  3.0962  1.9639
  166DOPC  C21420146  -0.716   3.263  15.525 -0.1293  0.1550  0.3797
  166DOPC  H14R20147  -0.605   3.260  15.517 -0.2503 -1.5004 -1.3116
  166DOPC  H14S20148  -0.753   3.348  15.464  1.0495  0.5804  0.2175
  166DOPC  C21520149  -0.782   3.127  15.490 -0.1633  0.4153 -0.7495
  166DOPC  H15R20150  -0.893   3.133  15.496 -0.2156  1.6227 -2.3818
  166DOPC  H15S20151  -0.749   3.053  15.566 -3.6290  0.0366  0.5541
  166DOPC  C21620152  -0.739   3.066  15.361 -0.6195 -0.2199  1.3231
  166DOPC  H16R20153  -0.739   2.956  15.371  0.4489 -0.3123  0.4856
  166DOPC  H16S20154  -0.637   3.106  15.342 -0.8560  0.6433  1.8009
  166DOPC  C21720155  -0.828   3.109  15.247 -0.1203  0.1922  0.4001
  166DOPC  H17R20156  -0.828   3.220  15.253 -2.3284  0.3337 -1.0218
  166DOPC  H17S20157  -0.932   3.071  15.260 -0.0162  0.0952  0.9814
  166DOPC  C21820158  -0.782   3.061  15.111 -0.3937  0.3580 -0.5673
  166DOPC  H18R20159  -0.867   3.051  15.040  0.4856 -0.6643 -1.5309
  166DOPC  H18S20160  -0.734   2.961  15.122  0.5812  0.9684  0.9855
  166DOPC  H18T20161  -0.711   3.133  15.064  0.5231 -0.7154 -0.8698
  166DOPC   C3320162  -0.128   4.500  15.378 -0.7167  0.3920  0.0607
  166DOPC   H3X20163  -0.224   4.469  15.331  0.1428 -1.1522 -0.7299
  166DOPC   H3Y20164  -0.062   4.415  15.406  0.7179  1.6721  0.7626
  166DOPC   C3420165  -0.059   4.565  15.258 -0.4629 -0.3517 -0.4284
  166DOPC   H4X20166   0.047   4.590  15.281 -0.5206 -1.8168  1.6793
  166DOPC   H4Y20167  -0.111   4.657  15.224  1.0684 -0.2608 -2.8271
  166DOPC   C3520168  -0.052   4.460  15.148  0.0824 -0.3307 -0.2627
  166DOPC   H5X20169  -0.154   4.436  15.110 -1.5460  0.2967  3.1990
  166DOPC   H5Y20170   0.005   4.368  15.172 -0.2376 -0.8062 -1.2644
  166DOPC   C3620171   0.010   4.522  15.026 -0.0261  0.4608  0.2993
  166DOPC   H6X20172  -0.071   4.575  14.973 -1.0133  0.3352  1.6495
  166DOPC   H6Y20173   0.091   4.590  15.061  0.1405  0.0288  0.7688
  166DOPC   C3720174   0.074   4.417  14.928  0.3941  0.0774 -0.2774
  166DOPC   H7X20175   0.161   4.376  14.984  0.3088  1.6771  1.1156
  166DOPC   H7Y20176   0.001   4.333  14.923 -2.8858  2.5819  1.6574
  166DOPC   C3820177   0.116   4.480  14.799 -0.2342  0.0140  1.0684
  166DOPC   H8X20178   0.179   4.564  14.833  2.7843 -1.9592  0.7172
  166DOPC   H8Y20179   0.026   4.508  14.740 -0.0196  1.8503  1.5539
  166DOPC   C3920180   0.205   4.380  14.724  0.6913  0.3560  0.0350
  166DOPC   H9X20181   0.298   4.361  14.780  0.2392  0.5212  0.8656
  166DOPC  C31020182   0.178   4.312  14.612  0.4929 -0.2286 -0.3237
  166DOPC  H10X20183   0.243   4.232  14.573 -0.9703 -2.1058  0.8836
  166DOPC  C31120184   0.057   4.336  14.530  0.8739 -0.4312 -0.2140
  166DOPC  H11X20185  -0.017   4.388  14.595  0.8943 -2.3128  1.4329
  166DOPC  H11Y20186   0.005   4.240  14.510 -4.2207  2.1830 -1.3455
  166DOPC  C31220187   0.092   4.410  14.398 -0.1660  0.7364 -0.5972
  166DOPC  H12X20188   0.196   4.385  14.369  0.2377  1.2797  0.3594
  166DOPC  H12Y20189   0.105   4.518  14.419  2.1418  0.3920 -0.0005
  166DOPC  C31320190  -0.004   4.372  14.293 -0.0590  0.5261 -0.6792
  166DOPC  H13X20191   0.006   4.266  14.262 -1.4685  0.6209 -1.5489
  166DOPC  H13Y20192  -0.105   4.385  14.337  0.0391 -0.9169  0.0330
  166DOPC  C31420193  -0.005   4.470  14.167  0.3796  0.0809 -0.5944
  166DOPC  H14X20194  -0.081   4.450  14.088  0.2912 -0.1339 -0.4570
  166DOPC  H14Y20195  -0.027   4.572  14.204  3.3487 -0.3124  2.7581
  166DOPC  C31520196   0.131   4.479  14.103 -0.0411  0.3384 -0.4871
  166DOPC  H15X20197   0.143   4.381  14.054  3.6221 -0.0978  1.0039
  166DOPC  H15Y20198   0.221   4.487  14.167 -1.1530 -1.7387  1.4711
  166DOPC  C31620199   0.142   4.588  13.995  0.4141 -0.9996  0.6451
  166DOPC  H16X20200   0.060   4.577  13.920  0.7082 -0.4070  0.2194
  166DOPC  H16Y20201   0.147   4.691  14.037  0.9784  0.8070 -3.3524
  166DOPC  C31720202   0.273   4.569  13.914  0.3370 -0.5161 -0.5926
  166DOPC  H17X20203   0.255   4.628  13.821  0.3539  0.0780 -0.2231
  166DOPC  H17Y20204   0.355   4.619  13.969  0.2530 -0.8254 -0.1852
  166DOPC  C31820205   0.333   4.435  13.880 -0.2110 -0.1307  0.7249
  166DOPC  H18X20206   0.253   4.359  13.863  0.5592 -0.7213 -0.3805
  166DOPC  H18Y20207   0.394   4.438  13.788 -1.0755 -0.0328  0.1401
  166DOPC  H18Z20208   0.402   4.396  13.958 -0.0684 -0.9394  0.2092
  167DOPC     N20209   7.349   1.806  15.784  0.1088 -0.0803  0.0688
  167DOPC   C1220210   7.254   1.743  15.885 -0.2436 -0.0999 -0.4299
  167DOPC  H12A20211   7.168   1.703  15.834  0.1198  0.7418 -1.7584
  167DOPC  H12B20212   7.214   1.826  15.941  0.4372 -0.2219  0.2564
  167DOPC   C1320213   7.279   1.918  15.703 -0.3778 -0.5883 -0.0162
  167DOPC  H13A20214   7.347   1.942  15.623 -0.1771 -0.8205  0.0819
  167DOPC  H13B20215   7.185   1.895  15.653 -0.8541  2.8256 -0.9207
  167DOPC  H13C20216   7.258   2.008  15.758 -0.5520 -0.3572 -0.4516
  167DOPC   C1420217   7.393   1.696  15.693  0.2146  0.0200 -0.5614
  167DOPC  H14A20218   7.313   1.656  15.631  0.2567 -2.8786  1.0965
  167DOPC  H14B20219   7.454   1.743  15.618 -0.2917 -0.4884 -1.3148
  167DOPC  H14C20220   7.446   1.627  15.757 -1.4966 -1.3658 -0.5578
  167DOPC   C1520221   7.465   1.882  15.858  0.0902  0.2895 -0.0191
  167DOPC  H15A20222   7.423   1.934  15.942  0.1557  1.8509 -0.9257
  167DOPC  H15B20223   7.529   1.942  15.794  1.4992 -3.2509 -2.3255
  167DOPC  H15C20224   7.530   1.803  15.895  1.2287  0.6319 -1.2004
  167DOPC   C1120225   7.307   1.642  15.990 -0.7256  0.9267 -0.1168
  167DOPC  H11A20226   7.381   1.680  16.064  1.0568 -0.3675 -1.1562
  167DOPC  H11B20227   7.220   1.628  16.057 -1.1568  0.8449 -0.6809
  167DOPC     P20228   7.266   1.417  15.883  0.3653  0.4180  0.3488
  167DOPC   O1320229   7.252   1.328  15.998  0.0247  0.1814 -0.1988
  167DOPC   O1420230   7.323   1.353  15.766  0.8644 -0.3726  0.1365
  167DOPC   O1220231   7.365   1.527  15.930  0.3882  0.3602  0.9138
  167DOPC   O1120232   7.126   1.490  15.852 -0.5240 -0.1865  0.3884
  167DOPC    C120233   7.050   1.440  15.738 -0.0729 -0.0075 -0.0892
  167DOPC    HA20234   6.945   1.456  15.769 -0.7402 -2.6574 -0.7589
  167DOPC    HB20235   7.045   1.330  15.723  0.2481 -0.0258 -0.0693
  167DOPC    C220236   7.066   1.510  15.598  0.5693 -0.4654 -0.2411
  167DOPC    HS20237   6.998   1.455  15.529  0.5976 -0.3836 -0.3344
  167DOPC   O2120238   7.198   1.518  15.541 -0.0215 -0.3849  0.3018
  167DOPC   C2120239   7.234   1.396  15.497 -0.9408 -0.2774  0.0156
  167DOPC   O2220240   7.167   1.297  15.492  0.4319 -0.2655 -0.3371
  167DOPC   C2220241   7.370   1.410  15.433  0.4451  0.7877  0.2032
  167DOPC   H2R20242   7.396   1.308  15.399  1.0349  0.4874  1.5069
  167DOPC   H2S20243   7.443   1.440  15.511  1.1522 -2.7966  1.1024
  167DOPC    C320244   7.005   1.653  15.616  0.8043  1.1319 -0.2598
  167DOPC    HX20245   7.076   1.720  15.669 -0.3141  3.3905 -1.4493
  167DOPC    HY20246   6.914   1.638  15.678  0.7985 -0.8710 -0.6658
  167DOPC   O3120247   6.962   1.688  15.484 -0.0439 -0.1079  0.5914
  167DOPC   C3120248   7.045   1.772  15.423  0.5848 -0.3166 -0.3615
  167DOPC   O3220249   7.158   1.804  15.456 -0.0555  0.2409  0.2432
  167DOPC   C3220250   6.967   1.822  15.304 -0.1243  0.1160  1.1168
  167DOPC   H2X20251   6.942   1.733  15.242  1.7156  0.4627 -0.2050
  167DOPC   H2Y20252   6.869   1.861  15.336 -2.2630 -2.0635 -2.1100
  167DOPC   C2320253   7.377   1.508  15.315  0.0615 -0.4985  0.4738
  167DOPC   H3R20254   7.482   1.519  15.278  0.0958 -0.8107  0.4702
  167DOPC   H3S20255   7.351   1.611  15.346 -0.6077 -0.9750  1.5208
  167DOPC   C2420256   7.281   1.460  15.195  0.1270  0.1689 -0.5544
  167DOPC   H4R20257   7.178   1.460  15.236  0.3484 -0.0814  0.0095
  167DOPC   H4S20258   7.304   1.357  15.160  0.1942 -0.1160  0.3243
  167DOPC   C2520259   7.287   1.558  15.077  0.3564  0.6045 -0.2813
  167DOPC   H5R20260   7.394   1.574  15.049  0.4163 -0.6904 -0.8510
  167DOPC   H5S20261   7.240   1.649  15.119 -2.2109 -1.4352  1.6087
  167DOPC   C2620262   7.196   1.508  14.966  0.0515  0.9284 -0.5206
  167DOPC   H6R20263   7.189   1.569  14.874 -0.3914  0.1511 -1.0107
  167DOPC   H6S20264   7.092   1.493  15.001  0.5737 -2.3770 -0.0663
  167DOPC   C2720265   7.244   1.378  14.907 -0.8966 -0.4267 -0.3257
  167DOPC   H7R20266   7.260   1.299  14.983 -0.0357  0.1921  0.1509
  167DOPC   H7S20267   7.337   1.396  14.849  0.4439 -1.4301  1.4103
  167DOPC   C2820268   7.142   1.316  14.809  0.4658 -0.5320 -0.2398
  167DOPC   H8R20269   7.047   1.319  14.867  1.2251 -0.7226  1.0513
  167DOPC   H8S20270   7.171   1.209  14.801  1.4786 -0.2144 -0.9570
  167DOPC   C2920271   7.123   1.390  14.676 -0.5871  0.2995 -0.4747
  167DOPC   H9R20272   7.077   1.488  14.695 -0.1339  0.6150 -0.9729
  167DOPC  C21020273   7.143   1.334  14.554  0.7246 -0.4609 -0.0634
  167DOPC  H10R20274   7.129   1.401  14.468  0.4987  1.7841  1.6159
  167DOPC  C21120275   7.212   1.208  14.519  0.5778  0.0185  0.3092
  167DOPC  H11R20276   7.135   1.152  14.461 -0.6397 -0.2481  2.0917
  167DOPC  H11S20277   7.228   1.147  14.611 -1.1987 -0.2763  0.4643
  167DOPC  C21220278   7.343   1.221  14.439 -0.1490 -0.0682 -0.4218
  167DOPC  H12R20279   7.317   1.274  14.345 -2.6783 -0.3925  0.0195
  167DOPC  H12S20280   7.427   1.269  14.494  1.4682 -1.2343 -1.7559
  167DOPC  C21320281   7.409   1.084  14.399 -0.0817 -0.4118  0.2488
  167DOPC  H13R20282   7.388   1.008  14.477  1.6064  0.0492  1.2086
  167DOPC  H13S20283   7.520   1.091  14.394  0.0017 -0.1589  1.9840
  167DOPC  C21420284   7.349   1.023  14.272  0.2271  0.2013 -0.6375
  167DOPC  H14R20285   7.373   1.094  14.190  1.2436 -0.1410 -0.6533
  167DOPC  H14S20286   7.241   1.002  14.285  0.2530 -0.2566 -1.1213
  167DOPC  C21520287   7.409   0.881  14.251 -0.7578 -0.4604  0.2056
  167DOPC  H15R20288   7.362   0.803  14.314 -2.9630  0.8250  0.2656
  167DOPC  H15S20289   7.516   0.880  14.281 -1.0733  0.3074  1.4607
  167DOPC  C21620290   7.415   0.831  14.103 -0.0970 -0.1602 -0.9046
  167DOPC  H16R20291   7.468   0.734  14.100 -2.1151 -1.3115 -2.8064
  167DOPC  H16S20292   7.473   0.893  14.030  1.1746  0.9188  0.9435
  167DOPC  C21720293   7.277   0.806  14.050 -1.1540  0.0038 -0.0577
  167DOPC  H17R20294   7.296   0.776  13.945  0.7232  1.1627 -0.0828
  167DOPC  H17S20295   7.233   0.908  14.048  2.5009  1.7466  0.8646
  167DOPC  C21820296   7.187   0.702  14.104  0.3294  0.6147  0.0062
  167DOPC  H18R20297   7.098   0.687  14.038  1.1951  0.7421 -1.2243
  167DOPC  H18S20298   7.164   0.738  14.207  1.7634 -0.2787  0.6714
  167DOPC  H18T20299   7.239   0.606  14.122 -0.7021  0.3548  1.8827
  167DOPC   C3320300   7.055   1.919  15.218  0.6033  0.3124 -0.3580
  167DOPC   H3X20301   7.143   1.865  15.178  0.7276  1.0567 -1.1168
  167DOPC   H3Y20302   7.095   2.005  15.276 -0.6162  0.4142  0.3734
  167DOPC   C3420303   6.987   1.998  15.110  0.6648  0.2028 -0.1054
  167DOPC   H4X20304   7.042   2.095  15.109  1.1759 -0.0504  1.4565
  167DOPC   H4Y20305   6.879   2.005  15.136  0.8718  0.0047  0.8581
  167DOPC   C3520306   7.008   1.932  14.974 -0.4577  0.1379 -0.3668
  167DOPC   H5X20307   6.954   1.836  14.973 -0.1299 -0.0640  0.6668
  167DOPC   H5Y20308   7.117   1.914  14.957 -0.2790  1.0138 -0.2329
  167DOPC   C3620309   6.951   2.013  14.859 -0.1963  0.1861 -0.0265
  167DOPC   H6X20310   6.877   2.090  14.890 -0.1261  0.2229  0.0495
  167DOPC   H6Y20311   7.030   2.076  14.813 -1.0219  1.5231  0.3241
  167DOPC   C3720312   6.881   1.922  14.759  0.9385  0.4553 -0.4646
  167DOPC   H7X20313   6.954   1.849  14.719 -1.0740 -2.2782  0.5364
  167DOPC   H7Y20314   6.801   1.859  14.803  1.7060  0.3310  0.7972
  167DOPC   C3820315   6.823   1.996  14.631  0.1088 -0.4128 -0.9840
  167DOPC   H8X20316   6.787   1.914  14.566  0.1976  0.3256 -1.9932
  167DOPC   H8Y20317   6.908   2.043  14.578  0.5453  0.8245  0.7089
  167DOPC   C3920318   6.721   2.106  14.647  0.2140 -0.0582 -0.5804
  167DOPC   H9X20319   6.621   2.075  14.681  0.9075 -1.7371  0.0620
  167DOPC  C31020320   6.745   2.239  14.632  0.3056 -0.3178  0.3406
  167DOPC  H10X20321   6.658   2.306  14.638  1.3022  1.1013 -0.4384
  167DOPC  C31120322   6.875   2.308  14.608 -0.2222  0.5797 -0.1116
  167DOPC  H11X20323   6.862   2.348  14.505 -0.5168  0.4739 -0.1166
  167DOPC  H11Y20324   6.957   2.232  14.608 -1.8252 -1.2478  0.7323
  167DOPC  C31220325   6.896   2.431  14.699  0.1395  0.5167 -0.2629
  167DOPC  H12X20326   6.909   2.397  14.804 -0.2918  3.3659  0.7945
  167DOPC  H12Y20327   6.809   2.501  14.693  0.7295  1.5938  2.3458
  167DOPC  C31320328   7.035   2.505  14.682 -0.4289 -0.8701  0.2543
  167DOPC  H13X20329   7.111   2.431  14.716 -1.6282 -1.4370  1.7701
  167DOPC  H13Y20330   7.052   2.544  14.579  0.3276  2.8793  1.6361
  167DOPC  C31420331   7.051   2.622  14.780 -0.1004  0.4343 -0.1407
  167DOPC  H14X20332   6.992   2.714  14.759  0.9272  1.2562  0.4860
  167DOPC  H14Y20333   7.010   2.584  14.876  2.1267  1.1992  1.1918
  167DOPC  C31520334   7.189   2.661  14.818  0.3574  0.2194  0.1665
  167DOPC  H15X20335   7.225   2.743  14.752 -0.1027  1.8533  1.8704
  167DOPC  H15Y20336   7.256   2.574  14.801 -0.2737 -0.1435 -0.5286
  167DOPC  C31620337   7.193   2.711  14.964  0.1467  0.2206 -0.4162
  167DOPC  H16X20338   7.101   2.769  14.989 -1.4796 -0.9874 -3.1882
  167DOPC  H16Y20339   7.191   2.628  15.038 -0.1660  1.7601  1.3864
  167DOPC  C31720340   7.310   2.804  15.006 -0.7783 -0.2179 -0.2181
  167DOPC  H17X20341   7.407   2.768  14.964 -0.4712  1.2063 -0.7891
  167DOPC  H17Y20342   7.292   2.909  14.975 -0.3218  0.2410  1.0012
  167DOPC  C31820343   7.325   2.814  15.160 -0.2557  0.0523 -0.4165
  167DOPC  H18X20344   7.336   2.715  15.208  1.3632 -1.0731 -2.8868
  167DOPC  H18Y20345   7.408   2.880  15.193 -0.0116  0.3400 -1.5492
  167DOPC  H18Z20346   7.227   2.855  15.192 -0.3686 -0.7093  0.2346
  168DOPC     N20347   1.490   0.096  16.150 -0.8015  0.2343 -0.4126
  168DOPC   C1220348   1.613   0.178  16.121 -0.0022 -0.0529  0.2649
  168DOPC  H12A20349   1.702   0.116  16.119 -0.4733 -0.7402 -2.1866
  168DOPC  H12B20350   1.619   0.244  16.206  0.6805  0.0309  0.1619
  168DOPC   C1320351   1.369   0.180  16.166  0.2686 -1.0334  0.4673
  168DOPC  H13A20352   1.288   0.127  16.214 -1.1057  2.6190  2.5447
  168DOPC  H13B20353   1.389   0.264  16.231 -1.5696 -0.0892 -0.1170
  168DOPC  H13C20354   1.348   0.215  16.066  1.0840  0.4269  0.7752
  168DOPC   C1420355   1.512   0.025  16.276  0.1515  0.8417 -0.4786
  168DOPC  H14A20356   1.592  -0.048  16.270 -1.3260 -0.8117 -0.8822
  168DOPC  H14B20357   1.537   0.095  16.355  0.7439 -0.3860  0.4662
  168DOPC  H14C20358   1.421  -0.032  16.290  0.2840  0.3750 -1.4922
  168DOPC   C1520359   1.471  -0.007  16.045  0.3268  0.3998 -0.8396
  168DOPC  H15A20360   1.565  -0.055  16.025 -0.1159 -1.8915  1.9301
  168DOPC  H15B20361   1.427   0.042  15.960 -0.4804 -0.5125 -0.9662
  168DOPC  H15C20362   1.406  -0.090  16.068 -0.7882  1.2852 -0.7008
  168DOPC   C1120363   1.624   0.254  15.991  0.6507 -0.1584 -0.0467
  168DOPC  H11A20364   1.724   0.303  15.992  0.0217  1.1716 -0.8318
  168DOPC  H11B20365   1.611   0.183  15.907 -3.6057  0.1201  0.1595
  168DOPC     P20366   1.431   0.378  15.865  0.1949  0.0278 -0.0318
  168DOPC   O1320367   1.369   0.509  15.890 -0.6422 -0.2775  0.0232
  168DOPC   O1420368   1.341   0.263  15.857 -0.2242  0.2695 -0.7651
  168DOPC   O1220369   1.527   0.359  15.988 -0.0152 -0.6136  0.2995
  168DOPC   O1120370   1.534   0.380  15.748  0.1067  0.1771  0.2057
  168DOPC    C120371   1.634   0.485  15.747  0.0596 -0.1684  0.3648
  168DOPC    HA20372   1.728   0.450  15.793 -0.2537  0.1004  1.2299
  168DOPC    HB20373   1.590   0.575  15.796  0.5547  0.1109  0.2993
  168DOPC    C220374   1.668   0.532  15.602 -0.2297  0.3283 -0.2501
  168DOPC    HS20375   1.579   0.571  15.549  1.1236  1.8522 -1.4893
  168DOPC   O2120376   1.733   0.423  15.525 -0.3089  0.2649  0.0420
  168DOPC   C2120377   1.655   0.376  15.429 -0.0393 -0.7662  0.3131
  168DOPC   O2220378   1.543   0.416  15.395  0.0919  0.2060  0.1429
  168DOPC   C2220379   1.728   0.270  15.354  0.1367 -0.2208  1.0756
  168DOPC   H2R20380   1.699   0.168  15.385 -1.5277 -0.2350 -0.3409
  168DOPC   H2S20381   1.836   0.277  15.381  0.0408 -0.2364  1.4675
  168DOPC    C320382   1.780   0.646  15.612  0.2621 -0.0425 -0.3054
  168DOPC    HX20383   1.858   0.597  15.674 -0.7857 -1.0843  0.2203
  168DOPC    HY20384   1.746   0.728  15.678  2.0101 -0.2063  0.8621
  168DOPC   O3120385   1.822   0.688  15.483  0.0447  0.0097  0.2119
  168DOPC   C3120386   1.758   0.792  15.430 -0.0701 -0.2101 -0.3276
  168DOPC   O3220387   1.654   0.843  15.467  0.1217  0.2201 -0.0857
  168DOPC   C3220388   1.854   0.857  15.334 -0.3733 -0.1314 -0.5527
  168DOPC   H2X20389   1.831   0.966  15.330  1.2380  0.5190  3.1553
  168DOPC   H2Y20390   1.958   0.848  15.374 -0.5030 -1.7621 -0.5060
  168DOPC   C2320391   1.702   0.286  15.198  0.4321 -0.4621 -0.7606
  168DOPC   H3R20392   1.699   0.392  15.168 -1.1303  0.1666  1.3596
  168DOPC   H3S20393   1.600   0.250  15.172  0.2431 -1.1334  0.7757
  168DOPC   C2420394   1.810   0.225  15.107  0.1653  0.4845  0.0663
  168DOPC   H4R20395   1.815   0.114  15.109 -1.8219  0.3704  0.6407
  168DOPC   H4S20396   1.905   0.253  15.158  0.5863 -2.3841  1.0401
  168DOPC   C2520397   1.794   0.271  14.962  0.0291  0.1576 -0.1296
  168DOPC   H5R20398   1.798   0.382  14.951 -0.5783  0.1255 -0.7724
  168DOPC   H5S20399   1.692   0.237  14.933  0.0198  1.4782 -1.8457
  168DOPC   C2620400   1.879   0.204  14.846  0.1115  0.5893  0.1475
  168DOPC   H6R20401   1.887   0.096  14.872  1.5433  0.6064 -0.1274
  168DOPC   H6S20402   1.985   0.235  14.851  1.0893 -2.3941 -0.0340
  168DOPC   C2720403   1.839   0.216  14.699 -0.3604 -0.1646 -0.0635
  168DOPC   H7R20404   1.858   0.323  14.676 -0.2489 -0.5955 -2.0904
  168DOPC   H7S20405   1.736   0.189  14.667  0.1169 -4.8002  1.4699
  168DOPC   C2820406   1.921   0.113  14.611  0.2671  0.2394  0.1554
  168DOPC   H8R20407   1.861   0.019  14.606  1.3080 -0.4845  0.9323
  168DOPC   H8S20408   2.011   0.085  14.670 -0.6818  0.2023  1.6422
  168DOPC   C2920409   1.948   0.173  14.475 -0.4161 -0.2778 -0.3620
  168DOPC   H9R20410   2.029   0.245  14.498 -1.9837  1.3101  0.4363
  168DOPC  C21020411   1.896   0.164  14.352  0.3799  0.1485  0.1208
  168DOPC  H10R20412   1.945   0.222  14.273 -0.7716 -0.8819 -1.4171
  168DOPC  C21120413   1.781   0.073  14.313  0.2967  0.1271 -0.3707
  168DOPC  H11R20414   1.692   0.130  14.279 -1.4514 -1.6771  0.9214
  168DOPC  H11S20415   1.737   0.033  14.407  0.8339 -1.1771 -0.6445
  168DOPC  C21220416   1.816  -0.058  14.234  0.2694 -0.3380 -0.1476
  168DOPC  H12R20417   1.725  -0.116  14.260 -0.6720  0.9316 -0.4834
  168DOPC  H12S20418   1.910  -0.100  14.277 -0.1993  1.1770  2.6541
  168DOPC  C21320419   1.840  -0.042  14.078 -0.4921 -0.3449  0.7281
  168DOPC  H13R20420   1.757  -0.010  14.012  0.0562 -1.6795 -0.6991
  168DOPC  H13S20421   1.853  -0.142  14.030 -1.7052 -0.4360  0.5576
  168DOPC  C21420422   1.964   0.043  14.041  0.2259  0.2503  0.3088
  168DOPC  H14R20423   1.935   0.143  14.082 -1.2419 -0.0773  0.1382
  168DOPC  H14S20424   1.954   0.044  13.931 -0.2615  0.5115  0.3473
  168DOPC  C21520425   2.094  -0.017  14.096 -0.5607 -0.0128 -0.3246
  168DOPC  H15R20426   2.092  -0.031  14.206  0.3789 -0.8409 -0.4022
  168DOPC  H15S20427   2.185   0.045  14.079 -0.6565  0.3327  0.3913
  168DOPC  C21620428   2.126  -0.166  14.047  0.7217 -0.5460  0.4648
  168DOPC  H16R20429   2.052  -0.240  14.087  1.2647 -0.6286  1.3474
  168DOPC  H16S20430   2.211  -0.211  14.102  1.1266  0.3559  0.5810
  168DOPC  C21720431   2.151  -0.180  13.896  0.1126  0.1352  0.2832
  168DOPC  H17R20432   2.229  -0.104  13.875  0.4059 -0.4596 -0.8681
  168DOPC  H17S20433   2.061  -0.150  13.838  0.2841  0.8159  0.3557
  168DOPC  C21820434   2.201  -0.321  13.854  0.5252 -0.3036 -0.1554
  168DOPC  H18R20435   2.224  -0.329  13.745  2.3007 -2.4736  0.3051
  168DOPC  H18S20436   2.121  -0.396  13.870  0.6480 -0.4847 -0.3812
  168DOPC  H18T20437   2.287  -0.346  13.919 -1.3876  0.1766  2.7183
  168DOPC   C3320438   1.850   0.786  15.198 -0.0048 -0.0720 -0.2521
  168DOPC   H3X20439   1.866   0.679  15.223 -0.2005 -0.1388 -0.4143
  168DOPC   H3Y20440   1.941   0.815  15.141  0.2185  1.1714  0.6971
  168DOPC   C3420441   1.723   0.820  15.114  0.3202 -0.2899  0.9042
  168DOPC   H4X20442   1.743   0.919  15.067  1.2882 -0.8778  0.0396
  168DOPC   H4Y20443   1.632   0.819  15.178  0.3958 -0.4508  1.0072
  168DOPC   C3520444   1.701   0.721  15.001 -0.3766  0.2195  0.9934
  168DOPC   H5X20445   1.608   0.743  14.943 -0.2287 -0.7090  0.3829
  168DOPC   H5Y20446   1.708   0.613  15.024 -1.3528 -0.3201 -0.9756
  168DOPC   C3620447   1.812   0.730  14.892 -0.2862 -0.8941  0.5867
  168DOPC   H6X20448   1.829   0.838  14.872  1.5231 -1.3128 -0.3423
  168DOPC   H6Y20449   1.906   0.682  14.926  2.0048  0.6460 -2.9923
  168DOPC   C3720450   1.763   0.667  14.756  0.3360 -0.3691 -1.0123
  168DOPC   H7X20451   1.723   0.565  14.776 -0.2849  0.2119  0.9775
  168DOPC   H7Y20452   1.677   0.727  14.718  0.1495  0.0000 -0.0366
  168DOPC   C3820453   1.883   0.659  14.663 -0.1813  0.0288  0.3199
  168DOPC   H8X20454   1.928   0.760  14.660 -1.4707  0.6116 -1.0582
  168DOPC   H8Y20455   1.840   0.643  14.562 -1.2599 -0.0263  0.7727
  168DOPC   C3920456   1.987   0.558  14.693  0.0406 -0.3057  0.1564
  168DOPC   H9X20457   1.966   0.510  14.790 -0.3182  1.1547  0.8233
  168DOPC  C31020458   2.090   0.516  14.614 -0.3253 -0.0063  0.5971
  168DOPC  H10X20459   2.146   0.424  14.636  1.8031  1.2278  0.6406
  168DOPC  C31120460   2.108   0.564  14.475  0.1393 -0.3433 -0.4665
  168DOPC  H11X20461   2.051   0.657  14.453 -0.1450 -1.1055 -3.3336
  168DOPC  H11Y20462   2.071   0.497  14.395  2.4472 -0.2386 -1.6936
  168DOPC  C31220463   2.255   0.599  14.446 -0.4192 -0.7002 -0.2933
  168DOPC  H12X20464   2.326   0.523  14.487  0.0953  1.1038  2.4195
  168DOPC  H12Y20465   2.278   0.694  14.499  0.8821 -1.1410 -0.0321
  168DOPC  C31320466   2.288   0.635  14.298 -0.1443 -0.6428 -0.0421
  168DOPC  H13X20467   2.240   0.735  14.283 -0.3803 -0.2331  2.8292
  168DOPC  H13Y20468   2.397   0.652  14.289  0.0352 -1.2660  0.8459
  168DOPC  C31420469   2.243   0.533  14.196  0.1239  0.1049 -0.1264
  168DOPC  H14X20470   2.258   0.431  14.238  0.0902 -0.7999 -2.1983
  168DOPC  H14Y20471   2.134   0.540  14.179  0.3945  1.2023 -1.5855
  168DOPC  C31520472   2.312   0.554  14.061 -0.7189  0.5944 -0.7425
  168DOPC  H15X20473   2.418   0.521  14.064 -0.5690  1.0374 -1.0989
  168DOPC  H15Y20474   2.315   0.659  14.026  0.8606  1.8849  2.8389
  168DOPC  C31620475   2.244   0.463  13.952 -0.2271  0.3859 -0.1501
  168DOPC  H16X20476   2.280   0.359  13.965  2.4292  1.2195 -0.0493
  168DOPC  H16Y20477   2.134   0.465  13.965 -0.2821 -0.5128 -0.4460
  168DOPC  C31720478   2.268   0.508  13.805  0.0214 -0.0833 -0.1135
  168DOPC  H17X20479   2.237   0.612  13.784 -3.1569 -0.8267  0.4958
  168DOPC  H17Y20480   2.378   0.505  13.787  0.2615  0.3353  1.1636
  168DOPC  C31820481   2.190   0.423  13.701 -0.8233  0.0372 -0.1566
  168DOPC  H18X20482   2.223   0.317  13.705 -0.8146 -0.1170 -2.6508
  168DOPC  H18Y20483   2.083   0.424  13.732 -1.1299  0.7141 -1.1622
  168DOPC  H18Z20484   2.205   0.451  13.594  2.0390  0.3222  0.2554
  169DOPC     N20485   7.700   1.555  16.146 -0.4011 -0.4188  0.0778
  169DOPC   C1220486   7.640   1.513  16.018  0.1801  0.2627  0.0473
  169DOPC  H12A20487   7.538   1.549  16.011  0.3728  1.6670  2.9597
  169DOPC  H12B20488   7.638   1.406  16.034  2.6392  0.2729  0.8255
  169DOPC   C1320489   7.687   1.700  16.166  0.2410  0.3944  0.6566
  169DOPC  H13A20490   7.707   1.734  16.065 -0.9648 -0.1344  0.2086
  169DOPC  H13B20491   7.584   1.720  16.195  0.0038 -1.0035  0.8577
  169DOPC  H13C20492   7.761   1.737  16.235  0.8098 -0.0231  0.2826
  169DOPC   C1420493   7.847   1.529  16.163  0.2673  0.2052  0.3902
  169DOPC  H14A20494   7.876   1.426  16.147 -1.8987 -0.5574  1.0156
  169DOPC  H14B20495   7.912   1.588  16.100  3.8601 -0.7794  2.8711
  169DOPC  H14C20496   7.869   1.549  16.267  1.6524 -0.0482  0.1650
  169DOPC   C1520497   7.628   1.502  16.264 -0.2217  0.2422  0.2602
  169DOPC  H15A20498   7.640   1.396  16.280  0.4033  0.4353  1.1183
  169DOPC  H15B20499   7.521   1.510  16.248 -0.0719 -0.3197 -1.2526
  169DOPC  H15C20500   7.661   1.538  16.360  1.0027  2.3084 -0.8552
  169DOPC   C1120501   7.708   1.543  15.882  0.2662 -0.1744 -0.0254
  169DOPC  H11A20502   7.806   1.491  15.882  1.4432  1.8116  2.2877
  169DOPC  H11B20503   7.642   1.496  15.807 -2.0226 -0.3897  1.9863
  169DOPC     P20504   7.811   1.746  15.749 -0.2083 -0.2303 -0.1142
  169DOPC   O1320505   7.939   1.757  15.815 -0.1888 -0.2410  0.2731
  169DOPC   O1420506   7.746   1.868  15.692 -0.1509  0.3174  0.2467
  169DOPC   O1220507   7.711   1.682  15.863 -0.9500 -0.1099 -0.9307
  169DOPC   O1120508   7.820   1.629  15.642  0.5023  0.4058 -0.1819
  169DOPC    C120509   7.920   1.628  15.548  0.1918 -0.8418  0.5338
  169DOPC    HA20510   8.018   1.612  15.599 -0.3265 -1.0878  1.4692
  169DOPC    HB20511   7.916   1.726  15.495 -2.8405 -0.9591  0.3642
  169DOPC    C220512   7.900   1.522  15.442  0.0723  0.8454  0.3529
  169DOPC    HS20513   7.940   1.434  15.498 -1.6738  1.0663  2.0411
  169DOPC   O2120514   7.975   1.543  15.322 -0.4986 -0.1674  0.0140
  169DOPC   C2120515   8.099   1.501  15.316  0.3484  0.4914 -0.0053
  169DOPC   O2220516   8.161   1.464  15.415  0.3618 -0.3821  0.1499
  169DOPC   C2220517   8.149   1.506  15.171  0.7760  0.7656  0.2821
  169DOPC   H2R20518   8.259   1.488  15.168  0.9214  0.9607  2.6914
  169DOPC   H2S20519   8.124   1.607  15.133  0.1438  0.7376  0.6198
  169DOPC    C320520   7.751   1.495  15.414  0.4327 -0.2965  0.4312
  169DOPC    HX20521   7.728   1.578  15.343 -0.5816 -0.0348  1.0462
  169DOPC    HY20522   7.679   1.514  15.496 -0.4392 -1.0237 -0.1313
  169DOPC   O3120523   7.726   1.370  15.349  0.0954  0.2292 -0.2947
  169DOPC   C3120524   7.747   1.263  15.426  0.6387 -0.5115 -0.9253
  169DOPC   O3220525   7.767   1.261  15.549 -0.2853  0.0463 -0.9769
  169DOPC   C3220526   7.743   1.133  15.340  0.3290 -0.2339  0.4293
  169DOPC   H2X20527   7.652   1.146  15.277  1.3262  2.1827 -0.6344
  169DOPC   H2Y20528   7.832   1.111  15.278  0.0942  0.0655 -0.0157
  169DOPC   C2320529   8.074   1.397  15.083 -0.5036 -0.5442 -0.3293
  169DOPC   H3R20530   8.075   1.297  15.132  0.0913 -0.2121  0.3509
  169DOPC   H3S20531   8.137   1.380  14.993  1.0138 -0.2742  0.6534
  169DOPC   C2420532   7.932   1.439  15.050  0.1951  0.3184  0.1246
  169DOPC   H4R20533   7.914   1.536  14.998 -2.0517 -0.9351 -1.6617
  169DOPC   H4S20534   7.864   1.459  15.136  1.2918  2.2011  0.6170
  169DOPC   C2520535   7.852   1.328  14.992 -0.0090 -0.1174  0.4711
  169DOPC   H5R20536   7.863   1.244  15.064  3.3642 -3.2517 -3.1398
  169DOPC   H5S20537   7.901   1.296  14.897  1.2527  2.6988  0.0863
  169DOPC   C2620538   7.704   1.363  14.977 -0.1867 -0.2167  0.5866
  169DOPC   H6R20539   7.698   1.459  14.922  0.6010  0.9741  2.4668
  169DOPC   H6S20540   7.659   1.386  15.076  0.6707  1.2748  0.6482
  169DOPC   C2720541   7.616   1.258  14.913  0.4021 -0.0201 -0.2459
  169DOPC   H7R20542   7.508   1.285  14.922  0.1073 -1.6745  1.7950
  169DOPC   H7S20543   7.625   1.167  14.976 -1.2564 -0.6887 -0.9084
  169DOPC   C2820544   7.642   1.230  14.765  0.1023  0.1952  0.0388
  169DOPC   H8R20545   7.571   1.151  14.732  0.0976  0.2626 -0.1126
  169DOPC   H8S20546   7.744   1.188  14.751  0.7611  2.2861 -1.8760
  169DOPC   C2920547   7.626   1.350  14.675 -0.8259 -0.0107 -0.2535
  169DOPC   H9R20548   7.522   1.383  14.664 -1.4417 -1.4095  1.0594
  169DOPC  C21020549   7.720   1.418  14.600  0.1778  0.1178 -0.3418
  169DOPC  H10R20550   7.686   1.504  14.541 -1.7839  0.8254  1.7069
  169DOPC  C21120551   7.869   1.377  14.603  0.0478  0.4551  0.5180
  169DOPC  H11R20552   7.892   1.384  14.494  0.0363  0.2214  0.4997
  169DOPC  H11S20553   7.885   1.269  14.625  2.0304  0.6556  0.2519
  169DOPC  C21220554   7.957   1.478  14.675 -0.4294 -0.0078 -0.0973
  169DOPC  H12R20555   7.937   1.482  14.784 -0.9888 -1.7829 -0.1014
  169DOPC  H12S20556   7.937   1.575  14.625  1.8721 -1.1072 -3.4856
  169DOPC  C21320557   8.103   1.441  14.648  0.3102 -0.1350 -0.2807
  169DOPC  H13R20558   8.092   1.418  14.540  1.8215  0.1043 -0.5144
  169DOPC  H13S20559   8.139   1.347  14.695  0.9748 -0.5092 -1.4895
  169DOPC  C21420560   8.200   1.556  14.674  0.9163 -0.0436  0.1147
  169DOPC  H14R20561   8.183   1.585  14.780  0.5340 -2.2393  0.7207
  169DOPC  H14S20562   8.176   1.639  14.605 -2.7088 -0.3732  0.7634
  169DOPC  C21520563   8.345   1.516  14.684 -0.5999 -0.2149 -0.2477
  169DOPC  H15R20564   8.361   1.448  14.770 -0.8484 -1.0619 -0.8532
  169DOPC  H15S20565   8.412   1.604  14.696 -2.2198  0.9353  0.7973
  169DOPC  C21620566   8.393   1.433  14.556  0.3550 -0.0987  0.5393
  169DOPC  H16R20567   8.329   1.342  14.549  1.4690 -0.7831 -1.2301
  169DOPC  H16S20568   8.499   1.410  14.579  1.4107  2.5210 -1.2226
  169DOPC  C21720569   8.380   1.490  14.410  0.3460 -0.0423 -0.8077
  169DOPC  H17R20570   8.271   1.498  14.391 -0.6794 -3.1108  2.5809
  169DOPC  H17S20571   8.427   1.420  14.338  0.5834 -3.1501  2.1229
  169DOPC  C21820572   8.428   1.637  14.405 -0.3054 -0.4768  0.3285
  169DOPC  H18R20573   8.538   1.646  14.393 -0.3609  0.4594  0.4840
  169DOPC  H18S20574   8.406   1.684  14.503  3.1623 -0.5315  1.2644
  169DOPC  H18T20575   8.383   1.696  14.322  0.7545 -0.5316 -0.3061
  169DOPC   C3320576   7.727   1.007  15.424 -0.1745 -0.0940 -0.5370
  169DOPC   H3X20577   7.650   1.019  15.503 -0.6388 -1.2215 -0.7891
  169DOPC   H3Y20578   7.833   0.990  15.454  0.8594  0.8116 -3.3083
  169DOPC   C3420579   7.677   0.894  15.332 -0.2393 -0.9137 -0.6231
  169DOPC   H4X20580   7.709   0.918  15.228 -0.1493 -0.2822 -0.4585
  169DOPC   H4Y20581   7.566   0.905  15.341 -0.0084  0.3219  1.1788
  169DOPC   C3520582   7.710   0.748  15.357 -0.1773 -0.9938 -0.0727
  169DOPC   H5X20583   7.676   0.724  15.460  1.5772  1.6167  1.2248
  169DOPC   H5Y20584   7.819   0.727  15.345  0.6166  3.4120 -2.7043
  169DOPC   C3620585   7.632   0.661  15.255  0.3352 -0.2527  0.2376
  169DOPC   H6X20586   7.528   0.701  15.247  0.2165  0.0067  2.3571
  169DOPC   H6Y20587   7.696   0.667  15.165 -1.0264  0.1163 -0.7423
  169DOPC   C3720588   7.628   0.513  15.309  0.2527 -1.0533  0.2526
  169DOPC   H7X20589   7.733   0.485  15.334  1.3245  1.2020 -1.3760
  169DOPC   H7Y20590   7.564   0.509  15.400 -0.1674 -1.9069 -0.0677
  169DOPC   C3820591   7.560   0.425  15.200 -0.2885 -0.0000  0.3072
  169DOPC   H8X20592   7.489   0.493  15.148  1.7836  2.8330  0.9363
  169DOPC   H8Y20593   7.522   0.336  15.254  0.5520 -0.7909 -0.3885
  169DOPC   C3920594   7.670   0.383  15.099 -0.4316 -0.1571 -0.0951
  169DOPC   H9X20595   7.709   0.468  15.040  1.1567 -0.3534  0.6265
  169DOPC  C31020596   7.743   0.267  15.108 -0.1911 -0.4118 -0.3213
  169DOPC  H10X20597   7.838   0.265  15.053 -1.5823  2.1886 -3.1444
  169DOPC  C31120598   7.709   0.149  15.189  1.0521  0.3466  0.4513
  169DOPC  H11X20599   7.603   0.151  15.221  0.9121 -1.1592  0.1462
  169DOPC  H11Y20600   7.777   0.140  15.277  0.5214 -2.1571  0.6574
  169DOPC  C31220601   7.720   0.016  15.111  0.8215  0.2664  0.3384
  169DOPC  H12X20602   7.826   0.008  15.079  0.6653 -0.3440 -0.0216
  169DOPC  H12Y20603   7.654   0.023  15.022  1.1465  2.4103  0.2175
  169DOPC  C31320604   7.681  -0.104  15.208 -0.1656 -0.9246  0.0296
  169DOPC  H13X20605   7.726  -0.096  15.310 -1.1384 -1.1968  0.4914
  169DOPC  H13Y20606   7.574  -0.085  15.230  0.5056  1.2319  1.8112
  169DOPC  C31420607   7.686  -0.247  15.149 -0.8917 -0.0125  0.0544
  169DOPC  H14X20608   7.790  -0.244  15.110 -0.8149  2.3422  0.3018
  169DOPC  H14Y20609   7.689  -0.328  15.226  0.8365  0.2201  0.2744
  169DOPC  C31520610   7.603  -0.276  15.023 -0.4282  0.3677 -0.2476
  169DOPC  H15X20611   7.631  -0.213  14.936 -0.6992 -1.0744 -1.4240
  169DOPC  H15Y20612   7.498  -0.251  15.050  0.0120  0.9924  0.9556
  169DOPC  C31620613   7.612  -0.427  14.989 -0.0872  0.4405  0.8143
  169DOPC  H16X20614   7.710  -0.422  14.937 -0.0316 -0.9339  0.7653
  169DOPC  H16Y20615   7.617  -0.487  15.082 -3.0858 -3.8566 -1.4575
  169DOPC  C31720616   7.513  -0.476  14.884 -0.5311  0.1277  0.0159
  169DOPC  H17X20617   7.495  -0.400  14.806  2.6310  0.2437 -0.7380
  169DOPC  H17Y20618   7.557  -0.560  14.826  0.0611  3.1780 -4.4446
  169DOPC  C31820619   7.382  -0.528  14.949 -0.3263 -0.1966  0.3986
  169DOPC  H18X20620   7.325  -0.438  14.978  1.6942  1.1751  0.3151
  169DOPC  H18Y20621   7.318  -0.580  14.874 -0.8852 -0.3087  0.9420
  169DOPC  H18Z20622   7.384  -0.605  15.029  0.9605  0.8610  1.4165
  170DOPC     N20623   6.979   6.011  16.286  0.5419 -1.1923  0.4432
  170DOPC   C1220624   7.076   6.009  16.164  0.1267  0.5824 -0.3200
  170DOPC  H12A20625   7.075   5.912  16.117  2.6033  0.7457 -0.8400
  170DOPC  H12B20626   7.177   6.018  16.200  0.9935 -0.8647 -2.2398
  170DOPC   C1320627   6.836   5.999  16.232  0.1209  0.1833 -0.6095
  170DOPC  H13A20628   6.814   5.898  16.201 -0.4788  0.5208 -1.3143
  170DOPC  H13B20629   6.769   6.019  16.315 -1.6398 -1.1218 -1.6537
  170DOPC  H13C20630   6.811   6.068  16.153 -0.0198  0.1185 -0.6218
  170DOPC   C1420631   6.991   6.139  16.357  0.1346  0.3563 -0.1043
  170DOPC  H14A20632   6.901   6.154  16.415  0.8801 -0.0364  1.1889
  170DOPC  H14B20633   7.079   6.134  16.419 -0.2169  0.6850  0.4270
  170DOPC  H14C20634   7.005   6.218  16.284  1.5849  1.0271  0.8636
  170DOPC   C1520635   7.008   5.898  16.383 -0.2471  0.1239 -0.6255
  170DOPC  H15A20636   6.986   5.801  16.341 -0.2118 -1.0603  1.8892
  170DOPC  H15B20637   6.950   5.913  16.473 -0.5425 -2.7913 -0.2218
  170DOPC  H15C20638   7.113   5.889  16.407 -0.5694 -0.6603  0.5968
  170DOPC   C1120639   7.060   6.122  16.062  0.1504  0.5592 -0.0432
  170DOPC  H11A20640   7.128   6.108  15.976  2.4982  1.1399  1.6399
  170DOPC  H11B20641   6.957   6.125  16.019  0.7053 -1.5258 -1.6976
  170DOPC     P20642   7.059   6.389  16.066  0.0872 -0.0132  0.2128
  170DOPC   O1320643   7.165   6.496  16.080  0.7574  0.8110 -0.3337
  170DOPC   O1420644   6.940   6.401  16.154 -0.1016 -0.5919 -0.1999
  170DOPC   O1220645   7.113   6.241  16.118 -0.2833 -0.5716 -0.5303
  170DOPC   O1120646   7.032   6.352  15.919  0.3414  0.6829  0.1728
  170DOPC    C120647   6.898   6.355  15.868  0.5762  0.5921 -0.1743
  170DOPC    HA20648   6.849   6.447  15.908 -1.2847 -0.4092 -0.0315
  170DOPC    HB20649   6.856   6.260  15.908  1.3339  0.9207  1.4689
  170DOPC    C220650   6.908   6.358  15.712  0.0851  0.1124  0.3864
  170DOPC    HS20651   6.805   6.344  15.673 -0.3444 -0.1066  1.5504
  170DOPC   O2120652   6.993   6.254  15.662 -0.4048  0.1405  0.6266
  170DOPC   C2120653   6.948   6.125  15.667  0.8723 -0.7908 -0.3094
  170DOPC   O2220654   6.836   6.093  15.709 -0.2303  0.0455 -0.5390
  170DOPC   C2220655   7.062   6.022  15.645  0.4524  0.0196  0.7398
  170DOPC   H2R20656   7.017   5.921  15.634  0.6030 -0.0765  1.0281
  170DOPC   H2S20657   7.130   6.022  15.732  2.0739  1.0622 -0.4492
  170DOPC    C320658   6.971   6.488  15.666 -0.4334  0.1459 -0.7996
  170DOPC    HX20659   7.078   6.491  15.697 -0.5063  0.6227 -0.6002
  170DOPC    HY20660   6.916   6.571  15.714 -0.8129  0.7420 -2.2169
  170DOPC   O3120661   6.964   6.486  15.520  0.0085  0.0535 -0.1287
  170DOPC   C3120662   7.014   6.594  15.470 -0.0830  0.7761 -0.0822
  170DOPC   O3220663   7.038   6.696  15.530 -0.1271 -0.3353 -0.3568
  170DOPC   C3220664   7.024   6.576  15.321 -0.5255  0.0535  0.5148
  170DOPC   H2X20665   7.080   6.481  15.310  0.8106  0.4539  3.0861
  170DOPC   H2Y20666   6.925   6.565  15.272 -0.5408  2.5963 -0.1535
  170DOPC   C2320667   7.137   6.048  15.504 -0.8712 -0.0251 -1.2736
  170DOPC   H3R20668   7.221   5.977  15.507  0.9243  2.0377  0.0603
  170DOPC   H3S20669   7.171   6.154  15.505  0.2944 -0.3940 -0.6637
  170DOPC   C2420670   7.052   6.041  15.380  0.0858  0.1544  0.2877
  170DOPC   H4R20671   7.113   6.086  15.299  0.0399 -0.5797 -0.1569
  170DOPC   H4S20672   6.965   6.110  15.389 -0.7506 -0.7722 -0.5604
  170DOPC   C2520673   7.019   5.893  15.327 -0.2716 -0.6548 -0.1026
  170DOPC   H5R20674   6.967   5.835  15.406  0.7890 -4.2571 -1.8270
  170DOPC   H5S20675   7.119   5.844  15.319  1.2606  2.0948  0.9641
  170DOPC   C2620676   6.949   5.889  15.191  0.8785  0.1554 -0.8986
  170DOPC   H6R20677   6.870   5.966  15.188 -2.0331 -2.5906 -0.5299
  170DOPC   H6S20678   6.908   5.786  15.181  2.0435 -0.2778 -1.4798
  170DOPC   C2720679   7.043   5.913  15.076  0.4072 -0.3938 -0.0425
  170DOPC   H7R20680   7.132   5.849  15.090  1.2316  0.8291  0.4614
  170DOPC   H7S20681   7.062   6.022  15.072 -1.4483 -0.0191  0.3159
  170DOPC   C2820682   6.986   5.866  14.937 -0.2245  0.0587  0.2784
  170DOPC   H8R20683   6.981   5.755  14.936 -1.6792  0.0424 -2.5472
  170DOPC   H8S20684   7.065   5.893  14.864 -0.7824  2.7510  0.5795
  170DOPC   C2920685   6.843   5.921  14.906  0.0365 -0.0715 -0.1528
  170DOPC   H9R20686   6.758   5.909  14.975 -0.9181  1.3681 -1.0275
  170DOPC  C21020687   6.803   5.985  14.798  0.0944 -0.2785 -0.5609
  170DOPC  H10R20688   6.700   6.023  14.790 -0.2441 -0.5814  1.6693
  170DOPC  C21120689   6.888   6.013  14.677 -0.7328  0.0657 -0.4247
  170DOPC  H11R20690   6.841   6.006  14.577 -1.0053 -0.5870 -0.2580
  170DOPC  H11S20691   6.961   5.930  14.667 -0.0326  0.5750  0.3748
  170DOPC  C21220692   6.948   6.149  14.694  0.1845  0.6145  0.0863
  170DOPC  H12R20693   7.018   6.145  14.780 -0.1405 -1.3171  0.3067
  170DOPC  H12S20694   6.867   6.225  14.703  0.4781  0.8839  0.4542
  170DOPC  C21320695   7.026   6.182  14.567 -0.3770 -0.5881 -0.2496
  170DOPC  H13R20696   7.077   6.280  14.578  1.6395 -1.5991 -0.1506
  170DOPC  H13S20697   6.958   6.192  14.479 -0.0415  0.4684 -0.4073
  170DOPC  C21420698   7.140   6.086  14.519  0.6187 -0.3868  0.2918
  170DOPC  H14R20699   7.086   6.005  14.467  1.0257 -1.2980  1.2623
  170DOPC  H14S20700   7.193   6.031  14.599  0.6059 -1.5800 -0.4909
  170DOPC  C21520701   7.247   6.157  14.434  0.3306 -0.6829 -0.3476
  170DOPC  H15R20702   7.317   6.212  14.500 -0.9794 -0.0420  0.5695
  170DOPC  H15S20703   7.199   6.236  14.372  1.4794 -1.7445 -2.7133
  170DOPC  C21620704   7.318   6.068  14.334 -1.0409 -0.3841 -0.1371
  170DOPC  H16R20705   7.349   6.132  14.248  1.6304 -1.1974  0.1208
  170DOPC  H16S20706   7.246   5.994  14.294 -2.4062  0.9003 -0.1226
  170DOPC  C21720707   7.438   5.980  14.384 -0.1917 -0.0332  0.7398
  170DOPC  H17R20708   7.421   5.920  14.476 -0.5218 -1.5440 -0.2603
  170DOPC  H17S20709   7.518   6.048  14.420  0.1858 -0.7724  1.3196
  170DOPC  C21820710   7.493   5.893  14.270 -0.7206 -0.2410  0.3652
  170DOPC  H18R20711   7.408   5.825  14.246  1.3920 -3.0570  0.2881
  170DOPC  H18S20712   7.583   5.835  14.298  0.9293  2.5857  1.3076
  170DOPC  H18T20713   7.504   5.945  14.172  0.4498 -0.9567  0.0985
  170DOPC   C3320714   7.087   6.691  15.242 -0.0819  0.2321  0.3923
  170DOPC   H3X20715   7.184   6.720  15.289  0.7044  0.5214 -1.3255
  170DOPC   H3Y20716   7.020   6.780  15.246  0.1971  0.5173 -0.7928
  170DOPC   C3420717   7.113   6.664  15.094 -0.1479  0.9775 -0.1184
  170DOPC   H4X20718   7.022   6.644  15.035 -0.9690  1.6743  0.8856
  170DOPC   H4Y20719   7.175   6.571  15.091 -2.7368 -0.8437 -2.4598
  170DOPC   C3520720   7.200   6.769  15.029 -0.3288  0.0765 -0.2111
  170DOPC   H5X20721   7.301   6.787  15.074  0.0347  0.9174 -1.3156
  170DOPC   H5Y20722   7.138   6.859  15.045 -1.6688 -0.4772 -2.0138
  170DOPC   C3620723   7.228   6.745  14.884  0.4152  0.3704 -0.4280
  170DOPC   H6X20724   7.298   6.823  14.848  1.2261  0.8917  2.0422
  170DOPC   H6Y20725   7.292   6.654  14.874 -0.6820 -0.3300 -1.2240
  170DOPC   C3720726   7.105   6.738  14.788  0.2540  0.4917  0.4704
  170DOPC   H7X20727   7.014   6.688  14.829  1.4980 -1.9051  0.4469
  170DOPC   H7Y20728   7.077   6.844  14.766 -1.9130 -0.4868 -1.9839
  170DOPC   C3820729   7.137   6.662  14.656  0.0551  0.4259 -0.3005
  170DOPC   H8X20730   7.165   6.560  14.691  1.3419  0.3861 -1.3640
  170DOPC   H8Y20731   7.230   6.698  14.607  0.4682  1.1077  0.9406
  170DOPC   C3920732   7.021   6.636  14.558 -0.7203  0.0965 -0.0738
  170DOPC   H9X20733   6.987   6.531  14.567 -1.0019  0.3222  2.1381
  170DOPC  C31020734   6.947   6.726  14.496  0.9919  0.3727  0.1214
  170DOPC  H10X20735   6.865   6.687  14.433  0.3497  0.2815  0.9905
  170DOPC  C31120736   6.968   6.878  14.501 -0.1584  0.2281  0.0930
  170DOPC  H11X20737   6.966   6.911  14.395  2.5829  0.0309 -0.0705
  170DOPC  H11Y20738   7.064   6.902  14.551  0.3411  0.2032 -0.8413
  170DOPC  C31220739   6.840   6.943  14.567 -0.2035 -0.4696  0.2804
  170DOPC  H12X20740   6.868   7.049  14.585 -1.6965 -0.2520  1.5453
  170DOPC  H12Y20741   6.820   6.886  14.660  1.5696 -0.6458  0.5997
  170DOPC  C31320742   6.723   6.949  14.466  0.5981 -0.0180 -0.0394
  170DOPC  H13X20743   6.747   7.018  14.382  0.3644  0.3710  0.2120
  170DOPC  H13Y20744   6.698   6.854  14.414  0.3940  0.5678 -1.0391
  170DOPC  C31420745   6.604   7.011  14.529  1.0919 -0.5188 -0.1480
  170DOPC  H14X20746   6.568   6.950  14.615 -1.6662  0.5974 -0.4108
  170DOPC  H14Y20747   6.632   7.111  14.569 -1.2415 -0.3622  1.2709
  170DOPC  C31520748   6.487   7.010  14.426 -0.3567 -0.3862 -0.5599
  170DOPC  H15X20749   6.425   6.919  14.440 -1.1033  0.2484  0.3812
  170DOPC  H15Y20750   6.523   7.013  14.321 -2.1820 -1.0499 -1.2485
  170DOPC  C31620751   6.402   7.134  14.454  0.2281  0.0144 -0.6005
  170DOPC  H16X20752   6.378   7.160  14.559  0.2654  0.0311 -0.5963
  170DOPC  H16Y20753   6.452   7.226  14.416 -0.5385  0.4449 -0.5951
  170DOPC  C31720754   6.264   7.121  14.378 -0.5343 -0.1826 -0.1617
  170DOPC  H17X20755   6.291   7.105  14.271 -1.1979  0.6863 -0.4659
  170DOPC  H17Y20756   6.210   7.031  14.415 -1.1337  0.2266 -0.0280
  170DOPC  C31820757   6.185   7.250  14.396  0.3377 -0.4372 -0.4139
  170DOPC  H18X20758   6.095   7.267  14.334 -0.2753  1.5827  0.9312
  170DOPC  H18Y20759   6.157   7.267  14.502  2.1880 -1.2382  0.2441
  170DOPC  H18Z20760   6.258   7.328  14.368  0.0175 -0.2148 -0.6228
  171DOPC     N20761   4.115   3.097  12.098  0.0254  0.5748  0.2513
  171DOPC   C1220762   4.056   3.032  12.226 -0.5060 -0.3969 -0.6182
  171DOPC  H12A20763   4.133   2.992  12.290 -1.2840 -0.4245  0.3274
  171DOPC  H12B20764   3.998   2.946  12.198  0.2845 -0.4983 -2.0063
  171DOPC   C1320765   4.009   3.165  12.016  0.4996  0.2430 -0.1049
  171DOPC  H13A20766   3.988   3.262  12.058 -1.4511 -0.1978  0.0541
  171DOPC  H13B20767   4.044   3.179  11.915  0.4036 -2.9242 -0.7036
  171DOPC  H13C20768   3.917   3.107  12.014  0.5232 -0.0548  3.0722
  171DOPC   C1420769   4.183   2.996  12.003 -0.1871 -0.5753 -0.3555
  171DOPC  H14A20770   4.116   2.927  11.954  0.8768 -1.1563 -1.0281
  171DOPC  H14B20771   4.242   3.040  11.925 -0.0288  0.0432  0.1052
  171DOPC  H14C20772   4.248   2.935  12.064 -1.0045 -1.2724 -0.1510
  171DOPC   C1520773   4.219   3.207  12.136  0.2464 -0.0095  0.5111
  171DOPC  H15A20774   4.308   3.163  12.180  0.9006 -0.6962 -1.3840
  171DOPC  H15B20775   4.181   3.280  12.206 -0.5700  1.5585 -1.4816
  171DOPC  H15C20776   4.241   3.258  12.043 -2.2321 -0.4082 -0.3537
  171DOPC   C1120777   3.966   3.131  12.314 -0.8269 -0.2827 -0.3122
  171DOPC  H11A20778   3.892   3.174  12.243 -0.1549  0.2561 -0.7021
  171DOPC  H11B20779   3.912   3.078  12.395  0.7058 -0.3641  0.6997
  171DOPC     P20780   4.114   3.229  12.505  0.1075 -0.1377  0.2422
  171DOPC   O1320781   4.156   3.363  12.551 -0.5249 -0.2807  0.5869
  171DOPC   O1420782   4.217   3.120  12.489  0.6257 -0.0880 -0.3144
  171DOPC   O1220783   4.050   3.237  12.367  0.8842 -0.0191 -0.6039
  171DOPC   O1120784   3.999   3.184  12.597 -0.0329  0.6670  0.5435
  171DOPC    C120785   3.893   3.268  12.641 -0.2264 -0.1990 -0.2020
  171DOPC    HA20786   3.798   3.210  12.645 -1.5185  1.8687  0.9478
  171DOPC    HB20787   3.873   3.354  12.575 -0.3532  1.7980  2.2713
  171DOPC    C220788   3.916   3.321  12.783 -0.1297  0.8516 -0.2640
  171DOPC    HS20789   4.025   3.336  12.792 -0.2867  0.6367  3.3713
  171DOPC   O2120790   3.876   3.221  12.880 -1.0559 -0.0286 -0.4252
  171DOPC   C2120791   3.957   3.227  12.991 -0.6530  0.5189 -0.3220
  171DOPC   O2220792   4.038   3.315  13.019 -0.0395  0.4174  0.0178
  171DOPC   C2220793   3.903   3.122  13.085  0.0515  1.0206 -0.0804
  171DOPC   H2R20794   3.909   3.024  13.033 -3.1656  0.1876  0.9245
  171DOPC   H2S20795   3.798   3.145  13.113 -0.7197 -2.8915  0.7583
  171DOPC    C320796   3.842   3.453  12.806  0.0757  0.4226  0.5249
  171DOPC    HX20797   3.739   3.428  12.773  0.6767  0.0958 -1.1937
  171DOPC    HY20798   3.883   3.527  12.733 -1.3617  1.9984  1.2547
  171DOPC   O3120799   3.835   3.491  12.945 -0.1238  0.7334 -0.2074
  171DOPC   C3120800   3.918   3.589  12.982 -0.2925  0.0973 -0.2276
  171DOPC   O3220801   3.995   3.647  12.905  0.4545 -0.3364 -0.2775
  171DOPC   C3220802   3.910   3.608  13.127  0.7493  0.4876  0.1827
  171DOPC   H2X20803   3.808   3.645  13.149 -0.0036 -1.7151  0.6326
  171DOPC   H2Y20804   3.920   3.507  13.173 -1.1561 -0.0738 -0.5498
  171DOPC   C2320805   3.991   3.109  13.214  0.6182  0.4732  0.0633
  171DOPC   H3R20806   4.009   3.208  13.262  0.9711  0.1530  0.5980
  171DOPC   H3S20807   4.090   3.070  13.184  0.6592 -0.7304  1.6008
  171DOPC   C2420808   3.925   3.012  13.313 -0.1039  0.1848  0.1542
  171DOPC   H4R20809   3.935   2.905  13.284  0.7706  0.4392 -0.5436
  171DOPC   H4S20810   3.817   3.033  13.322  0.0339  0.5249  1.0502
  171DOPC   C2520811   3.985   3.036  13.451  0.2190 -0.8677 -0.2567
  171DOPC   H5R20812   3.996   3.145  13.471  0.5426 -0.9530  0.0433
  171DOPC   H5S20813   4.092   3.006  13.446  0.6754 -0.0736  2.5865
  171DOPC   C2620814   3.914   2.958  13.566 -0.0395 -0.4696  0.0807
  171DOPC   H6R20815   3.929   2.851  13.541 -1.2447 -0.4597 -0.7466
  171DOPC   H6S20816   3.810   2.997  13.578  1.0731  2.0460  2.9965
  171DOPC   C2720817   3.979   2.978  13.705 -0.1869  0.9654 -0.7334
  171DOPC   H7R20818   3.946   3.070  13.757 -1.5402 -0.6701  1.4677
  171DOPC   H7S20819   4.090   2.979  13.697  0.0559 -0.8468  1.3860
  171DOPC   C2820820   3.954   2.853  13.793 -0.4104 -0.2694 -0.3734
  171DOPC   H8R20821   4.022   2.775  13.754 -0.8143 -1.1462  0.6263
  171DOPC   H8S20822   3.855   2.813  13.762 -0.1444  0.1794 -1.8464
  171DOPC   C2920823   3.976   2.874  13.940  0.3368  0.4627  0.0996
  171DOPC   H9R20824   4.071   2.924  13.962  0.1351 -0.1419  2.6679
  171DOPC  C21020825   3.892   2.847  14.042 -0.0706 -0.1258 -0.0421
  171DOPC  H10R20826   3.932   2.869  14.142  2.2246 -1.4755 -0.5771
  171DOPC  C21120827   3.752   2.791  14.038 -0.1080 -0.3551  0.1076
  171DOPC  H11R20828   3.745   2.712  14.116 -2.2440  0.6566  1.0189
  171DOPC  H11S20829   3.726   2.744  13.940 -1.7506 -0.6622  0.6548
  171DOPC  C21220830   3.643   2.896  14.066  0.6283 -0.5096 -0.4782
  171DOPC  H12R20831   3.638   2.973  13.986 -0.2042  1.3189  1.2377
  171DOPC  H12S20832   3.672   2.951  14.158  1.5137  0.4721 -1.3299
  171DOPC  C21320833   3.499   2.838  14.074  0.5617 -0.1248  0.6610
  171DOPC  H13R20834   3.488   2.759  14.150 -0.6011 -0.5591  0.0654
  171DOPC  H13S20835   3.469   2.796  13.975 -2.4305  1.6938  0.6860
  171DOPC  C21420836   3.393   2.954  14.107 -0.1067 -0.3651  0.8113
  171DOPC  H14R20837   3.292   2.927  14.072 -0.2876 -0.4247  1.3726
  171DOPC  H14S20838   3.421   3.040  14.042 -1.0147 -0.0900  0.7817
  171DOPC  C21520839   3.383   3.003  14.254 -0.3989  0.0631 -0.2323
  171DOPC  H15R20840   3.474   3.067  14.264 -0.2979  0.0676 -1.0741
  171DOPC  H15S20841   3.395   2.922  14.329 -0.0261  0.1066 -0.2430
  171DOPC  C21620842   3.266   3.092  14.286 -0.3057 -0.1210 -0.1044
  171DOPC  H16R20843   3.172   3.041  14.253 -0.8168  0.4481  0.4496
  171DOPC  H16S20844   3.267   3.192  14.238  0.6258  1.4189  2.9043
  171DOPC  C21720845   3.241   3.124  14.433 -0.3040  0.1773  0.9139
  171DOPC  H17R20846   3.323   3.198  14.447  3.8320 -3.5788 -1.2414
  171DOPC  H17S20847   3.257   3.034  14.496 -0.0086 -0.9021 -0.6676
  171DOPC  C21820848   3.102   3.173  14.459 -0.6399 -0.2517  0.5559
  171DOPC  H18R20849   3.095   3.213  14.562  1.3894  0.1969  0.5518
  171DOPC  H18S20850   3.029   3.089  14.448  0.6713 -1.2454 -0.9732
  171DOPC  H18T20851   3.065   3.258  14.398  1.7740 -0.9012 -1.9782
  171DOPC   C3320852   4.016   3.696  13.194 -0.2599 -0.2876  0.2453
  171DOPC   H3X20853   4.027   3.798  13.152 -1.8219  0.5193  1.6689
  171DOPC   H3Y20854   4.113   3.642  13.182 -0.2662 -0.3082  0.2868
  171DOPC   C3420855   3.997   3.698  13.344 -0.2891  0.2853 -0.0968
  171DOPC   H4X20856   4.034   3.605  13.391 -1.6696 -0.6577 -0.8038
  171DOPC   H4Y20857   3.890   3.726  13.360 -0.4324  0.5004 -1.3060
  171DOPC   C3520858   4.083   3.807  13.403 -0.2528  0.2220  0.5410
  171DOPC   H5X20859   4.169   3.815  13.334  0.6339 -0.8869  1.4819
  171DOPC   H5Y20860   4.104   3.770  13.505  0.5982  0.3029  0.4044
  171DOPC   C3620861   4.014   3.940  13.421  0.1797  0.3161 -0.2972
  171DOPC   H6X20862   3.963   3.968  13.326  1.7385  3.0026 -0.4615
  171DOPC   H6Y20863   3.947   3.942  13.509  1.9373  1.4100  1.0923
  171DOPC   C3720864   4.129   4.049  13.437  0.1155  0.3963  0.4778
  171DOPC   H7X20865   4.223   4.031  13.381 -0.5047 -1.7557  0.0504
  171DOPC   H7Y20866   4.095   4.149  13.402 -0.7986  0.6467  1.9913
  171DOPC   C3820867   4.158   4.070  13.588 -0.3688  0.1769 -0.0832
  171DOPC   H8X20868   4.194   3.971  13.622 -1.9299 -0.1125  0.8819
  171DOPC   H8Y20869   4.068   4.087  13.652 -0.4976  0.8071 -0.4202
  171DOPC   C3920870   4.269   4.164  13.623 -0.7608 -0.3715  0.1180
  171DOPC   H9X20871   4.331   4.201  13.539 -2.1462  1.4198 -0.1817
  171DOPC  C31020872   4.294   4.227  13.741  0.4349 -0.1842  0.4301
  171DOPC  H10X20873   4.379   4.297  13.745 -0.7589  1.5023 -1.7034
  171DOPC  C31120874   4.232   4.193  13.875  0.0872  0.0605 -0.3510
  171DOPC  H11X20875   4.187   4.091  13.874  1.1702 -0.4362  0.1082
  171DOPC  H11Y20876   4.151   4.265  13.899  0.5623  1.6992 -3.2896
  171DOPC  C31220877   4.343   4.211  13.978  0.7223  0.8158 -0.1788
  171DOPC  H12X20878   4.383   4.315  13.973  0.6178  0.9735  1.6513
  171DOPC  H12Y20879   4.428   4.142  13.958  1.8654  2.2297 -0.3957
  171DOPC  C31320880   4.294   4.194  14.123 -0.2780  0.2153 -0.1121
  171DOPC  H13X20881   4.208   4.264  14.137 -1.2682 -0.1390 -3.5261
  171DOPC  H13Y20882   4.254   4.091  14.124  2.9729 -1.1756 -1.1733
  171DOPC  C31420883   4.402   4.196  14.227  0.2510 -0.6513 -0.0776
  171DOPC  H14X20884   4.363   4.184  14.330  1.8986  1.2172  0.8310
  171DOPC  H14Y20885   4.462   4.104  14.215 -0.7413 -1.3505  0.2287
  171DOPC  C31520886   4.494   4.316  14.214 -0.9772  0.2001  0.1180
  171DOPC  H15X20887   4.434   4.408  14.228 -1.7111 -0.1677 -0.5214
  171DOPC  H15Y20888   4.545   4.317  14.115 -2.6714  0.4183 -0.8006
  171DOPC  C31620889   4.598   4.317  14.330 -0.5899  0.2130 -0.3998
  171DOPC  H16X20890   4.646   4.416  14.343 -0.4489 -0.1219  2.0334
  171DOPC  H16Y20891   4.543   4.307  14.426  0.1280 -0.3692 -0.0411
  171DOPC  C31720892   4.705   4.207  14.318  0.3725  0.0738 -0.0952
  171DOPC  H17X20893   4.661   4.105  14.316  0.0012  0.2381 -1.6220
  171DOPC  H17Y20894   4.755   4.210  14.219 -1.4419 -0.3221 -1.0655
  171DOPC  C31820895   4.802   4.220  14.439  0.1116 -0.1843 -0.0191
  171DOPC  H18X20896   4.853   4.319  14.431  2.4663 -1.2482  1.0955
  171DOPC  H18Y20897   4.750   4.202  14.535  1.2067 -0.9698  0.4496
  171DOPC  H18Z20898   4.889   4.153  14.422 -0.1560 -1.3094  2.7350
  172DOPC     N20899   4.532   4.912  12.307 -0.3936 -0.1530 -0.6357
  172DOPC   C1220900   4.503   5.000  12.427  0.0273  0.0579  0.0487
  172DOPC  H12A20901   4.397   4.998  12.448 -0.4045  1.4986 -1.7552
  172DOPC  H12B20902   4.521   5.100  12.390 -0.4577 -0.1902 -0.8897
  172DOPC   C1320903   4.496   4.766  12.332 -0.5181 -0.1098 -0.4097
  172DOPC  H13A20904   4.558   4.703  12.270 -1.1981 -0.8160 -0.3870
  172DOPC  H13B20905   4.523   4.738  12.433 -1.2702 -0.7318 -0.3722
  172DOPC  H13C20906   4.390   4.756  12.315 -0.9614  1.4609  1.1647
  172DOPC   C1420907   4.674   4.917  12.274 -0.6460  0.0131  1.0782
  172DOPC  H14A20908   4.736   4.869  12.348  1.6912  1.7882  0.3832
  172DOPC  H14B20909   4.687   4.861  12.182  1.1068  0.6664  0.8915
  172DOPC  H14C20910   4.707   5.018  12.255 -0.3862 -0.4188 -1.0787
  172DOPC   C1520911   4.450   4.948  12.190 -0.1004 -0.6266  0.8888
  172DOPC  H15A20912   4.478   4.897  12.099 -0.3275  0.0456  0.4318
  172DOPC  H15B20913   4.459   5.053  12.166 -1.1037 -1.2005 -2.4841
  172DOPC  H15C20914   4.348   4.921  12.212 -0.8043  0.6284 -0.6588
  172DOPC   C1120915   4.573   4.970  12.563 -0.5429  0.2698 -0.2462
  172DOPC  H11A20916   4.684   4.963  12.554 -0.4823 -4.8489  1.4922
  172DOPC  H11B20917   4.551   5.054  12.633  1.6795 -1.6309  3.0420
  172DOPC     P20918   4.371   4.840  12.664 -0.1498 -0.0704  0.6130
  172DOPC   O1320919   4.329   4.696  12.642  0.2946 -0.4339 -0.3779
  172DOPC   O1420920   4.287   4.941  12.606 -0.1874 -0.2729  0.2152
  172DOPC   O1220921   4.519   4.852  12.622 -0.3706  0.0999  0.2303
  172DOPC   O1120922   4.374   4.860  12.818  0.4240 -0.1654 -0.5826
  172DOPC    C120923   4.455   4.795  12.911 -0.5999 -0.0828 -0.1826
  172DOPC    HA20924   4.520   4.722  12.859  1.9612  1.6722  0.3880
  172DOPC    HB20925   4.392   4.740  12.984  1.2951 -1.4815  0.4864
  172DOPC    C220926   4.548   4.899  12.984 -0.3182 -0.0902 -0.2138
  172DOPC    HS20927   4.616   4.947  12.910  0.3758 -1.9824 -0.8691
  172DOPC   O2120928   4.628   4.823  13.078 -0.1243 -0.7574  0.2423
  172DOPC   C2120929   4.731   4.755  13.021  0.3756 -0.0299  0.4474
  172DOPC   O2220930   4.772   4.771  12.905 -0.2862  0.2694  0.4793
  172DOPC   C2220931   4.792   4.661  13.118 -0.1527 -0.0713 -0.0860
  172DOPC   H2R20932   4.779   4.560  13.073  1.3596 -0.3952  0.1571
  172DOPC   H2S20933   4.755   4.663  13.222 -0.2181 -0.6002 -0.0965
  172DOPC    C320934   4.462   5.007  13.057 -0.7342  0.3457 -0.3963
  172DOPC    HX20935   4.383   5.035  12.984  0.0084  0.9942 -0.9650
  172DOPC    HY20936   4.528   5.096  13.062  0.4274 -0.4686 -0.8659
  172DOPC   O3120937   4.408   4.950  13.174  0.1947 -0.2858 -0.0928
  172DOPC   C3120938   4.489   4.966  13.282  0.3451  0.5210  1.0152
  172DOPC   O3220939   4.568   5.055  13.296 -0.6056  0.1228 -0.0385
  172DOPC   C3220940   4.466   4.858  13.385  0.0140 -0.3233  1.0018
  172DOPC   H2X20941   4.396   4.907  13.456 -2.0646  1.6139 -2.1515
  172DOPC   H2Y20942   4.412   4.771  13.340 -0.4299 -0.4667  1.7819
  172DOPC   C2320943   4.940   4.686  13.127 -0.0011 -0.2111 -0.3605
  172DOPC   H3R20944   4.968   4.793  13.131 -1.3587  0.1876 -0.9507
  172DOPC   H3S20945   4.986   4.645  13.034  0.0223  1.3072 -1.0453
  172DOPC   C2420946   5.015   4.595  13.232  0.0312  0.0063 -1.0297
  172DOPC   H4R20947   5.008   4.484  13.225  1.7188 -0.3615  1.6727
  172DOPC   H4S20948   4.966   4.612  13.330 -1.8288  0.1618 -1.9336
  172DOPC   C2520949   5.165   4.626  13.239  1.1934  0.4354 -0.4318
  172DOPC   H5R20950   5.198   4.732  13.226  3.1656 -0.2136 -1.0158
  172DOPC   H5S20951   5.212   4.567  13.158 -0.6334 -0.9544 -0.5320
  172DOPC   C2620952   5.230   4.575  13.365  0.1401  0.1538  0.0646
  172DOPC   H6R20953   5.340   4.583  13.351 -0.2942  2.7156 -3.0733
  172DOPC   H6S20954   5.202   4.468  13.374 -0.8017  0.4556  0.8673
  172DOPC   C2720955   5.198   4.659  13.490 -0.3373 -0.3308  0.3187
  172DOPC   H7R20956   5.095   4.699  13.483 -0.3031 -0.3433 -0.3193
  172DOPC   H7S20957   5.256   4.753  13.477  1.0046 -1.0798  0.6610
  172DOPC   C2820958   5.230   4.587  13.622 -0.1825  0.5415 -0.1614
  172DOPC   H8R20959   5.223   4.652  13.711 -0.0712 -0.6852  0.7733
  172DOPC   H8S20960   5.336   4.559  13.604 -0.3410 -0.4882  0.3708
  172DOPC   C2920961   5.153   4.461  13.666  0.3072 -0.4119  0.1894
  172DOPC   H9R20962   5.176   4.370  13.609  0.1113 -1.5640  1.8965
  172DOPC  C21020963   5.052   4.457  13.757  0.0060  0.7144  0.8023
  172DOPC  H10R20964   5.000   4.361  13.768  1.4823 -0.5793 -2.2140
  172DOPC  C21120965   5.006   4.575  13.827 -0.3070  0.2398  0.4368
  172DOPC  H11R20966   4.895   4.564  13.831 -0.1649 -1.1135  1.1683
  172DOPC  H11S20967   5.022   4.674  13.781  0.7834  1.1492  2.6495
  172DOPC  C21220968   5.041   4.582  13.975 -0.4082 -0.2618  0.3544
  172DOPC  H12R20969   5.029   4.687  14.008  1.7655 -0.1820  1.0395
  172DOPC  H12S20970   5.147   4.557  13.998 -0.9266 -0.5709  2.6552
  172DOPC  C21320971   4.964   4.481  14.065  0.0814  0.1898 -0.3285
  172DOPC  H13R20972   4.970   4.380  14.019  0.6890  0.0279  0.0931
  172DOPC  H13S20973   4.854   4.498  14.072 -0.1948 -1.5820  0.3147
  172DOPC  C21420974   5.023   4.479  14.210  0.3775  0.1647  0.1119
  172DOPC  H14R20975   5.132   4.469  14.188  0.6454  1.0320  0.9871
  172DOPC  H14S20976   4.988   4.390  14.266  0.1291  0.5275  0.5323
  172DOPC  C21520977   5.011   4.612  14.284  0.4241  0.4784  0.5055
  172DOPC  H15R20978   4.901   4.627  14.286  0.5061  1.4577 -1.1426
  172DOPC  H15S20979   5.060   4.696  14.232 -1.4706  2.6345  2.0168
  172DOPC  C21620980   5.075   4.610  14.427 -0.3503  0.2364 -0.4698
  172DOPC  H16R20981   5.182   4.591  14.405 -0.9459 -3.1677 -0.9483
  172DOPC  H16S20982   5.037   4.524  14.485  1.8188  0.9699  2.2451
  172DOPC  C21720983   5.055   4.722  14.529 -0.0697  0.7377  0.6334
  172DOPC  H17R20984   4.947   4.729  14.551 -0.4016  3.1947 -1.2744
  172DOPC  H17S20985   5.084   4.820  14.485  1.9864 -0.8809 -1.9408
  172DOPC  C21820986   5.120   4.693  14.666  0.0799  0.1571 -0.0253
  172DOPC  H18R20987   5.103   4.767  14.747  1.3657 -0.3214  0.7143
  172DOPC  H18S20988   5.230   4.694  14.651  0.4666 -0.5637  2.3275
  172DOPC  H18T20989   5.094   4.595  14.710  1.2756 -0.7418 -1.2372
  172DOPC   C3320990   4.597   4.820  13.459 -0.0443  0.7173  0.2152
  172DOPC   H3X20991   4.673   4.901  13.463  1.1036 -0.2745 -0.5843
  172DOPC   H3Y20992   4.628   4.724  13.412  1.4399  0.7179  1.1358
  172DOPC   C3420993   4.548   4.776  13.606  0.6164 -0.0264  0.8517
  172DOPC   H4X20994   4.484   4.686  13.599  0.3149  0.2143  0.4693
  172DOPC   H4Y20995   4.483   4.859  13.640 -0.8398 -0.1675 -1.4112
  172DOPC   C3520996   4.666   4.758  13.703  0.4536  0.7232  0.5215
  172DOPC   H5X20997   4.717   4.857  13.712 -1.2118  2.1725 -3.7831
  172DOPC   H5Y20998   4.746   4.692  13.662 -0.2135 -0.8458  1.6349
  172DOPC   C3620999   4.622   4.711  13.849 -0.5012  0.3288 -0.2973
  172DOPC   H6X21000   4.518   4.746  13.865 -0.3123  1.7081 -1.8044
  172DOPC   H6Y21001   4.630   4.601  13.861 -0.3860 -0.1826 -3.8460
  172DOPC   C3721002   4.713   4.778  13.954  0.0400  0.5574 -0.4909
  172DOPC   H7X21003   4.818   4.744  13.943  0.1781  0.8688 -0.1716
  172DOPC   H7Y21004   4.713   4.887  13.931 -0.4792  0.4996 -0.7611
  172DOPC   C3821005   4.667   4.742  14.099  0.5470 -0.1094 -0.0623
  172DOPC   H8X21006   4.752   4.747  14.170 -0.3102  0.8580  0.9281
  172DOPC   H8Y21007   4.636   4.636  14.102  1.8455 -0.5372 -1.2339
  172DOPC   C3921008   4.555   4.837  14.145 -0.6456 -0.0981  0.0858
  172DOPC   H9X21009   4.470   4.847  14.075 -1.2072 -2.9654  0.2329
  172DOPC  C31021010   4.553   4.899  14.262  0.7619 -0.7381 -0.8288
  172DOPC  H10X21011   4.471   4.959  14.304 -0.6663 -1.5711 -2.2837
  172DOPC  C31121012   4.656   4.883  14.374  0.3603  1.0294 -0.2812
  172DOPC  H11X21013   4.757   4.927  14.359  0.1739  1.7101  0.4040
  172DOPC  H11Y21014   4.666   4.774  14.393 -0.3703  1.3319  2.1220
  172DOPC  C31221015   4.595   4.932  14.511  0.1118 -0.3695  0.1192
  172DOPC  H12X21016   4.495   4.886  14.522 -0.4935  0.4420 -1.5991
  172DOPC  H12Y21017   4.576   5.041  14.508 -3.9130 -0.9415 -1.2888
  172DOPC  C31321018   4.687   4.897  14.626  0.0746 -0.4693 -0.6392
  172DOPC  H13X21019   4.787   4.941  14.604  0.1715  0.0348  0.6754
  172DOPC  H13Y21020   4.644   4.947  14.715 -2.9956 -4.4651  0.3995
  172DOPC  C31421021   4.689   4.747  14.660  0.8585  0.3227 -0.0276
  172DOPC  H14X21022   4.583   4.716  14.667  0.2664  2.5253  4.7003
  172DOPC  H14Y21023   4.749   4.693  14.583  1.2125  0.0412  0.4389
  172DOPC  C31521024   4.753   4.702  14.795 -0.2659 -0.4015 -0.1956
  172DOPC  H15X21025   4.694   4.753  14.875  1.6579  1.0611  0.3442
  172DOPC  H15Y21026   4.856   4.739  14.810 -0.2692 -1.4676  3.0552
  172DOPC  C31621027   4.755   4.552  14.823 -0.2176  0.4251 -0.3218
  172DOPC  H16X21028   4.841   4.516  14.762  2.4604  1.6331  2.4654
  172DOPC  H16Y21029   4.794   4.541  14.927  0.0430 -1.2201 -0.5580
  172DOPC  C31721030   4.624   4.467  14.801 -0.3492  0.1812  0.2454
  172DOPC  H17X21031   4.544   4.506  14.867  0.3005 -0.5518  1.5109
  172DOPC  H17Y21032   4.598   4.482  14.694 -1.2289 -1.2809  0.2251
  172DOPC  C31821033   4.631   4.311  14.815 -0.5326 -0.0436 -0.1460
  172DOPC  H18X21034   4.680   4.292  14.913 -0.8340 -0.8960 -0.1519
  172DOPC  H18Y21035   4.534   4.257  14.823  0.7506 -2.5166 -0.2760
  172DOPC  H18Z21036   4.700   4.255  14.749  1.1009  1.9282 -0.2153
  173DOPC     N21037   2.990   3.664  12.560  0.1693  0.1112 -0.0736
  173DOPC   C1221038   3.032   3.574  12.677  0.2703 -0.0175  0.0144
  173DOPC  H12A21039   3.114   3.620  12.729  0.6010 -1.6326  0.9854
  173DOPC  H12B21040   3.076   3.486  12.632  0.4297 -0.1971  0.5150
  173DOPC   C1321041   2.901   3.596  12.463  0.5655 -0.0198  0.1947
  173DOPC  H13A21042   2.961   3.520  12.415 -0.1621  0.4420 -1.5379
  173DOPC  H13B21043   2.815   3.547  12.505  0.6922 -0.1563  0.2961
  173DOPC  H13C21044   2.862   3.660  12.385 -0.4892 -1.2880 -0.3550
  173DOPC   C1421045   3.109   3.707  12.485 -0.2590  0.2521  0.0308
  173DOPC  H14A21046   3.079   3.776  12.408  0.1145  2.7887  2.0281
  173DOPC  H14B21047   3.183   3.756  12.546 -0.5591  2.5215 -1.3411
  173DOPC  H14C21048   3.159   3.625  12.436  0.5957  0.3900  0.6664
  173DOPC   C1521049   2.924   3.783  12.616 -0.6863  0.1925 -0.0994
  173DOPC  H15A21050   2.982   3.834  12.692 -0.2678  0.2947 -0.4837
  173DOPC  H15B21051   2.831   3.753  12.662  0.4612 -1.0194  1.5430
  173DOPC  H15C21052   2.901   3.860  12.544  1.6083  1.9644  0.9372
  173DOPC   C1121053   2.925   3.547  12.783 -0.1872  0.2872  0.0832
  173DOPC  H11A21054   2.964   3.486  12.867 -1.1964 -1.6684 -0.8142
  173DOPC  H11B21055   2.893   3.642  12.831  1.4050  0.2515  1.2923
  173DOPC     P21056   2.670   3.495  12.759  0.0095 -0.4011 -0.0324
  173DOPC   O1321057   2.613   3.366  12.795  0.3644  0.2350 -0.0970
  173DOPC   O1421058   2.597   3.568  12.659  0.4339  0.2920  0.5512
  173DOPC   O1221059   2.817   3.474  12.725 -0.2881  0.4515  0.1194
  173DOPC   O1121060   2.661   3.580  12.895 -0.0639 -0.4619 -0.1940
  173DOPC    C121061   2.649   3.524  13.030  0.3787 -0.0786  0.5841
  173DOPC    HA21062   2.711   3.432  13.038  1.9610  0.9359  0.4796
  173DOPC    HB21063   2.545   3.488  13.043  0.4818 -0.0295  1.5982
  173DOPC    C221064   2.685   3.628  13.137 -0.9537 -0.2010 -0.3056
  173DOPC    HS21065   2.623   3.716  13.112 -0.5718  1.0358  2.6569
  173DOPC   O2121066   2.830   3.650  13.128  0.1391  0.2029  0.4122
  173DOPC   C2121067   2.856   3.775  13.175 -0.5634  0.2034  0.3057
  173DOPC   O2221068   2.767   3.856  13.200  0.2986  0.2088 -0.3183
  173DOPC   C2221069   3.006   3.810  13.186  0.5079  0.2336  0.7072
  173DOPC   H2R21070   3.056   3.783  13.091  0.9764  0.0590  0.9982
  173DOPC   H2S21071   3.047   3.747  13.269 -0.8720 -1.3262  0.2593
  173DOPC    C321072   2.639   3.576  13.278 -0.2059  0.1878  0.0118
  173DOPC    HX21073   2.528   3.575  13.277 -0.2112 -0.8466 -0.0142
  173DOPC    HY21074   2.658   3.650  13.358 -0.6819  1.9677 -1.4550
  173DOPC   O3121075   2.693   3.444  13.304  0.3597 -0.3029  0.1693
  173DOPC   C3121076   2.613   3.340  13.329 -0.1838  0.3525 -0.5584
  173DOPC   O3221077   2.494   3.344  13.343 -0.4403 -0.0293 -0.2319
  173DOPC   C3221078   2.696   3.218  13.323 -0.1865 -0.2194  0.6987
  173DOPC   H2X21079   2.768   3.236  13.239 -1.0979 -1.4199 -0.3816
  173DOPC   H2Y21080   2.754   3.220  13.417  0.7642  1.1501  0.1253
  173DOPC   C2321081   3.027   3.959  13.204 -0.0785  0.6132  0.2805
  173DOPC   H3R21082   2.975   4.000  13.292  1.5041  0.1887  1.4567
  173DOPC   H3S21083   2.981   4.007  13.115 -0.3291 -1.3324 -0.7103
  173DOPC   C2421084   3.182   3.992  13.212 -0.1092  0.3363  0.1087
  173DOPC   H4R21085   3.207   3.997  13.104 -3.3842  1.6148 -0.7391
  173DOPC   H4S21086   3.229   3.911  13.271 -0.4194 -0.9735 -1.3616
  173DOPC   C2521087   3.224   4.125  13.279  0.5600 -0.2312  0.2786
  173DOPC   H5R21088   3.183   4.206  13.215 -0.6849  0.2633  1.6430
  173DOPC   H5S21089   3.335   4.127  13.279  0.6404 -2.3285  1.6955
  173DOPC   C2621090   3.168   4.162  13.419 -0.8566  0.4186 -0.0623
  173DOPC   H6R21091   3.060   4.179  13.402 -0.4384  1.3666 -2.1104
  173DOPC   H6S21092   3.211   4.259  13.454  1.9340 -1.2315  1.3841
  173DOPC   C2721093   3.197   4.065  13.532 -0.1990  0.1050  0.4659
  173DOPC   H7R21094   3.145   3.971  13.504  0.9482 -0.5746  0.5627
  173DOPC   H7S21095   3.143   4.096  13.625 -1.7123 -3.2067  0.8346
  173DOPC   C2821096   3.345   4.029  13.555  0.9747  0.0337 -0.2111
  173DOPC   H8R21097   3.390   3.980  13.466 -2.3189 -1.2857 -1.3005
  173DOPC   H8S21098   3.351   3.954  13.637  1.1909  0.2360 -0.0402
  173DOPC   C2921099   3.420   4.150  13.604  0.0044 -0.2291  1.1115
  173DOPC   H9R21100   3.456   4.207  13.517 -0.8457  1.7841  2.0293
  173DOPC  C21021101   3.436   4.197  13.728  0.1537 -0.0434 -0.0035
  173DOPC  H10R21102   3.512   4.271  13.758 -2.6209  2.2704  1.8244
  173DOPC  C21121103   3.377   4.129  13.851  0.1109  0.1276 -0.0662
  173DOPC  H11R21104   3.449   4.089  13.925  0.0263  0.6853  0.3239
  173DOPC  H11S21105   3.305   4.051  13.819 -0.0485  0.4838 -0.5960
  173DOPC  C21221106   3.315   4.238  13.934  0.1147  0.4113 -0.8534
  173DOPC  H12R21107   3.236   4.286  13.872  0.5386 -0.8124 -2.4285
  173DOPC  H12S21108   3.397   4.308  13.960  2.0744 -1.7275 -1.0071
  173DOPC  C21321109   3.245   4.173  14.059 -0.7751 -0.0187  0.6369
  173DOPC  H13R21110   3.302   4.085  14.096  3.0832 -0.0259 -4.2471
  173DOPC  H13S21111   3.145   4.139  14.027  0.0709 -1.6315 -0.4681
  173DOPC  C21421112   3.226   4.279  14.170 -0.0188  0.3364  0.2381
  173DOPC  H14R21113   3.146   4.241  14.237  1.4053  0.6874  2.2429
  173DOPC  H14S21114   3.198   4.374  14.119  0.9004  1.3653  1.5738
  173DOPC  C21521115   3.349   4.290  14.256  0.3119  0.1098  0.0016
  173DOPC  H15R21116   3.426   4.348  14.201 -1.9358  1.2676 -2.1594
  173DOPC  H15S21117   3.386   4.195  14.299  1.2118 -0.6030 -2.2183
  173DOPC  C21621118   3.322   4.372  14.382  0.1592  0.2846  0.0965
  173DOPC  H16R21119   3.219   4.345  14.412 -0.2845  1.9404  0.1725
  173DOPC  H16S21120   3.318   4.480  14.353 -0.7587  0.2135 -0.0591
  173DOPC  C21721121   3.421   4.356  14.498 -0.4561  0.3445 -0.6573
  173DOPC  H17R21122   3.517   4.405  14.469 -0.5997  1.4924  0.6863
  173DOPC  H17S21123   3.439   4.247  14.508  0.0028  0.4041 -0.7783
  173DOPC  C21821124   3.365   4.420  14.626  0.5346 -0.2212 -0.1867
  173DOPC  H18R21125   3.457   4.435  14.687  0.0938  1.6101  0.0827
  173DOPC  H18S21126   3.283   4.365  14.677  1.4718 -0.1769  1.4628
  173DOPC  H18T21127   3.323   4.522  14.615 -1.6767 -0.7377  2.3870
  173DOPC   C3321128   2.623   3.084  13.291 -0.4630 -0.5890  0.4401
  173DOPC   H3X21129   2.684   3.017  13.227  0.8215  0.4010  0.5863
  173DOPC   H3Y21130   2.533   3.106  13.229  0.1330 -0.2674 -0.3344
  173DOPC   C3421131   2.586   3.006  13.416  0.3288  0.0587  0.4967
  173DOPC   H4X21132   2.492   3.049  13.457  1.0327  1.4334  0.7334
  173DOPC   H4Y21133   2.657   3.002  13.501 -0.7695 -0.3468  1.4150
  173DOPC   C3521134   2.558   2.854  13.377  0.6587 -0.0757  0.0398
  173DOPC   H5X21135   2.511   2.805  13.465  0.6537 -0.2447 -0.0563
  173DOPC   H5Y21136   2.658   2.810  13.354  0.1986 -1.0845 -0.0528
  173DOPC   C3621137   2.461   2.834  13.258 -0.1796  0.5660  0.0063
  173DOPC   H6X21138   2.381   2.910  13.271 -0.1085  0.6715 -0.1681
  173DOPC   H6Y21139   2.501   2.853  13.156 -1.5781  1.0567 -0.4733
  173DOPC   C3721140   2.414   2.693  13.258  0.5379 -0.4958  0.5039
  173DOPC   H7X21141   2.344   2.687  13.173 -0.2178 -0.5883  1.1211
  173DOPC   H7Y21142   2.503   2.631  13.237  0.3564 -0.2544 -1.1302
  173DOPC   C3821143   2.342   2.639  13.385 -0.3380 -0.5501  0.0284
  173DOPC   H8X21144   2.423   2.618  13.458  0.6835 -3.0399 -1.7093
  173DOPC   H8Y21145   2.296   2.539  13.367 -0.7527 -0.9680  2.9246
  173DOPC   C3921146   2.236   2.740  13.440 -0.2762  0.2674 -0.0543
  173DOPC   H9X21147   2.283   2.830  13.483  0.3322 -0.5427  1.0158
  173DOPC  C31021148   2.107   2.716  13.468 -0.0436 -0.3002  0.3362
  173DOPC  H10X21149   2.055   2.796  13.523 -0.6696  0.0767 -0.7824
  173DOPC  C31121150   2.025   2.598  13.431 -0.2913  0.3790  0.2166
  173DOPC  H11X21151   2.079   2.514  13.384 -3.1627 -1.7322  0.4378
  173DOPC  H11Y21152   1.946   2.632  13.360 -2.2974  0.0552  2.1705
  173DOPC  C31221153   1.946   2.544  13.553  1.1185  0.7751 -0.6117
  173DOPC  H12X21154   2.016   2.521  13.636 -1.7457  1.4017  2.1901
  173DOPC  H12Y21155   1.889   2.453  13.525  0.5098  0.6160  1.0394
  173DOPC  C31321156   1.841   2.646  13.596  0.2533 -0.1036 -0.3020
  173DOPC  H13X21157   1.880   2.750  13.593 -0.3475  0.1194 -0.4029
  173DOPC  H13Y21158   1.747   2.643  13.538 -1.0034 -0.3330  1.6589
  173DOPC  C31421159   1.793   2.636  13.745  0.4739 -0.5195  0.8563
  173DOPC  H14X21160   1.744   2.541  13.775  0.7894 -0.2093  2.4098
  173DOPC  H14Y21161   1.882   2.670  13.802  0.6256  0.1416  0.2459
  173DOPC  C31521162   1.688   2.744  13.770 -0.3289 -0.5174  0.5081
  173DOPC  H15X21163   1.638   2.727  13.868  0.3344  0.3017  1.0000
  173DOPC  H15Y21164   1.607   2.759  13.695 -0.9962  0.6181  1.4279
  173DOPC  C31621165   1.751   2.888  13.783 -0.0126 -0.5926 -0.4262
  173DOPC  H16X21166   1.816   2.895  13.873 -1.0149 -0.6906  0.3148
  173DOPC  H16Y21167   1.811   2.903  13.690  2.4138 -3.2920  0.5438
  173DOPC  C31721168   1.648   3.008  13.803  0.7312 -0.0110  0.7181
  173DOPC  H17X21169   1.585   2.973  13.888  1.4120 -1.5075  0.6363
  173DOPC  H17Y21170   1.705   3.102  13.820 -1.1258  1.1691  0.7388
  173DOPC  C31821171   1.562   3.030  13.674 -0.1849  0.4235  0.0469
  173DOPC  H18X21172   1.496   2.941  13.663 -0.4941  0.3737  1.9446
  173DOPC  H18Y21173   1.506   3.124  13.696 -0.0333  0.6168 -0.3874
  173DOPC  H18Z21174   1.634   3.045  13.591 -1.8043  2.7815 -1.0528
  174DOPC     N21175   6.027   1.450  12.094  0.4231 -0.7471  0.7597
  174DOPC   C1221176   5.946   1.428  12.215 -0.0715  0.3895  0.3718
  174DOPC  H12A21177   5.930   1.322  12.226 -1.8532  0.6480  0.5695
  174DOPC  H12B21178   5.846   1.468  12.205  0.3359  1.6572  1.0550
  174DOPC   C1321179   6.042   1.596  12.060  0.0523 -0.4874  0.4583
  174DOPC  H13A21180   5.947   1.648  12.055  1.2446  1.9490  1.4987
  174DOPC  H13B21181   6.097   1.650  12.136 -1.3883  1.8239 -0.0360
  174DOPC  H13C21182   6.084   1.617  11.963 -1.9520 -0.5894 -0.4732
  174DOPC   C1421183   5.949   1.384  11.977 -0.3200  0.1494  0.1291
  174DOPC  H14A21184   6.007   1.381  11.886 -1.0460  0.6001 -0.3561
  174DOPC  H14B21185   5.932   1.282  12.010 -0.8101 -0.0296 -0.6593
  174DOPC  H14C21186   5.858   1.441  11.966  0.9123  2.2991  0.4048
  174DOPC   C1521187   6.162   1.385  12.124  0.2320  0.5772 -0.4058
  174DOPC  H15A21188   6.141   1.281  12.145  1.0058  0.3947 -0.5199
  174DOPC  H15B21189   6.205   1.423  12.216 -1.4176 -0.8639  1.0507
  174DOPC  H15C21190   6.216   1.388  12.031  0.4163  0.6081 -0.2991
  174DOPC   C1121191   6.002   1.469  12.352  0.9757  0.1951  0.6161
  174DOPC  H11A21192   5.920   1.451  12.425 -0.1140  1.1659 -0.3218
  174DOPC  H11B21193   6.089   1.403  12.371 -0.5116 -1.9641  0.1732
  174DOPC     P21194   5.951   1.716  12.415 -0.0505  0.5501  0.1751
  174DOPC   O1321195   5.815   1.688  12.369 -0.4754  0.4900  0.0346
  174DOPC   O1421196   6.005   1.846  12.365 -0.5497  0.2188  0.5008
  174DOPC   O1221197   6.039   1.603  12.365 -0.1986  0.3273 -0.4736
  174DOPC   O1121198   5.969   1.717  12.573  0.3567 -0.1217 -0.4072
  174DOPC    C121199   6.060   1.635  12.644 -0.2188  0.7978  0.4654
  174DOPC    HA21200   6.111   1.697  12.721  0.7094 -0.6986  1.1000
  174DOPC    HB21201   6.146   1.613  12.577 -0.8730 -0.1099 -0.0947
  174DOPC    C221202   5.999   1.518  12.716  0.1033  0.4528  0.5784
  174DOPC    HS21203   5.934   1.469  12.641  1.3668 -2.4861  1.2607
  174DOPC   O2121204   5.918   1.576  12.825 -0.0553  0.5241  0.4858
  174DOPC   C2121205   5.815   1.508  12.846  0.4083 -0.0503  0.1684
  174DOPC   O2221206   5.781   1.402  12.799 -0.1547 -0.2323  0.0486
  174DOPC   C2221207   5.732   1.570  12.957  0.5850  0.3293 -0.0480
  174DOPC   H2R21208   5.715   1.674  12.922 -0.9163  0.1163 -0.0188
  174DOPC   H2S21209   5.805   1.576  13.041  1.1368 -0.8137 -0.4147
  174DOPC    C321210   6.105   1.409  12.752 -0.0650 -0.6427  0.1122
  174DOPC    HX21211   6.163   1.396  12.658 -0.5507  2.6334 -0.7673
  174DOPC    HY21212   6.054   1.317  12.787 -0.6319 -0.1289  0.6461
  174DOPC   O3121213   6.191   1.457  12.856 -0.1737  0.2842 -0.8584
  174DOPC   C3121214   6.156   1.422  12.980 -0.0618  0.5637  0.7106
  174DOPC   O3221215   6.052   1.368  13.008  0.1398 -0.6104 -0.0893
  174DOPC   C3221216   6.272   1.467  13.071  0.5754  0.6794  0.7651
  174DOPC   H2X21217   6.354   1.401  13.037 -0.8572 -0.7544 -0.0397
  174DOPC   H2Y21218   6.303   1.573  13.055  1.0773  0.3013 -0.9355
  174DOPC   C2321219   5.607   1.482  12.980  0.4126 -0.0325 -0.1845
  174DOPC   H3R21220   5.581   1.479  13.088 -3.2514 -0.2841 -0.9548
  174DOPC   H3S21221   5.620   1.376  12.949  1.3495 -0.7136  2.2648
  174DOPC   C2421222   5.487   1.539  12.906  0.6483  0.0236  0.0605
  174DOPC   H4R21223   5.505   1.526  12.797 -0.5333 -1.2750 -0.0108
  174DOPC   H4S21224   5.478   1.649  12.917 -1.2251  0.0669 -1.3618
  174DOPC   C2521225   5.350   1.482  12.932  0.3537  0.1011 -0.0774
  174DOPC   H5R21226   5.274   1.546  12.882  0.9249  1.0705  0.2784
  174DOPC   H5S21227   5.336   1.479  13.042 -0.4305 -0.4571 -0.1798
  174DOPC   C2621228   5.328   1.337  12.883  0.1454  0.2634  1.1116
  174DOPC   H6R21229   5.379   1.275  12.959 -0.9832  0.8433  2.3810
  174DOPC   H6S21230   5.380   1.319  12.786 -2.1030 -0.6786  0.0039
  174DOPC   C2721231   5.178   1.295  12.880 -0.2947  0.6090 -0.6913
  174DOPC   H7R21232   5.180   1.193  12.836  1.1924 -0.3288  1.3995
  174DOPC   H7S21233   5.126   1.367  12.813 -0.3560 -0.0305 -1.3355
  174DOPC   C2821234   5.104   1.284  13.018 -0.0935  0.4886 -0.7706
  174DOPC   H8R21235   5.008   1.233  12.994 -0.0295  0.4826 -1.0177
  174DOPC   H8S21236   5.082   1.384  13.062  0.0134 -0.6203  2.0211
  174DOPC   C2921237   5.182   1.196  13.111 -0.6841  0.2508  0.4691
  174DOPC   H9R21238   5.247   1.121  13.064  0.1217  0.3884  1.3457
  174DOPC  C21021239   5.182   1.196  13.243  0.5202  0.4691  0.5263
  174DOPC  H10R21240   5.218   1.109  13.300 -0.5905  0.3988  1.1566
  174DOPC  C21121241   5.097   1.290  13.321 -0.4931  0.5210 -0.3868
  174DOPC  H11R21242   4.990   1.294  13.290  0.0130  3.8842 -2.0831
  174DOPC  H11S21243   5.131   1.395  13.314 -1.6495  0.8261 -1.8707
  174DOPC  C21221244   5.094   1.258  13.474 -0.0027 -0.4528  0.4146
  174DOPC  H12R21245   5.191   1.220  13.511 -0.7456 -1.4298  1.4344
  174DOPC  H12S21246   5.034   1.166  13.491 -0.0835 -0.4601  0.1005
  174DOPC  C21321247   5.051   1.384  13.552 -0.3441 -0.0932 -0.3284
  174DOPC  H13R21248   4.948   1.414  13.522  0.6900  2.2159 -1.8828
  174DOPC  H13S21249   5.124   1.466  13.536 -2.5100  2.0512  0.1583
  174DOPC  C21421250   5.055   1.350  13.702 -0.3579  0.5581 -1.1318
  174DOPC  H14R21251   5.149   1.305  13.740 -1.4358 -1.7243 -1.0441
  174DOPC  H14S21252   4.987   1.262  13.711  1.0544 -0.3921  1.0133
  174DOPC  C21521253   5.004   1.463  13.790  0.0578 -0.7503  0.1825
  174DOPC  H15R21254   4.901   1.497  13.765  0.0396  1.4399  2.7635
  174DOPC  H15S21255   5.070   1.549  13.767 -0.0480 -0.7257 -0.0279
  174DOPC  C21621256   5.000   1.440  13.939  0.1448  0.2787  0.4394
  174DOPC  H16R21257   4.935   1.351  13.951  0.5953 -0.1184 -0.0164
  174DOPC  H16S21258   4.942   1.519  13.991 -1.9947  0.1692 -1.6089
  174DOPC  C21721259   5.135   1.405  14.008  0.3703 -0.2740  0.2697
  174DOPC  H17R21260   5.198   1.493  13.982 -0.8777  0.1591 -1.4957
  174DOPC  H17S21261   5.167   1.312  13.956 -3.9307 -0.9800 -1.5496
  174DOPC  C21821262   5.126   1.396  14.163 -0.2138  0.4825 -0.4932
  174DOPC  H18R21263   5.065   1.473  14.214  1.5931  1.8866 -0.3453
  174DOPC  H18S21264   5.231   1.414  14.196  0.1312 -3.1177  0.8473
  174DOPC  H18T21265   5.106   1.295  14.204 -0.9070  0.6365 -0.4342
  174DOPC   C3321266   6.234   1.442  13.213  0.3306 -0.0355  0.2742
  174DOPC   H3X21267   6.198   1.337  13.216  1.5960 -0.6916 -3.0105
  174DOPC   H3Y21268   6.146   1.497  13.254  0.8175  1.6547 -0.8388
  174DOPC   C3421269   6.350   1.448  13.309 -0.4590  0.2195  0.0335
  174DOPC   H4X21270   6.383   1.554  13.318 -0.1085  0.1083  0.0561
  174DOPC   H4Y21271   6.433   1.391  13.262 -1.1650  0.2987 -1.3512
  174DOPC   C3521272   6.322   1.377  13.442  0.2025 -0.1165 -0.6450
  174DOPC   H5X21273   6.408   1.385  13.512 -2.2894 -1.1269  2.7723
  174DOPC   H5Y21274   6.308   1.270  13.417  1.1509 -0.2877 -0.4936
  174DOPC   C3621275   6.197   1.425  13.512 -0.3601 -0.4473  0.1045
  174DOPC   H6X21276   6.206   1.534  13.531 -3.6317  0.0670 -0.8103
  174DOPC   H6Y21277   6.110   1.408  13.446  1.1124  1.8670 -2.7243
  174DOPC   C3721278   6.176   1.360  13.652 -0.2634  0.0051 -0.5489
  174DOPC   H7X21279   6.271   1.341  13.706 -1.8735 -0.0322  2.4698
  174DOPC   H7Y21280   6.136   1.436  13.722 -1.8340 -0.7134 -0.6250
  174DOPC   C3821281   6.088   1.233  13.656 -0.1215  0.1110  0.2387
  174DOPC   H8X21282   5.983   1.268  13.650 -0.5493 -1.2742 -1.0865
  174DOPC   H8Y21283   6.088   1.191  13.759  0.6222 -1.7959 -0.4841
  174DOPC   C3921284   6.102   1.138  13.544  0.0655  0.4102  0.8697
  174DOPC   H9X21285   6.014   1.142  13.478 -0.1119 -2.2771  0.8356
  174DOPC  C31021286   6.195   1.037  13.542  0.8192 -0.0978  0.1923
  174DOPC  H10X21287   6.210   0.985  13.446  0.7220  1.4944 -0.7310
  174DOPC  C31121288   6.302   1.001  13.638 -0.2072 -0.0929  0.2662
  174DOPC  H11X21289   6.369   1.088  13.653  0.0671 -0.1190 -0.7143
  174DOPC  H11Y21290   6.371   0.931  13.586 -1.4289  0.5512 -2.4046
  174DOPC  C31221291   6.242   0.943  13.766  0.3355 -0.4678  0.6867
  174DOPC  H12X21292   6.171   0.862  13.739  2.4571 -1.7434 -1.5345
  174DOPC  H12Y21293   6.184   1.026  13.811 -0.3746 -0.9696  0.7196
  174DOPC  C31321294   6.347   0.889  13.865  0.6233 -0.4454  0.0081
  174DOPC  H13X21295   6.389   0.790  13.838  3.0453  0.0694  1.5612
  174DOPC  H13Y21296   6.436   0.954  13.878  1.4379 -1.6570  0.6981
  174DOPC  C31421297   6.273   0.860  14.000 -0.1832  0.0679 -1.2977
  174DOPC  H14X21298   6.224   0.952  14.037  0.1337 -0.8151  1.6032
  174DOPC  H14Y21299   6.192   0.787  13.980  0.9549 -1.0984 -1.8174
  174DOPC  C31521300   6.374   0.799  14.098  0.3804  0.0159  0.0244
  174DOPC  H15X21301   6.446   0.881  14.118  0.1720 -0.2394  2.1305
  174DOPC  H15Y21302   6.419   0.707  14.055  0.5816  0.2315 -0.2239
  174DOPC  C31621303   6.311   0.762  14.232  0.2560 -0.5303 -0.3719
  174DOPC  H16X21304   6.235   0.842  14.241 -0.2051 -0.7880 -1.7624
  174DOPC  H16Y21305   6.262   0.662  14.227  1.0023 -0.8590 -1.4374
  174DOPC  C31721306   6.391   0.750  14.367 -0.6806 -0.1508  0.2010
  174DOPC  H17X21307   6.468   0.830  14.361  1.3182 -2.1018 -1.9703
  174DOPC  H17Y21308   6.318   0.763  14.449 -1.3020 -0.7927 -0.2458
  174DOPC  C31821309   6.455   0.611  14.377 -0.2433 -0.4303 -0.1218
  174DOPC  H18X21310   6.525   0.608  14.463 -1.8332 -1.0875  1.2102
  174DOPC  H18Y21311   6.373   0.535  14.373 -0.4687 -0.1498 -1.1690
  174DOPC  H18Z21312   6.510   0.600  14.281 -1.6849 -0.4220 -0.9799
  175DOPC     N21313   3.633   6.748  12.232 -0.4793  0.2215  0.4379
  175DOPC   C1221314   3.655   6.801  12.371 -0.4478 -0.1118  0.9738
  175DOPC  H12A21315   3.671   6.908  12.367 -0.6497 -0.0742  1.1379
  175DOPC  H12B21316   3.752   6.768  12.406  0.3520 -0.3507 -1.3373
  175DOPC   C1321317   3.612   6.592  12.233  0.5031 -0.2622  0.1679
  175DOPC  H13A21318   3.520   6.572  12.287 -1.9550  3.1046 -2.4156
  175DOPC  H13B21319   3.605   6.553  12.133 -0.6241  0.8563 -0.2014
  175DOPC  H13C21320   3.700   6.544  12.276  0.7360 -0.1191 -0.1491
  175DOPC   C1421321   3.747   6.773  12.141 -0.0661  0.1418  0.1833
  175DOPC  H14A21322   3.835   6.761  12.204 -1.3414 -0.9152  1.8504
  175DOPC  H14B21323   3.755   6.703  12.059 -2.1789  0.1026 -0.0305
  175DOPC  H14C21324   3.747   6.871  12.095  0.3514  0.6074  1.1438
  175DOPC   C1521325   3.511   6.802  12.176 -0.1093  0.1441 -0.1458
  175DOPC  H15A21326   3.491   6.742  12.089 -0.7358 -1.1025  0.8188
  175DOPC  H15B21327   3.512   6.908  12.156  3.6186  0.4161  0.5828
  175DOPC  H15C21328   3.431   6.786  12.246 -1.3010  0.7093 -1.3489
  175DOPC   C1121329   3.543   6.794  12.471  0.3700  0.2987 -0.6962
  175DOPC  H11A21330   3.519   6.688  12.495  2.3407 -0.0470 -0.0773
  175DOPC  H11B21331   3.582   6.837  12.566 -0.1717 -0.7590  0.0218
  175DOPC     P21332   3.394   7.004  12.460  0.3186  0.1589  0.0845
  175DOPC   O1321333   3.257   7.033  12.401 -0.5859 -0.5556 -0.1140
  175DOPC   O1421334   3.514   7.085  12.419  0.2725 -0.2462 -0.4915
  175DOPC   O1221335   3.418   6.853  12.435 -0.5359  0.0195  0.3554
  175DOPC   O1121336   3.389   7.017  12.610 -0.2653 -0.1756  0.3489
  175DOPC    C121337   3.336   6.912  12.691 -0.0267 -0.4173 -0.1456
  175DOPC    HA21338   3.423   6.865  12.741 -0.7202 -1.4057  0.1665
  175DOPC    HB21339   3.290   6.830  12.631 -0.5729  1.2389 -2.1171
  175DOPC    C221340   3.234   6.975  12.780 -0.3226 -0.1851  0.3796
  175DOPC    HS21341   3.150   6.992  12.709  0.1559 -1.7927 -0.6595
  175DOPC   O2121342   3.290   7.086  12.845  0.0334  0.2597 -0.1477
  175DOPC   C2121343   3.193   7.156  12.904  0.0691 -0.0748  0.1361
  175DOPC   O2221344   3.072   7.139  12.886  0.1568 -0.0056  0.2934
  175DOPC   C2221345   3.261   7.254  12.995 -1.4573  0.5665  0.3722
  175DOPC   H2R21346   3.308   7.331  12.931  0.4735  0.0362  1.0699
  175DOPC   H2S21347   3.338   7.206  13.058  0.5963  1.5099 -1.3067
  175DOPC    C321348   3.189   6.868  12.878 -0.3694  0.1353 -0.0523
  175DOPC    HX21349   3.123   6.787  12.840  1.2576 -1.3391  0.1500
  175DOPC    HY21350   3.116   6.910  12.951 -1.1065  1.7073 -1.5997
  175DOPC   O3121351   3.304   6.812  12.949 -0.3673  0.2370  0.3831
  175DOPC   C3121352   3.340   6.692  12.923  1.2548  0.2589 -0.4803
  175DOPC   O3221353   3.276   6.609  12.857 -0.5175 -0.7788  0.4326
  175DOPC   C3221354   3.473   6.672  12.993  0.1609 -0.1531  0.1955
  175DOPC   H2X21355   3.525   6.768  12.976 -2.7888  1.9313  1.9798
  175DOPC   H2Y21356   3.441   6.663  13.100 -1.5603 -0.2811 -0.3024
  175DOPC   C2321357   3.160   7.335  13.073 -0.7804 -0.0770 -0.2729
  175DOPC   H3R21358   3.082   7.390  13.015 -1.0779  1.8379  1.7783
  175DOPC   H3S21359   3.220   7.425  13.099 -0.3073 -0.5178  0.1838
  175DOPC   C2421360   3.096   7.259  13.192  0.4486  0.3048  0.1267
  175DOPC   H4R21361   3.069   7.157  13.156  0.9077  0.5071 -0.8095
  175DOPC   H4S21362   3.008   7.315  13.229  0.1185 -0.7849  1.0700
  175DOPC   C2521363   3.189   7.258  13.312 -0.0152 -0.1980  0.0820
  175DOPC   H5R21364   3.196   7.366  13.340 -4.0159  0.7090 -1.6714
  175DOPC   H5S21365   3.288   7.218  13.283  1.0694  2.1658  0.2490
  175DOPC   C2621366   3.122   7.187  13.430 -0.0763 -0.2073  0.2778
  175DOPC   H6R21367   3.104   7.083  13.396  1.3524 -1.0749  2.0082
  175DOPC   H6S21368   3.024   7.236  13.443 -0.4887 -1.0935  0.5717
  175DOPC   C2721369   3.196   7.189  13.567  0.7050 -0.2030 -0.0618
  175DOPC   H7R21370   3.217   7.289  13.610  1.0432  0.4937 -1.7949
  175DOPC   H7S21371   3.297   7.148  13.547  0.9407 -0.0553  0.7929
  175DOPC   C2821372   3.118   7.095  13.664 -0.0732  0.6691 -0.7593
  175DOPC   H8R21373   3.195   7.063  13.738 -1.3034 -2.1330 -0.5716
  175DOPC   H8S21374   3.081   7.000  13.620 -1.2580  1.8598 -2.4615
  175DOPC   C2921375   2.996   7.162  13.726 -0.5460 -0.7582  0.3442
  175DOPC   H9R21376   2.907   7.159  13.662  0.3526 -1.3147 -0.9428
  175DOPC  C21021377   2.995   7.217  13.844 -0.2395 -0.2193  0.1611
  175DOPC  H10R21378   2.901   7.258  13.884  0.5583 -0.7865  2.8471
  175DOPC  C21121379   3.098   7.200  13.953  0.3185  0.5735 -0.4572
  175DOPC  H11R21380   3.122   7.092  13.963 -2.2781  0.0494  1.3828
  175DOPC  H11S21381   3.050   7.229  14.048 -1.4074 -0.2434 -1.0327
  175DOPC  C21221382   3.230   7.264  13.931  0.2270 -0.3721 -0.3757
  175DOPC  H12R21383   3.203   7.372  13.920 -0.6143 -0.5316  0.0213
  175DOPC  H12S21384   3.270   7.237  13.831  0.4586 -0.4516 -0.2609
  175DOPC  C21321385   3.335   7.259  14.040 -0.2419  0.0697  0.2610
  175DOPC  H13R21386   3.423   7.316  14.005  0.0150 -1.1998 -1.3032
  175DOPC  H13S21387   3.367   7.154  14.057 -2.6115 -0.7132  0.3402
  175DOPC  C21421388   3.282   7.313  14.172 -0.4207 -0.6654  0.4270
  175DOPC  H14R21389   3.207   7.236  14.203 -3.5079  1.1575 -1.9097
  175DOPC  H14S21390   3.221   7.405  14.161  0.6105 -0.1711 -1.5410
  175DOPC  C21521391   3.388   7.340  14.281  0.9586  0.1999  0.2448
  175DOPC  H15R21392   3.348   7.432  14.329 -0.2861 -0.9557  1.5016
  175DOPC  H15S21393   3.492   7.357  14.247  1.0327  3.2452  1.6439
  175DOPC  C21621394   3.392   7.230  14.387 -0.1874 -0.1451  0.2559
  175DOPC  H16R21395   3.432   7.136  14.343  0.3787  0.8663 -1.4985
  175DOPC  H16S21396   3.286   7.214  14.416 -0.3364  0.9628  0.3632
  175DOPC  C21721397   3.474   7.263  14.516 -0.0227  0.2207  0.2002
  175DOPC  H17R21398   3.423   7.339  14.580  0.8346 -0.9145  2.3518
  175DOPC  H17S21399   3.576   7.302  14.500 -0.5391  1.8735  0.6670
  175DOPC  C21821400   3.485   7.140  14.607  0.0091 -0.9208  0.3044
  175DOPC  H18R21401   3.562   7.150  14.686  0.0921 -3.5769  0.6530
  175DOPC  H18S21402   3.512   7.050  14.547  0.1442  0.3426 -1.6192
  175DOPC  H18T21403   3.393   7.109  14.661 -0.1823 -0.4354  0.2662
  175DOPC   C3321404   3.547   6.548  12.930 -0.1719 -0.0168 -0.2259
  175DOPC   H3X21405   3.576   6.561  12.824 -1.3054 -0.8127 -0.6539
  175DOPC   H3Y21406   3.488   6.454  12.936  0.0896 -0.1164  1.0753
  175DOPC   C3421407   3.662   6.506  13.027  0.1751 -0.3396  0.4798
  175DOPC   H4X21408   3.611   6.478  13.122 -0.3994 -1.6238 -0.1833
  175DOPC   H4Y21409   3.726   6.593  13.051 -0.6730  0.0834  1.2803
  175DOPC   C3521410   3.748   6.384  12.970  0.8788 -0.5602 -0.2407
  175DOPC   H5X21411   3.847   6.393  13.018  0.1605  1.7999  0.9206
  175DOPC   H5Y21412   3.760   6.396  12.860  0.1711  0.9546 -0.1824
  175DOPC   C3621413   3.684   6.252  13.006  0.9061 -0.4643 -0.4480
  175DOPC   H6X21414   3.675   6.238  13.116 -1.1193 -0.9392 -0.6297
  175DOPC   H6Y21415   3.581   6.238  12.967  1.0762  0.5414 -1.3040
  175DOPC   C3721416   3.747   6.128  12.944  0.3997 -0.0804 -0.1310
  175DOPC   H7X21417   3.684   6.041  12.972 -0.8691  1.0227  0.5672
  175DOPC   H7Y21418   3.743   6.141  12.833 -2.9783 -1.2622 -0.2597
  175DOPC   C3821419   3.888   6.091  12.994 -0.0259  0.7191  0.1731
  175DOPC   H8X21420   3.953   6.172  12.953  0.0576 -0.6356 -2.6398
  175DOPC   H8Y21421   3.932   6.009  12.934  2.0553  0.2905  2.1467
  175DOPC   C3921422   3.905   6.054  13.143  0.9411  0.0715 -0.1774
  175DOPC   H9X21423   3.862   5.955  13.165 -0.5030  0.1748 -2.2783
  175DOPC  C31021424   3.963   6.124  13.241 -0.0605 -0.3044 -0.2136
  175DOPC  H10X21425   3.950   6.085  13.343 -1.8840  2.4219  0.7039
  175DOPC  C31121426   4.030   6.256  13.227 -0.8308 -0.4450  0.2526
  175DOPC  H11X21427   4.045   6.283  13.120  0.7988 -1.6612  0.1237
  175DOPC  H11Y21428   4.132   6.276  13.268 -0.1317 -0.9665 -1.1407
  175DOPC  C31221429   3.947   6.367  13.293 -0.5913  0.0411  0.6029
  175DOPC  H12X21430   3.929   6.334  13.397 -2.1872 -0.4949  0.1945
  175DOPC  H12Y21431   3.847   6.393  13.250 -0.1738  0.4950 -0.1124
  175DOPC  C31321432   4.030   6.504  13.301  0.2941  0.3586 -0.0452
  175DOPC  H13X21433   4.126   6.506  13.356  1.1975  2.0866 -1.5793
  175DOPC  H13Y21434   4.061   6.518  13.195  0.2035  0.4170 -0.0647
  175DOPC  C31421435   3.947   6.630  13.346 -0.1761  0.1019 -0.0717
  175DOPC  H14X21436   3.854   6.636  13.286 -0.7829 -1.0922  0.6948
  175DOPC  H14Y21437   3.915   6.600  13.448 -3.0065  1.3601 -0.5092
  175DOPC  C31521438   4.038   6.752  13.341 -0.8536  0.5376  0.7175
  175DOPC  H15X21439   4.067   6.783  13.239 -0.1166 -2.2003  0.0441
  175DOPC  H15Y21440   4.128   6.733  13.403  1.2850 -0.6359 -2.5136
  175DOPC  C31621441   3.974   6.879  13.387 -1.0193 -0.4014  0.0428
  175DOPC  H16X21442   3.885   6.902  13.325  0.0201  0.8305 -1.0789
  175DOPC  H16Y21443   3.929   6.878  13.488  1.4315 -0.1524  1.2061
  175DOPC  C31721444   4.066   7.004  13.394  0.1356 -0.2196 -0.1586
  175DOPC  H17X21445   4.098   7.017  13.288 -1.5460  1.7998 -0.4931
  175DOPC  H17Y21446   4.003   7.089  13.428  0.8960 -0.6150  2.4363
  175DOPC  C31821447   4.191   6.998  13.476  0.2867 -0.9966  0.1689
  175DOPC  H18X21448   4.213   7.105  13.497 -1.0659 -0.4533 -0.9672
  175DOPC  H18Y21449   4.178   6.948  13.574  1.5107  0.1203  0.9316
  175DOPC  H18Z21450   4.281   6.961  13.422  1.9601  1.3690  1.1484
  176DOPC     N21451   3.668   2.392  12.417 -0.3407 -0.0449  0.4409
  176DOPC   C1221452   3.531   2.416  12.480  0.0441 -0.4799 -0.3258
  176DOPC  H12A21453   3.468   2.337  12.443 -0.0404 -0.1502 -0.8951
  176DOPC  H12B21454   3.485   2.511  12.457  0.7242  0.2904  1.2776
  176DOPC   C1321455   3.772   2.489  12.471  0.7408 -0.8739  0.2467
  176DOPC  H13A21456   3.754   2.592  12.443 -0.2009 -1.2982 -0.8284
  176DOPC  H13B21457   3.766   2.488  12.579  2.1399 -1.2308  0.3395
  176DOPC  H13C21458   3.871   2.477  12.429  0.6727 -0.1491 -0.1320
  176DOPC   C1421459   3.649   2.409  12.271 -0.3800 -0.2751  0.2303
  176DOPC  H14A21460   3.566   2.348  12.239 -0.4292 -0.5531  0.8817
  176DOPC  H14B21461   3.619   2.509  12.244 -1.3686 -0.0173  2.1605
  176DOPC  H14C21462   3.736   2.380  12.214  1.5509  2.4649  1.5489
  176DOPC   C1521463   3.724   2.254  12.440  0.1403 -0.1686 -1.0024
  176DOPC  H15A21464   3.807   2.234  12.373  0.9897 -0.5475  0.1234
  176DOPC  H15B21465   3.655   2.173  12.425  0.2721 -1.1116  2.4781
  176DOPC  H15C21466   3.768   2.256  12.539  0.8460  0.0079 -1.3145
  176DOPC   C1121467   3.517   2.412  12.635 -0.3545  0.0612 -0.1448
  176DOPC  H11A21468   3.569   2.322  12.673  0.9192  0.0330 -1.8189
  176DOPC  H11B21469   3.566   2.498  12.686 -0.8800 -1.0220  2.3441
  176DOPC     P21470   3.299   2.280  12.697 -0.1707  0.0100 -0.2201
  176DOPC   O1321471   3.391   2.185  12.761 -0.4552  0.2429 -0.1435
  176DOPC   O1421472   3.199   2.228  12.599 -0.2640  0.4332  0.1405
  176DOPC   O1221473   3.380   2.411  12.658 -0.0352  0.0945 -0.2314
  176DOPC   O1121474   3.198   2.332  12.807 -0.5376 -0.0561  0.2661
  176DOPC    C121475   3.242   2.399  12.926  0.0698  1.0669  0.2834
  176DOPC    HA21476   3.295   2.495  12.908  2.9953 -0.7278 -1.3636
  176DOPC    HB21477   3.313   2.332  12.979 -1.2665  1.5300  2.8375
  176DOPC    C221478   3.126   2.417  13.025 -0.1184  0.0918 -1.1512
  176DOPC    HS21479   3.041   2.478  12.988 -1.6723 -0.8352  0.6843
  176DOPC   O2121480   3.182   2.468  13.153  0.1257  0.2186  0.9137
  176DOPC   C2121481   3.095   2.551  13.216  0.5264 -1.1271  0.1818
  176DOPC   O2221482   2.981   2.576  13.182 -0.0097  0.3629 -0.1501
  176DOPC   C2221483   3.170   2.591  13.343 -0.4596 -0.0316 -0.2398
  176DOPC   H2R21484   3.275   2.609  13.314 -0.2436  1.0054  1.0786
  176DOPC   H2S21485   3.163   2.515  13.424  0.5616  0.2671  0.1413
  176DOPC    C321486   3.067   2.273  13.057 -0.4807  0.5384 -0.0612
  176DOPC    HX21487   3.158   2.219  13.090 -0.6825 -0.1545 -0.6099
  176DOPC    HY21488   3.036   2.240  12.956  0.7358 -0.0702 -0.2494
  176DOPC   O3121489   2.960   2.265  13.151 -0.2078 -0.1569 -0.6420
  176DOPC   C3121490   2.841   2.310  13.110  0.8579  0.3303 -0.0480
  176DOPC   O3221491   2.819   2.348  12.993  0.5381 -0.2571 -0.8529
  176DOPC   C3221492   2.742   2.308  13.230  0.0763  0.9670 -0.1921
  176DOPC   H2X21493   2.639   2.312  13.188  1.0980  0.6872 -2.9772
  176DOPC   H2Y21494   2.759   2.211  13.280 -1.1461  0.5891 -0.4763
  176DOPC   C2321495   3.114   2.731  13.391  0.1863 -0.3901  0.3097
  176DOPC   H3R21496   3.111   2.812  13.315  2.6146 -0.1706  0.3754
  176DOPC   H3S21497   3.178   2.771  13.473 -0.5933  1.6693 -0.0171
  176DOPC   C2421498   2.978   2.710  13.462  0.5186 -0.2887  0.0205
  176DOPC   H4R21499   2.980   2.621  13.529  0.7966 -0.8311 -0.6963
  176DOPC   H4S21500   2.887   2.709  13.397 -1.5866  2.7029  2.6433
  176DOPC   C2521501   2.938   2.817  13.570 -0.7607  0.0074  0.4872
  176DOPC   H5R21502   2.927   2.914  13.518 -1.7642 -0.4092 -0.1085
  176DOPC   H5S21503   3.016   2.821  13.649 -0.9904  0.9175  0.6840
  176DOPC   C2621504   2.796   2.788  13.636 -0.2648  0.2993  0.4533
  176DOPC   H6R21505   2.796   2.683  13.673  0.7443  0.0945 -0.0866
  176DOPC   H6S21506   2.723   2.794  13.553 -0.3350  1.9029  0.6085
  176DOPC   C2721507   2.772   2.884  13.753 -0.0278  1.1131  0.0111
  176DOPC   H7R21508   2.788   2.991  13.730 -0.9875  0.9979 -1.3042
  176DOPC   H7S21509   2.847   2.860  13.831 -0.7044 -1.2616  0.0167
  176DOPC   C2821510   2.633   2.876  13.824  0.0049 -0.1510 -0.1633
  176DOPC   H8R21511   2.561   2.874  13.740 -0.4043 -0.5732  0.1911
  176DOPC   H8S21512   2.621   2.964  13.890 -2.4694 -0.8031  0.3552
  176DOPC   C2921513   2.620   2.750  13.898  0.1251  0.5588  0.1065
  176DOPC   H9R21514   2.707   2.721  13.959 -0.0700  2.6130  1.4648
  176DOPC  C21021515   2.515   2.665  13.885 -0.0341 -1.0407  0.6532
  176DOPC  H10R21516   2.513   2.568  13.937 -0.9698 -1.7363 -0.6296
  176DOPC  C21121517   2.386   2.679  13.796 -0.4110 -0.3670  0.2162
  176DOPC  H11R21518   2.402   2.618  13.704  2.2179  3.2827 -2.0065
  176DOPC  H11S21519   2.356   2.780  13.762 -1.6416 -0.9708 -0.5379
  176DOPC  C21221520   2.272   2.611  13.873  1.2257 -0.5033  0.5082
  176DOPC  H12R21521   2.306   2.524  13.934  2.1053 -1.4271 -1.2227
  176DOPC  H12S21522   2.199   2.564  13.803 -2.2028  1.3336  2.5328
  176DOPC  C21321523   2.191   2.699  13.975 -0.1259 -0.6115  1.5337
  176DOPC  H13R21524   2.152   2.791  13.926  1.9905 -0.2824  0.3472
  176DOPC  H13S21525   2.253   2.739  14.057  0.4973  1.8034 -0.0206
  176DOPC  C21421526   2.081   2.613  14.037 -0.7757 -0.1004 -0.3984
  176DOPC  H14R21527   2.133   2.531  14.092  0.2130  1.0059  0.3430
  176DOPC  H14S21528   2.018   2.567  13.958 -0.0015 -0.3187 -0.9028
  176DOPC  C21521529   1.998   2.686  14.149 -0.3679 -0.5370  0.3187
  176DOPC  H15R21530   1.971   2.786  14.108  0.3839 -0.2979  0.3850
  176DOPC  H15S21531   2.075   2.691  14.229 -0.0645  0.5391 -0.0119
  176DOPC  C21621532   1.876   2.619  14.202  0.6795 -0.0896 -0.0350
  176DOPC  H16R21533   1.808   2.611  14.115  1.2372  1.2114 -0.6202
  176DOPC  H16S21534   1.826   2.688  14.274 -2.0056 -1.0122 -0.8903
  176DOPC  C21721535   1.885   2.477  14.265 -0.5255  0.3606  0.2551
  176DOPC  H17R21536   1.916   2.410  14.182 -2.3201 -1.2343  0.8150
  176DOPC  H17S21537   1.778   2.465  14.292 -0.6597 -1.3361 -0.8823
  176DOPC  C21821538   1.984   2.466  14.381 -0.0496 -0.5831 -0.1460
  176DOPC  H18R21539   1.944   2.389  14.450 -0.5266 -0.6768 -0.5151
  176DOPC  H18S21540   1.989   2.558  14.442 -1.3951  0.2894 -1.2675
  176DOPC  H18T21541   2.086   2.447  14.342  0.0606 -0.6762  0.1881
  176DOPC   C3321542   2.765   2.424  13.326 -0.4166  0.1797 -0.2389
  176DOPC   H3X21543   2.766   2.518  13.267  3.4036 -0.2047 -1.0448
  176DOPC   H3Y21544   2.869   2.422  13.363 -0.2427  1.1218 -0.6514
  176DOPC   C3421545   2.668   2.429  13.437  0.2904  0.0442 -0.1471
  176DOPC   H4X21546   2.572   2.471  13.400 -0.9505 -0.1440  2.6701
  176DOPC   H4Y21547   2.700   2.489  13.524  0.7652 -0.2287 -0.1350
  176DOPC   C3521548   2.637   2.297  13.501 -0.0286 -0.0739  0.0557
  176DOPC   H5X21549   2.729   2.248  13.541  1.0852  2.3037  0.5695
  176DOPC   H5Y21550   2.577   2.232  13.434 -1.3985  0.9056  0.2909
  176DOPC   C3621551   2.534   2.309  13.620 -0.1615  0.0210  0.1220
  176DOPC   H6X21552   2.582   2.377  13.693  0.0506  2.1200 -1.8649
  176DOPC   H6Y21553   2.445   2.362  13.580 -0.9751  0.7127  2.6518
  176DOPC   C3721554   2.499   2.175  13.666  0.3670  0.1094  0.2329
  176DOPC   H7X21555   2.469   2.136  13.566  0.4105  2.1835 -0.6315
  176DOPC   H7Y21556   2.591   2.121  13.696  0.1813  0.0909  0.7796
  176DOPC   C3821557   2.400   2.167  13.786  0.8039 -0.0957  0.2476
  176DOPC   H8X21558   2.374   2.061  13.810 -1.5522  0.3675  0.0064
  176DOPC   H8Y21559   2.306   2.213  13.749 -0.2256 -1.9671  0.3919
  176DOPC   C3921560   2.445   2.241  13.901  0.2929 -0.3516  0.1331
  176DOPC   H9X21561   2.447   2.350  13.887 -0.5977 -0.2318  0.8375
  176DOPC  C31021562   2.472   2.210  14.027  0.7530  0.1465 -0.7296
  176DOPC  H10X21563   2.510   2.290  14.092 -1.0606 -0.0476  0.6557
  176DOPC  C31121564   2.439   2.073  14.091 -0.2188 -0.1806 -0.3722
  176DOPC  H11X21565   2.534   2.046  14.143 -0.8401 -0.7694  0.4870
  176DOPC  H11Y21566   2.412   1.989  14.024 -0.9704  1.1644 -1.8042
  176DOPC  C31221567   2.320   2.102  14.185  0.0698 -0.7560  0.3197
  176DOPC  H12X21568   2.288   2.004  14.227  0.4165 -0.2718  1.7441
  176DOPC  H12Y21569   2.232   2.127  14.122 -0.1836  0.4843  1.1498
  176DOPC  C31321570   2.338   2.197  14.305 -0.1311  0.0232 -0.2050
  176DOPC  H13X21571   2.443   2.209  14.340 -0.5709 -0.6617  1.4664
  176DOPC  H13Y21572   2.314   2.298  14.266  1.5096  0.5711  0.1489
  176DOPC  C31421573   2.256   2.156  14.436  0.2589 -0.5547 -0.3160
  176DOPC  H14X21574   2.147   2.155  14.414  0.2581  2.7028 -0.8595
  176DOPC  H14Y21575   2.292   2.057  14.472  0.4119 -0.6073 -0.6148
  176DOPC  C31521576   2.277   2.258  14.553  0.3308  0.2875 -0.6180
  176DOPC  H15X21577   2.224   2.351  14.525 -1.1660 -1.0976 -2.6547
  176DOPC  H15Y21578   2.387   2.271  14.564  0.0475  0.6702  3.2087
  176DOPC  C31621579   2.232   2.206  14.695 -0.3978  0.0448  0.0451
  176DOPC  H16X21580   2.307   2.128  14.716  0.5072  0.9216  0.1309
  176DOPC  H16Y21581   2.235   2.291  14.766 -0.7745 -2.4908  3.3063
  176DOPC  C31721582   2.089   2.148  14.693 -0.2001  0.4646  0.1271
  176DOPC  H17X21583   2.012   2.223  14.665 -0.8849  0.2436  1.3547
  176DOPC  H17Y21584   2.088   2.067  14.616  0.7314  0.4888  0.0819
  176DOPC  C31821585   2.041   2.089  14.828 -0.4652 -0.1073 -0.1707
  176DOPC  H18X21586   1.949   2.029  14.815 -0.1788 -0.5381 -0.2209
  176DOPC  H18Y21587   2.115   2.015  14.865 -1.1668 -0.3548  0.7661
  176DOPC  H18Z21588   2.029   2.168  14.905  1.3011 -0.4191  0.4722
  177DOPC     N21589   5.309   6.675  12.282  0.1954  0.2661  0.0785
  177DOPC   C1221590   5.376   6.617  12.400 -0.0450 -0.5029  0.5148
  177DOPC  H12A21591   5.385   6.691  12.478 -1.3108  1.2616 -0.9435
  177DOPC  H12B21592   5.479   6.603  12.370 -0.6479 -1.2310 -1.3311
  177DOPC   C1321593   5.361   6.811  12.257 -0.3767  0.1656 -0.2455
  177DOPC  H13A21594   5.317   6.889  12.318 -1.3519  1.5725 -2.6288
  177DOPC  H13B21595   5.469   6.807  12.265 -0.3546  1.7488  0.6499
  177DOPC  H13C21596   5.335   6.843  12.157  1.6546 -0.9641 -1.2089
  177DOPC   C1421597   5.162   6.687  12.308 -0.1710 -0.0611  1.0671
  177DOPC  H14A21598   5.116   6.591  12.326 -0.3281  0.1170  1.6339
  177DOPC  H14B21599   5.147   6.738  12.402  0.9238  2.5651 -0.0837
  177DOPC  H14C21600   5.115   6.744  12.229 -0.0410 -0.3774  0.7587
  177DOPC   C1521601   5.327   6.602  12.162  0.2707  0.6295  0.5827
  177DOPC  H15A21602   5.430   6.597  12.131  0.1892  1.1387  0.2139
  177DOPC  H15B21603   5.266   6.629  12.077  2.0370  3.1657  0.0232
  177DOPC  H15C21604   5.310   6.497  12.182  0.7809  0.7111  1.4908
  177DOPC   C1121605   5.317   6.484  12.449 -0.1036 -0.1163  0.5813
  177DOPC  H11A21606   5.373   6.453  12.540  1.5372 -1.8403 -0.9420
  177DOPC  H11B21607   5.213   6.503  12.485  0.3296  0.3951  1.5974
  177DOPC     P21608   5.200   6.297  12.310  0.3275 -0.3374  0.0592
  177DOPC   O1321609   5.239   6.191  12.210 -0.7957 -0.1268 -0.0424
  177DOPC   O1421610   5.090   6.387  12.270 -0.5545  0.0281  0.0153
  177DOPC   O1221611   5.326   6.381  12.343  0.2382 -0.2831 -0.0649
  177DOPC   O1121612   5.157   6.236  12.447  0.1534  0.5026 -0.3402
  177DOPC    C121613   5.204   6.109  12.490  0.0325 -0.8801  0.4316
  177DOPC    HA21614   5.314   6.102  12.478  0.1180 -0.0178  0.6696
  177DOPC    HB21615   5.156   6.031  12.427 -0.7304  1.3614 -1.9652
  177DOPC    C221616   5.197   6.084  12.644  0.6974  0.1319  0.5584
  177DOPC    HS21617   5.260   5.995  12.662 -0.0610 -0.9292 -1.7116
  177DOPC   O2121618   5.056   6.079  12.685  0.3242 -0.0995 -0.2679
  177DOPC   C2121619   5.033   5.993  12.783 -0.4932  0.5305  0.2605
  177DOPC   O2221620   5.111   5.905  12.819 -0.2455 -0.5583  0.3735
  177DOPC   C2221621   4.900   6.020  12.855 -0.3011 -0.2039 -0.3275
  177DOPC   H2R21622   4.846   5.924  12.841 -2.6057  0.3838  3.1803
  177DOPC   H2S21623   4.836   6.092  12.801 -1.3437 -0.2909  0.7499
  177DOPC    C321624   5.265   6.194  12.721  0.6019 -0.0628  0.0252
  177DOPC    HX21625   5.205   6.287  12.721 -0.8995 -0.9850  0.7655
  177DOPC    HY21626   5.359   6.222  12.668  0.1616 -0.6942 -1.1470
  177DOPC   O3121627   5.294   6.155  12.854  0.0474 -0.0380  0.1886
  177DOPC   C3121628   5.400   6.089  12.886 -0.1575 -0.2215 -0.6206
  177DOPC   O3221629   5.483   6.044  12.815  0.0488 -0.3504  0.2071
  177DOPC   C3221630   5.399   6.081  13.043  0.0677  0.4966 -0.2574
  177DOPC   H2X21631   5.316   6.016  13.077  0.9376 -0.8090 -0.5498
  177DOPC   H2Y21632   5.494   6.025  13.057  0.9100  2.4075  2.4266
  177DOPC   C2321633   4.890   6.070  12.997 -0.3922 -0.1828  0.0309
  177DOPC   H3R21634   4.945   5.994  13.056  0.8008  0.1866 -0.5697
  177DOPC   H3S21635   4.787   6.086  13.037 -1.2574  1.3434 -2.5414
  177DOPC   C2421636   4.970   6.196  13.023  0.4028  0.1170 -0.7176
  177DOPC   H4R21637   4.924   6.284  12.973  1.9390  2.3312  1.4962
  177DOPC   H4S21638   5.072   6.176  12.984  0.0394  0.0943 -1.6768
  177DOPC   C2521639   4.972   6.236  13.177  0.3091 -0.1224 -0.0855
  177DOPC   H5R21640   4.864   6.245  13.201  0.7009  0.4360  1.5854
  177DOPC   H5S21641   5.024   6.332  13.199 -0.6851  0.7964 -1.5852
  177DOPC   C2621642   5.033   6.133  13.272  0.0737  0.8781  0.0725
  177DOPC   H6R21643   5.140   6.109  13.252 -0.3097 -1.5103  0.5899
  177DOPC   H6S21644   4.968   6.044  13.258 -0.4197  1.4125 -1.1381
  177DOPC   C2721645   5.024   6.188  13.409  1.6687 -0.1076  0.0023
  177DOPC   H7R21646   4.917   6.170  13.435  1.5701 -0.2731 -0.4890
  177DOPC   H7S21647   5.044   6.296  13.420  3.4369 -0.3003 -0.9696
  177DOPC   C2821648   5.107   6.101  13.501 -0.1574 -0.3760 -0.0217
  177DOPC   H8R21649   5.210   6.100  13.458 -0.8030  1.7670 -1.8243
  177DOPC   H8S21650   5.057   6.002  13.492 -0.1900 -0.3439 -0.2028
  177DOPC   C2921651   5.106   6.157  13.642 -0.0079 -0.1269  0.9142
  177DOPC   H9R21652   5.014   6.216  13.659  0.1098  0.1102  0.7401
  177DOPC  C21021653   5.212   6.159  13.731  0.2426  0.3433 -0.0076
  177DOPC  H10R21654   5.197   6.202  13.831 -0.7421  0.6989 -0.3043
  177DOPC  C21121655   5.343   6.093  13.707 -0.0598  0.2896  0.1123
  177DOPC  H11R21656   5.430   6.161  13.717  0.9488 -1.0890  1.1323
  177DOPC  H11S21657   5.351   6.067  13.599  1.2878  2.9789 -0.5398
  177DOPC  C21221658   5.370   5.976  13.795  0.2338 -0.0243 -0.1284
  177DOPC  H12R21659   5.460   5.929  13.751 -0.6535 -0.6518 -1.3261
  177DOPC  H12S21660   5.289   5.901  13.788 -2.9428  2.9541  1.5379
  177DOPC  C21321661   5.369   5.999  13.949 -0.2397 -0.4559 -0.2093
  177DOPC  H13R21662   5.268   5.991  13.995 -0.2714 -2.9722 -0.5760
  177DOPC  H13S21663   5.411   6.100  13.965 -0.8727  0.1959 -2.3083
  177DOPC  C21421664   5.473   5.905  14.020  0.5535 -0.5169 -0.1634
  177DOPC  H14R21665   5.581   5.918  13.995  0.6804  0.5459  0.8700
  177DOPC  H14S21666   5.448   5.798  13.999 -1.3333 -0.7745  2.7864
  177DOPC  C21521667   5.460   5.917  14.169 -0.3202 -0.5657 -0.2675
  177DOPC  H15R21668   5.506   5.826  14.213 -1.0271 -0.5250  0.5718
  177DOPC  H15S21669   5.354   5.901  14.198 -0.2760  0.1434  0.2954
  177DOPC  C21621670   5.529   6.041  14.234 -0.0095  0.2439 -0.4921
  177DOPC  H16R21671   5.468   6.133  14.220 -0.3436 -0.1942 -2.0507
  177DOPC  H16S21672   5.631   6.051  14.191  0.8570 -0.8473  1.1977
  177DOPC  C21721673   5.543   6.017  14.385  0.1478 -0.1724  0.0626
  177DOPC  H17R21674   5.624   5.942  14.392 -0.9781 -1.4206 -0.0232
  177DOPC  H17S21675   5.448   5.970  14.417 -0.6729  2.4003  1.6857
  177DOPC  C21821676   5.580   6.139  14.465  0.4431 -0.1035  0.0203
  177DOPC  H18R21677   5.575   6.112  14.573  0.3659 -1.8866 -0.4049
  177DOPC  H18S21678   5.508   6.219  14.437 -0.9562 -1.5982 -0.7809
  177DOPC  H18T21679   5.681   6.167  14.429 -0.3271 -0.1413 -2.3541
  177DOPC   C3321680   5.419   6.217  13.102 -0.5590 -0.3097 -0.7760
  177DOPC   H3X21681   5.346   6.300  13.086  0.8824  1.5520  1.6277
  177DOPC   H3Y21682   5.512   6.264  13.063  0.0777  1.3689  2.3528
  177DOPC   C3421683   5.458   6.221  13.254 -0.0518  0.0958 -0.1385
  177DOPC   H4X21684   5.549   6.167  13.288 -0.0871  0.9944  1.4679
  177DOPC   H4Y21685   5.371   6.175  13.304  1.9909 -1.2722  2.4492
  177DOPC   C3521686   5.462   6.364  13.313 -0.0762 -0.7184  0.0500
  177DOPC   H5X21687   5.370   6.421  13.288  0.0273 -0.0569  1.0865
  177DOPC   H5Y21688   5.550   6.422  13.277  0.2978 -1.5317 -0.3723
  177DOPC   C3621689   5.478   6.353  13.467 -0.1651 -0.2169 -0.4267
  177DOPC   H6X21690   5.380   6.330  13.513 -0.8533  0.2914 -1.6195
  177DOPC   H6Y21691   5.546   6.267  13.489  0.5559  0.4840  0.1303
  177DOPC   C3721692   5.527   6.486  13.519  0.5597 -0.4580 -0.5859
  177DOPC   H7X21693   5.513   6.465  13.627 -2.0579 -0.2874 -0.8338
  177DOPC   H7Y21694   5.634   6.514  13.504  0.2135  1.9035  0.8546
  177DOPC   C3821695   5.432   6.599  13.481  0.0975 -0.1439 -0.6005
  177DOPC   H8X21696   5.328   6.561  13.470  0.2183 -0.8811  0.5632
  177DOPC   H8Y21697   5.458   6.633  13.379  0.8108 -0.8689 -0.6789
  177DOPC   C3921698   5.459   6.712  13.583 -0.1480  0.5282 -0.7637
  177DOPC   H9X21699   5.448   6.679  13.688  2.0767 -1.5489 -1.1226
  177DOPC  C31021700   5.484   6.839  13.551  0.6712 -0.7287 -0.5702
  177DOPC  H10X21701   5.488   6.916  13.630  0.5008 -1.5016  0.2101
  177DOPC  C31121702   5.503   6.900  13.412 -0.5707  0.6892 -0.7384
  177DOPC  H11X21703   5.449   6.837  13.339 -0.7019 -0.8818  0.6536
  177DOPC  H11Y21704   5.612   6.914  13.398 -0.6055  1.7332 -0.1208
  177DOPC  C31221705   5.448   7.045  13.406 -0.2288  0.4506 -0.0235
  177DOPC  H12X21706   5.460   7.082  13.302 -0.1098  0.4302 -0.0178
  177DOPC  H12Y21707   5.518   7.109  13.465 -1.4999  0.0959  1.9756
  177DOPC  C31321708   5.301   7.065  13.441 -0.1907 -0.2505 -0.4805
  177DOPC  H13X21709   5.238   6.989  13.390 -0.4883  0.2720 -0.9031
  177DOPC  H13Y21710   5.293   7.060  13.552  1.5461 -1.8096 -0.3622
  177DOPC  C31421711   5.241   7.199  13.405 -0.2563  0.6766  0.2392
  177DOPC  H14X21712   5.292   7.286  13.450 -1.4030  1.2103  0.5377
  177DOPC  H14Y21713   5.252   7.212  13.295 -0.8533  0.4974  0.1506
  177DOPC  C31521714   5.093   7.202  13.449  0.3276 -0.2329 -0.2345
  177DOPC  H15X21715   5.084   7.166  13.553 -0.9148 -0.9125 -0.5650
  177DOPC  H15Y21716   5.041   7.134  13.379  1.4723 -0.7922 -0.5679
  177DOPC  C31621717   5.019   7.335  13.427  0.2503  0.3787 -0.0334
  177DOPC  H16X21718   5.037   7.368  13.323  0.4622  0.0612 -0.0985
  177DOPC  H16Y21719   4.910   7.315  13.425  0.0846  0.8055 -4.2630
  177DOPC  C31721720   5.056   7.455  13.522 -0.4062 -0.0071  0.4249
  177DOPC  H17X21721   5.162   7.479  13.504 -0.4603 -0.1953 -0.1803
  177DOPC  H17Y21722   4.988   7.537  13.491 -0.6825 -0.2812  0.2877
  177DOPC  C31821723   5.041   7.432  13.666  0.1658 -0.0838 -0.4071
  177DOPC  H18X21724   5.076   7.510  13.737  1.0310 -0.7813 -0.0540
  177DOPC  H18Y21725   4.933   7.415  13.683 -0.0077 -1.1883 -2.2675
  177DOPC  H18Z21726   5.100   7.342  13.693  0.3554 -0.1799 -1.1167
  178DOPC     N21727   2.596   7.683  12.266  0.5566  0.0445  0.5289
  178DOPC   C1221728   2.573   7.534  12.221  0.1150 -0.0647 -0.0236
  178DOPC  H12A21729   2.662   7.502  12.169 -0.3137 -2.2121  0.4615
  178DOPC  H12B21730   2.486   7.534  12.155 -0.5883 -2.9731  0.7619
  178DOPC   C1321731   2.612   7.762  12.140  0.1567 -0.2081 -0.5558
  178DOPC  H13A21732   2.606   7.869  12.156  0.6366 -0.1930 -0.4807
  178DOPC  H13B21733   2.703   7.748  12.085  0.7507  0.2589  0.2801
  178DOPC  H13C21734   2.536   7.738  12.067 -1.7442 -1.6844  1.7658
  178DOPC   C1421735   2.722   7.694  12.354 -0.1737 -0.0351 -0.3456
  178DOPC  H14A21736   2.708   7.778  12.420 -1.4929  0.0551 -0.7274
  178DOPC  H14B21737   2.727   7.606  12.417  0.6102 -0.6754 -1.2818
  178DOPC  H14C21738   2.813   7.707  12.297  0.4905 -0.3822  0.5946
  178DOPC   C1521739   2.475   7.738  12.344 -0.3282 -0.5334  0.4093
  178DOPC  H15A21740   2.495   7.833  12.390  0.0952 -1.4791  2.2707
  178DOPC  H15B21741   2.440   7.660  12.410 -1.2220  0.4128  1.0619
  178DOPC  H15C21742   2.391   7.749  12.277  0.3254 -1.1658 -0.5616
  178DOPC   C1121743   2.548   7.418  12.320  0.0603 -0.1870  0.0699
  178DOPC  H11A21744   2.461   7.451  12.381 -0.9232 -1.8511 -0.3792
  178DOPC  H11B21745   2.513   7.328  12.266 -0.2453  0.5591 -1.0257
  178DOPC     P21746   2.640   7.312  12.543  0.1146  0.5354  0.2499
  178DOPC   O1321747   2.736   7.364  12.652 -0.0196  0.4957  0.4443
  178DOPC   O1421748   2.652   7.170  12.504 -0.0743 -0.0619 -0.1860
  178DOPC   O1221749   2.652   7.400  12.410  0.8912  0.1602 -0.0236
  178DOPC   O1121750   2.489   7.338  12.598 -0.7499  0.8382 -0.4751
  178DOPC    C121751   2.464   7.452  12.686 -0.2387 -1.0340 -0.3172
  178DOPC    HA21752   2.464   7.541  12.619 -2.6869 -1.0272 -0.3828
  178DOPC    HB21753   2.538   7.463  12.768 -2.8972  2.7379  1.8589
  178DOPC    C221754   2.326   7.449  12.744 -0.0296 -0.7705  0.1778
  178DOPC    HS21755   2.314   7.523  12.826  0.3235 -1.8668  1.2643
  178DOPC   O2121756   2.302   7.317  12.804  0.2712 -0.3761  0.5798
  178DOPC   C2121757   2.358   7.305  12.914  0.9344  0.0207 -0.6785
  178DOPC   O2221758   2.411   7.396  12.980 -0.1331  0.3434  0.2103
  178DOPC   C2221759   2.370   7.156  12.957 -0.1903  0.9051 -0.4670
  178DOPC   H2R21760   2.469   7.131  12.912  0.1882  1.0377  0.2786
  178DOPC   H2S21761   2.294   7.097  12.901  0.3164 -3.9447  3.2125
  178DOPC    C321762   2.215   7.479  12.643  0.3822  0.0645 -0.6011
  178DOPC    HX21763   2.226   7.418  12.550  0.3271 -0.9586  0.0548
  178DOPC    HY21764   2.220   7.586  12.612 -1.3379  0.9001  1.7368
  178DOPC   O3121765   2.079   7.458  12.693  0.1505 -0.5548 -0.1239
  178DOPC   C3121766   2.026   7.337  12.679 -0.3490 -0.2925 -0.0271
  178DOPC   O3221767   2.074   7.241  12.616  0.2567 -0.3948 -0.5052
  178DOPC   C3221768   1.878   7.339  12.741 -0.8060  0.0500 -0.0489
  178DOPC   H2X21769   1.853   7.441  12.777 -0.5927  0.2291 -0.4091
  178DOPC   H2Y21770   1.807   7.314  12.659  0.3352  1.2228 -1.4681
  178DOPC   C2321771   2.381   7.112  13.105 -0.0685  0.1840  0.5863
  178DOPC   H3R21772   2.459   7.167  13.161  1.5919 -2.3982  1.0033
  178DOPC   H3S21773   2.423   7.010  13.120 -0.2552  0.1662  0.9991
  178DOPC   C2421774   2.249   7.116  13.177 -0.2514 -0.5178 -0.2087
  178DOPC   H4R21775   2.171   7.068  13.115  0.4885  0.6187 -2.1394
  178DOPC   H4S21776   2.218   7.219  13.206  0.0781 -0.6598  0.6735
  178DOPC   C2521777   2.252   7.043  13.309  0.7227 -0.4222 -1.1577
  178DOPC   H5R21778   2.301   7.116  13.377 -1.4013  0.0304 -0.0178
  178DOPC   H5S21779   2.308   6.948  13.298  1.1092 -0.2195 -0.9448
  178DOPC   C2621780   2.112   7.007  13.367  0.6479 -0.5060 -0.0550
  178DOPC   H6R21781   2.056   6.964  13.281 -0.5940 -1.4851  1.1923
  178DOPC   H6S21782   2.062   7.101  13.400  0.8665 -0.3679 -0.1158
  178DOPC   C2721783   2.121   6.904  13.485  1.0054  0.2265  0.1962
  178DOPC   H7R21784   2.150   6.966  13.574 -1.2835  3.2942 -1.0193
  178DOPC   H7S21785   2.196   6.823  13.472 -0.7161 -1.6496  1.3354
  178DOPC   C2821786   1.987   6.825  13.517  0.3291  0.2564 -0.8112
  178DOPC   H8R21787   2.007   6.767  13.610  1.7935 -1.4106 -2.0844
  178DOPC   H8S21788   1.981   6.734  13.453 -2.1844 -1.6398  1.8823
  178DOPC   C2921789   1.856   6.898  13.523 -0.1724  0.0077  0.5916
  178DOPC   H9R21790   1.815   6.930  13.426  2.6781 -0.1439 -0.7931
  178DOPC  C21021791   1.792   6.935  13.629  0.3712  0.4668  0.2363
  178DOPC  H10R21792   1.695   6.986  13.619  1.0643  1.3760 -3.4863
  178DOPC  C21121793   1.834   6.916  13.773  0.2157  0.8734  0.5028
  178DOPC  H11R21794   1.915   6.841  13.781  0.3304  1.1580  2.5582
  178DOPC  H11S21795   1.756   6.868  13.835  0.6515  0.3343  0.6339
  178DOPC  C21221796   1.891   7.040  13.833 -0.1915  0.4369 -0.4034
  178DOPC  H12R21797   1.960   7.083  13.758  0.3214  0.2558 -0.0353
  178DOPC  H12S21798   1.957   7.006  13.915  1.6706  2.8692 -0.7831
  178DOPC  C21321799   1.793   7.141  13.893 -1.1717  0.2772 -0.1013
  178DOPC  H13R21800   1.724   7.180  13.815 -2.5627 -0.6483  0.6069
  178DOPC  H13S21801   1.846   7.229  13.934  1.6906 -0.8879 -1.0328
  178DOPC  C21421802   1.709   7.080  14.007 -0.5449 -0.1814  0.6732
  178DOPC  H14R21803   1.780   7.039  14.082 -0.7900 -0.7214  0.6146
  178DOPC  H14S21804   1.658   6.995  13.957  0.5802 -0.3114 -0.2704
  178DOPC  C21521805   1.599   7.171  14.078 -0.2632 -0.1405  0.3986
  178DOPC  H15R21806   1.538   7.200  13.990  1.3464 -1.5946 -1.2664
  178DOPC  H15S21807   1.655   7.255  14.124  1.5815 -0.9869 -0.2287
  178DOPC  C21621808   1.517   7.087  14.181 -0.3564 -0.9874  0.1134
  178DOPC  H16R21809   1.585   7.056  14.263  0.7844  0.6825 -0.1285
  178DOPC  H16S21810   1.472   6.999  14.131  0.2442 -1.4230  0.3331
  178DOPC  C21721811   1.403   7.171  14.246  0.7962 -0.5083 -0.1279
  178DOPC  H17R21812   1.436   7.268  14.288 -0.6970 -0.7671  1.8049
  178DOPC  H17S21813   1.338   7.107  14.310 -2.4052  0.5134 -2.1337
  178DOPC  C21821814   1.288   7.207  14.142 -0.3194  0.2708  0.1813
  178DOPC  H18R21815   1.246   7.120  14.088  0.1517 -0.9212  1.6557
  178DOPC  H18S21816   1.328   7.278  14.067 -1.7545  1.0486  0.1144
  178DOPC  H18T21817   1.213   7.276  14.184 -0.1726  1.0131 -0.7389
  178DOPC   C3321818   1.854   7.235  12.860 -0.7822 -0.0586  0.6612
  178DOPC   H3X21819   1.915   7.144  12.844 -1.0897 -0.4621  1.7022
  178DOPC   H3Y21820   1.749   7.202  12.855 -0.4871 -1.6110  2.9859
  178DOPC   C3421821   1.884   7.299  12.998  0.5398 -0.5273 -0.7006
  178DOPC   H4X21822   1.819   7.389  12.994 -0.2758 -1.1016 -0.6774
  178DOPC   H4Y21823   1.992   7.321  13.012  0.8000 -0.8780 -2.0123
  178DOPC   C3521824   1.846   7.227  13.123 -0.3540 -0.2968 -0.0968
  178DOPC   H5X21825   1.902   7.131  13.128 -1.0014 -0.6314  0.9166
  178DOPC   H5Y21826   1.739   7.198  13.128 -0.4824  0.1698 -0.0987
  178DOPC   C3621827   1.868   7.296  13.256 -0.4209 -0.2773 -0.0588
  178DOPC   H6X21828   1.844   7.215  13.328  2.2524 -1.9639 -0.9616
  178DOPC   H6Y21829   1.976   7.322  13.262 -0.0158 -1.1188 -2.6640
  178DOPC   C3721830   1.769   7.418  13.285 -0.5618  0.1115 -0.4930
  178DOPC   H7X21831   1.780   7.499  13.210  2.8218 -0.5377 -0.8631
  178DOPC   H7Y21832   1.664   7.381  13.281 -0.2251 -0.8031 -2.2462
  178DOPC   C3821833   1.789   7.480  13.424 -0.6820  0.1021  0.0158
  178DOPC   H8X21834   1.729   7.574  13.421  0.5175  0.8716 -1.2868
  178DOPC   H8Y21835   1.897   7.503  13.435 -0.2930 -2.1799  1.5315
  178DOPC   C3921836   1.751   7.381  13.535 -0.3981 -0.2671  0.0183
  178DOPC   H9X21837   1.793   7.281  13.514  1.0554  0.6589 -1.7038
  178DOPC  C31021838   1.672   7.413  13.642 -0.6264  0.5231 -0.1071
  178DOPC  H10X21839   1.633   7.335  13.709 -1.8691  0.2061 -1.1779
  178DOPC  C31121840   1.596   7.539  13.669  0.0505  0.0872  0.7496
  178DOPC  H11X21841   1.538   7.554  13.575 -1.0961 -1.0004  1.2484
  178DOPC  H11Y21842   1.664   7.625  13.683 -1.3130  1.1292  1.2680
  178DOPC  C31221843   1.519   7.522  13.802  0.2788 -0.2565  0.2639
  178DOPC  H12X21844   1.467   7.424  13.802  1.8132 -1.1472 -1.8689
  178DOPC  H12Y21845   1.443   7.603  13.799 -0.2322 -0.7591 -1.4916
  178DOPC  C31321846   1.616   7.530  13.916 -0.2275  0.1147  0.4020
  178DOPC  H13X21847   1.680   7.439  13.925 -1.1445 -0.5081  0.7385
  178DOPC  H13Y21848   1.671   7.626  13.912  0.8775 -0.5040  0.2507
  178DOPC  C31421849   1.538   7.542  14.048  0.4813  0.0175  0.4938
  178DOPC  H14X21850   1.470   7.627  14.030  1.4185  0.7672  0.4116
  178DOPC  H14Y21851   1.485   7.446  14.065  1.8574 -0.9653 -0.4902
  178DOPC  C31521852   1.636   7.576  14.163  0.3733 -0.1665  0.0177
  178DOPC  H15X21853   1.712   7.650  14.131 -0.0409  1.0943  1.8003
  178DOPC  H15Y21854   1.681   7.475  14.177  1.5525  0.3363 -0.0610
  178DOPC  C31621855   1.560   7.616  14.294  0.5233 -0.0215 -0.1944
  178DOPC  H16X21856   1.474   7.681  14.268 -0.8807 -1.7684 -0.1358
  178DOPC  H16Y21857   1.506   7.528  14.336  0.1478  0.7733  1.0318
  178DOPC  C31721858   1.655   7.661  14.400  0.2202 -0.1901 -0.4832
  178DOPC  H17X21859   1.738   7.586  14.405  0.4794 -0.0486 -2.1195
  178DOPC  H17Y21860   1.699   7.756  14.363 -2.3127  2.0889  1.9205
  178DOPC  C31821861   1.601   7.696  14.538 -0.4334  0.3451 -0.2789
  178DOPC  H18X21862   1.681   7.752  14.591  1.6403 -0.9254 -1.9278
  178DOPC  H18Y21863   1.507   7.755  14.530 -1.6819 -1.7920 -3.4150
  178DOPC  H18Z21864   1.592   7.608  14.605 -1.2708  1.0793  0.6112
  179DOPC     N21865   6.914   5.974  12.142 -0.0389  0.2545 -0.7130
  179DOPC   C1221866   6.988   6.048  12.250 -0.3664 -0.1141 -0.1865
  179DOPC  H12A21867   6.924   6.130  12.277  0.3329  0.0662  0.9848
  179DOPC  H12B21868   7.077   6.091  12.207  1.3705 -2.8664  0.4170
  179DOPC   C1321869   7.000   5.857  12.095 -0.0346 -0.2460  0.1628
  179DOPC  H13A21870   6.961   5.801  12.011 -0.7871 -0.1988  0.4738
  179DOPC  H13B21871   7.096   5.892  12.061 -1.2502  3.2881 -0.0542
  179DOPC  H13C21872   6.999   5.789  12.179  0.2365  0.4263  0.7195
  179DOPC   C1421873   6.910   6.077  12.031  0.0379 -0.8115 -0.1211
  179DOPC  H14A21874   6.846   6.162  12.051  0.2907  0.1584 -2.9371
  179DOPC  H14B21875   7.009   6.119  12.017  0.3816 -0.3037  3.0622
  179DOPC  H14C21876   6.888   6.031  11.936 -2.8974  0.1372 -0.0134
  179DOPC   C1521877   6.769   5.938  12.175  0.0623 -0.0674  0.1402
  179DOPC  H15A21878   6.765   5.863  12.253 -1.5929 -0.7740 -0.5804
  179DOPC  H15B21879   6.721   5.905  12.084  3.0676  0.2217 -1.6914
  179DOPC  H15C21880   6.706   6.021  12.201 -1.3258 -0.8371 -0.6580
  179DOPC   C1121881   7.034   5.976  12.376  1.0731  0.1539  0.8995
  179DOPC  H11A21882   7.108   5.901  12.339  1.0202  1.0363 -1.1144
  179DOPC  H11B21883   7.072   6.051  12.449  0.1627  1.3369  0.1867
  179DOPC     P21884   6.914   5.771  12.501  0.1578 -0.1712 -0.0307
  179DOPC   O1321885   6.993   5.687  12.406 -0.2065 -0.8142 -0.5808
  179DOPC   O1421886   6.777   5.730  12.530 -0.1329 -0.2779 -0.6437
  179DOPC   O1221887   6.924   5.924  12.450 -0.0174 -0.0407 -0.0749
  179DOPC   O1121888   6.983   5.792  12.638 -0.5119  1.0929 -0.0647
  179DOPC    C121889   7.129   5.795  12.648 -0.0751 -0.5253 -0.2840
  179DOPC    HA21890   7.153   5.866  12.730 -1.3069  0.6250 -0.8771
  179DOPC    HB21891   7.170   5.835  12.552 -0.1990 -0.0871 -0.1559
  179DOPC    C221892   7.204   5.665  12.677 -0.0255  0.0724  0.6833
  179DOPC    HS21893   7.177   5.599  12.591 -0.7750  0.8009  0.3338
  179DOPC   O2121894   7.170   5.615  12.804  0.1593  0.8138 -0.1665
  179DOPC   C2121895   7.049   5.568  12.829  0.4156  0.0465 -0.2603
  179DOPC   O2221896   6.966   5.532  12.748  0.0870 -0.0477 -0.2342
  179DOPC   C2221897   7.037   5.563  12.983  0.0992  0.3222  0.3684
  179DOPC   H2R21898   7.082   5.657  13.020 -1.8384  1.7997 -0.8300
  179DOPC   H2S21899   7.108   5.481  13.007  0.6111 -0.1688 -2.4187
  179DOPC    C321900   7.364   5.673  12.667 -0.7637  0.4497 -0.0646
  179DOPC    HX21901   7.395   5.760  12.729 -0.0325 -0.1165  0.3723
  179DOPC    HY21902   7.385   5.699  12.561 -0.7820  2.0323  0.2902
  179DOPC   O3121903   7.430   5.549  12.711  0.1309  0.3953 -0.5631
  179DOPC   C3121904   7.563   5.566  12.714 -0.5707  0.7446  0.1425
  179DOPC   O3221905   7.622   5.666  12.680  0.1887 -0.0958  0.2679
  179DOPC   C3221906   7.635   5.442  12.776 -0.2674 -0.8474 -0.3896
  179DOPC   H2X21907   7.558   5.371  12.813 -0.4757 -1.0639 -1.2372
  179DOPC   H2Y21908   7.678   5.388  12.690 -1.6595 -1.7458 -0.5519
  179DOPC   C2321909   6.900   5.533  13.045  0.0549 -0.0585  0.8584
  179DOPC   H3R21910   6.821   5.580  12.982  0.5411 -0.9731 -0.4614
  179DOPC   H3S21911   6.890   5.563  13.152  2.6991 -2.4489  1.8931
  179DOPC   C2421912   6.881   5.381  13.050 -0.9090 -0.1678 -0.1926
  179DOPC   H4R21913   6.932   5.347  13.142 -1.5977 -0.6031  0.0410
  179DOPC   H4S21914   6.925   5.334  12.960  0.1571 -0.2910  0.3847
  179DOPC   C2521915   6.734   5.332  13.077  0.5958  0.0115  0.5735
  179DOPC   H5R21916   6.667   5.384  13.005 -0.4497 -0.5820  1.0896
  179DOPC   H5S21917   6.704   5.350  13.183  1.5660  1.8384  0.5757
  179DOPC   C2621918   6.716   5.182  13.054  0.1497 -0.2272 -0.5211
  179DOPC   H6R21919   6.634   5.132  13.109 -0.9880 -0.0026 -1.9393
  179DOPC   H6S21920   6.808   5.143  13.103  0.9730  2.2216  0.0536
  179DOPC   C2721921   6.710   5.132  12.912  0.1946  0.9199  0.0987
  179DOPC   H7R21922   6.793   5.178  12.854 -1.2971  2.9243 -0.5546
  179DOPC   H7S21923   6.622   5.179  12.864  0.9107  1.1357 -1.0453
  179DOPC   C2821924   6.716   4.980  12.888  0.2930  0.5724  0.0709
  179DOPC   H8R21925   6.798   4.927  12.942  1.0612  0.9262 -0.7299
  179DOPC   H8S21926   6.733   4.976  12.778 -0.6173  2.1565 -0.1604
  179DOPC   C2921927   6.580   4.915  12.913  0.3678 -0.7073  0.7379
  179DOPC   H9R21928   6.497   4.986  12.901  2.3318  1.5665 -0.2157
  179DOPC  C21021929   6.569   4.787  12.962  0.7116  0.1787  0.3474
  179DOPC  H10R21930   6.467   4.750  12.981  0.4778  0.1454 -0.8429
  179DOPC  C21121931   6.677   4.688  12.994 -0.3165  0.1079 -0.2817
  179DOPC  H11R21932   6.771   4.705  12.937 -0.4319 -2.7469 -1.4799
  179DOPC  H11S21933   6.648   4.586  12.961  1.0345  0.4416 -2.7114
  179DOPC  C21221934   6.694   4.681  13.149  0.2127 -0.0418  0.3379
  179DOPC  H12R21935   6.781   4.616  13.176  1.1722  1.2308  0.3785
  179DOPC  H12S21936   6.619   4.631  13.214  0.4321 -0.9224 -0.0614
  179DOPC  C21321937   6.732   4.816  13.213 -0.4078 -0.0339 -0.6368
  179DOPC  H13R21938   6.656   4.893  13.188 -0.9353 -0.5428 -0.6095
  179DOPC  H13S21939   6.832   4.854  13.182  0.1737 -0.6447  0.4446
  179DOPC  C21421940   6.727   4.818  13.370 -0.5875 -0.2879 -0.7692
  179DOPC  H14R21941   6.648   4.759  13.421  0.5279  1.3593  3.3205
  179DOPC  H14S21942   6.718   4.927  13.394  3.7168  0.3016 -1.0944
  179DOPC  C21521943   6.861   4.774  13.425  0.0239  1.0827 -0.1325
  179DOPC  H15R21944   6.947   4.832  13.384  2.3750 -1.8283  0.3250
  179DOPC  H15S21945   6.886   4.673  13.388 -1.8916  1.1033 -1.6137
  179DOPC  C21621946   6.853   4.782  13.579  0.2928  0.1759  0.1628
  179DOPC  H16R21947   6.946   4.736  13.619  0.0904 -0.0933  0.3217
  179DOPC  H16S21948   6.778   4.711  13.618 -2.8933  1.7341 -2.6062
  179DOPC  C21721949   6.837   4.917  13.646  0.4767  0.0669  0.0570
  179DOPC  H17R21950   6.731   4.949  13.638 -0.1153 -2.0013 -1.2951
  179DOPC  H17S21951   6.891   5.001  13.598 -0.4366  0.8562  0.3973
  179DOPC  C21821952   6.864   4.922  13.795  0.3780 -0.0394  0.2072
  179DOPC  H18R21953   6.801   4.845  13.844  3.2222 -1.7791  1.3988
  179DOPC  H18S21954   6.835   5.019  13.841 -0.6082  0.2128 -0.9072
  179DOPC  H18T21955   6.972   4.902  13.814  0.6557  1.4007  0.2178
  179DOPC   C3321956   7.725   5.482  12.898 -0.3895 -0.3003  0.0379
  179DOPC   H3X21957   7.673   5.528  12.985  0.1800  0.4183  0.0005
  179DOPC   H3Y21958   7.800   5.553  12.858 -0.7540 -0.3418 -0.7319
  179DOPC   C3421959   7.799   5.354  12.936 -0.9181 -0.2928  0.1072
  179DOPC   H4X21960   7.829   5.299  12.844 -1.4258 -1.2603  0.5105
  179DOPC   H4Y21961   7.729   5.283  12.986  0.6377 -1.7968  0.2401
  179DOPC   C3521962   7.928   5.375  13.023  0.2532  0.2618 -0.0686
  179DOPC   H5X21963   8.005   5.427  12.963 -1.3156  2.5470 -0.2081
  179DOPC   H5Y21964   7.963   5.270  13.036 -3.4770 -1.0335  0.7640
  179DOPC   C3621965   7.913   5.434  13.157 -0.1926 -0.3027 -0.8707
  179DOPC   H6X21966   7.869   5.536  13.146 -1.9495 -0.7136  1.3893
  179DOPC   H6Y21967   7.841   5.384  13.225  0.3836  1.9535  1.5340
  179DOPC   C3721968   8.041   5.458  13.244 -0.0652  0.4042 -0.4501
  179DOPC   H7X21969   8.069   5.360  13.289  0.8978  0.0715 -1.7156
  179DOPC   H7Y21970   8.125   5.490  13.178  2.2448  0.8245  2.4571
  179DOPC   C3821971   8.028   5.559  13.359  0.7744  0.3524 -0.4770
  179DOPC   H8X21972   7.971   5.500  13.434 -2.1592  0.8451 -2.1887
  179DOPC   H8Y21973   7.967   5.638  13.311 -1.1460 -0.6433  0.2281
  179DOPC   C3921974   8.163   5.599  13.416 -0.2757  0.2283  0.1120
  179DOPC   H9X21975   8.234   5.517  13.433  0.1890  0.6494  0.2298
  179DOPC  C31021976   8.202   5.730  13.422  0.1676  0.1293  0.1570
  179DOPC  H10X21977   8.305   5.743  13.460  1.2013  0.6059 -2.5428
  179DOPC  C31121978   8.125   5.862  13.397  0.3041  0.4202  0.1417
  179DOPC  H11X21979   8.029   5.833  13.351 -0.0684 -0.1045  1.2182
  179DOPC  H11Y21980   8.180   5.916  13.317  2.1964 -0.2617  0.9084
  179DOPC  C31221981   8.098   5.946  13.519 -0.2642 -0.5140  0.0875
  179DOPC  H12X21982   8.074   6.045  13.474  0.5082  0.9684  2.7088
  179DOPC  H12Y21983   8.195   5.958  13.573 -0.9736 -1.6466  1.6741
  179DOPC  C31321984   7.996   5.891  13.622  0.0154  0.3100  0.0651
  179DOPC  H13X21985   7.897   5.902  13.573  0.1088 -0.7140 -0.3732
  179DOPC  H13Y21986   8.019   5.783  13.630 -0.0196  0.1567 -1.6009
  179DOPC  C31421987   8.002   5.949  13.754 -0.0058 -0.0853 -0.3998
  179DOPC  H14X21988   8.108   5.933  13.780  0.7303  3.4368 -0.7329
  179DOPC  H14Y21989   7.979   6.057  13.743 -2.8429 -0.2202  2.4989
  179DOPC  C31521990   7.895   5.889  13.849 -0.1178  0.7470  0.3603
  179DOPC  H15X21991   7.917   5.780  13.854  1.6198  1.1192  1.5825
  179DOPC  H15Y21992   7.793   5.910  13.811  0.2145  2.4439  0.3460
  179DOPC  C31621993   7.904   5.949  13.989 -0.1040 -0.1585  0.2296
  179DOPC  H16X21994   8.008   5.944  14.029 -0.0665  2.3149  0.5963
  179DOPC  H16Y21995   7.875   6.056  13.973 -0.1521 -0.1870  0.1256
  179DOPC  C31721996   7.817   5.879  14.089  0.2300 -0.2079 -1.0519
  179DOPC  H17X21997   7.710   5.897  14.066  0.0279  0.8087  0.5505
  179DOPC  H17Y21998   7.833   5.770  14.076  1.0273 -0.4179  1.2078
  179DOPC  C31821999   7.863   5.924  14.229 -0.5035 -0.5756 -0.6746
  179DOPC  H18X22000   7.811   5.867  14.309  0.0328 -0.8219 -0.4946
  179DOPC  H18Y22001   7.969   5.894  14.241 -0.0774  0.9034 -0.6453
  179DOPC  H18Z22002   7.862   6.033  14.246  3.2109 -0.5830  0.3207
  180DOPC     N22003   6.530   3.345  12.388 -0.5137  0.3254 -0.2483
  180DOPC   C1222004   6.619   3.472  12.387  0.3263  0.1623  0.0908
  180DOPC  H12A22005   6.574   3.547  12.323 -1.9439 -0.6046  0.6818
  180DOPC  H12B22006   6.714   3.441  12.345  0.0384 -0.4983 -0.0858
  180DOPC   C1322007   6.389   3.372  12.430  0.0250 -0.1459 -0.2490
  180DOPC  H13A22008   6.389   3.408  12.532 -0.2864  0.3087 -0.4085
  180DOPC  H13B22009   6.349   3.448  12.365 -1.0410 -0.5813 -0.1374
  180DOPC  H13C22010   6.328   3.282  12.431  0.3955 -0.4135  1.5636
  180DOPC   C1422011   6.584   3.235  12.473  0.2033 -0.5473 -0.1669
  180DOPC  H14A22012   6.571   3.261  12.577  0.6489 -1.7266  0.2069
  180DOPC  H14B22013   6.542   3.137  12.459 -1.8390  0.2639  0.0470
  180DOPC  H14C22014   6.692   3.237  12.462  0.3340 -0.8232  0.9937
  180DOPC   C1522015   6.522   3.295  12.247 -0.3794  0.1684 -0.0723
  180DOPC  H15A22016   6.499   3.381  12.186  0.3843 -0.1304 -0.7978
  180DOPC  H15B22017   6.441   3.224  12.237 -1.2190  0.5108  3.1595
  180DOPC  H15C22018   6.611   3.244  12.212  0.6368  0.9648  1.2412
  180DOPC   C1122019   6.641   3.541  12.524 -0.0871  0.6802  0.4209
  180DOPC  H11A22020   6.709   3.480  12.587  0.2616  0.3131 -0.3021
  180DOPC  H11B22021   6.707   3.628  12.502  0.6379  0.2423  0.8132
  180DOPC     P22022   6.485   3.567  12.736 -0.3130  0.1196 -0.2395
  180DOPC   O1322023   6.341   3.584  12.750  0.6634 -0.2850  0.3779
  180DOPC   O1422024   6.577   3.654  12.817 -0.4041 -0.6415 -0.1988
  180DOPC   O1222025   6.523   3.590  12.585 -0.0626 -0.1675 -0.4112
  180DOPC   O1122026   6.520   3.414  12.761  0.0835 -0.4137  0.0860
  180DOPC    C122027   6.426   3.329  12.835  0.2304 -0.2921  0.1236
  180DOPC    HA22028   6.461   3.227  12.807  0.9732  0.5117 -2.1531
  180DOPC    HB22029   6.330   3.343  12.781  0.8284 -0.1272 -0.9267
  180DOPC    C222030   6.414   3.347  12.988 -0.2913  0.0796 -0.8039
  180DOPC    HS22031   6.325   3.412  13.004 -0.6607 -0.6144  0.0853
  180DOPC   O2122032   6.531   3.405  13.046  0.2216 -0.9141  0.7764
  180DOPC   C2122033   6.515   3.504  13.128 -0.3775  0.1059 -0.3399
  180DOPC   O2222034   6.408   3.561  13.155  0.0641 -0.1229 -0.2539
  180DOPC   C2222035   6.651   3.531  13.191  0.3144  0.6473  0.9099
  180DOPC   H2R22036   6.669   3.637  13.165  0.9831  1.0154  2.7149
  180DOPC   H2S22037   6.729   3.470  13.142  0.4278 -0.1085  1.9861
  180DOPC    C322038   6.380   3.211  13.061  0.1198  0.1696 -0.8314
  180DOPC    HX22039   6.461   3.136  13.046  0.1182  0.2907 -1.4727
  180DOPC    HY22040   6.295   3.168  13.003  0.5349 -1.0068 -0.5974
  180DOPC   O3122041   6.352   3.224  13.205 -0.3097 -0.5661 -0.2024
  180DOPC   C3122042   6.224   3.239  13.227 -0.0164 -0.3520 -0.3380
  180DOPC   O3222043   6.139   3.266  13.149  1.2063  0.6491 -0.0123
  180DOPC   C3222044   6.201   3.231  13.382 -0.1517  0.1277  0.2705
  180DOPC   H2X22045   6.188   3.124  13.409  1.3648 -0.2713 -0.4898
  180DOPC   H2Y22046   6.294   3.262  13.434 -0.0088  1.0726 -0.5011
  180DOPC   C2322047   6.650   3.503  13.345 -0.2215  0.0451  0.1852
  180DOPC   H3R22048   6.568   3.558  13.396 -0.2621 -0.9721  1.2755
  180DOPC   H3S22049   6.739   3.540  13.400  0.4113 -1.1557 -0.0007
  180DOPC   C2422050   6.625   3.350  13.378  0.3620  0.5777 -0.3612
  180DOPC   H4R22051   6.529   3.316  13.334 -1.5767  4.5326  0.3513
  180DOPC   H4S22052   6.605   3.344  13.487  1.7362 -1.7187 -0.1628
  180DOPC   C2522053   6.747   3.262  13.359  0.3093  0.6057  0.2206
  180DOPC   H5R22054   6.758   3.183  13.435 -0.2765 -3.0991 -3.2036
  180DOPC   H5S22055   6.825   3.334  13.389 -1.2180  1.4790  2.3816
  180DOPC   C2622056   6.753   3.205  13.219 -0.1642  0.8243 -0.1335
  180DOPC   H6R22057   6.860   3.198  13.187 -0.2217 -0.6960 -0.0848
  180DOPC   H6S22058   6.694   3.251  13.138  0.6443  0.7682 -0.7713
  180DOPC   C2722059   6.718   3.055  13.208 -0.1072 -0.7272 -0.0062
  180DOPC   H7R22060   6.615   3.040  13.249  0.3128  0.9792  1.8256
  180DOPC   H7S22061   6.777   3.002  13.286  0.0323 -0.0920  0.3255
  180DOPC   C2822062   6.756   2.996  13.071 -0.0984 -0.4898 -0.5666
  180DOPC   H8R22063   6.865   3.006  13.056  0.0910 -0.4210  0.7383
  180DOPC   H8S22064   6.697   3.047  12.991 -4.1288 -2.3962  0.9127
  180DOPC   C2922065   6.705   2.854  13.068 -0.4337  0.0038 -1.0314
  180DOPC   H9R22066   6.597   2.843  13.086 -0.3316  0.4112 -0.1300
  180DOPC  C21022067   6.783   2.745  13.047  0.0870  0.0783 -0.4445
  180DOPC  H10R22068   6.741   2.650  13.082  0.1471 -0.3395 -1.4698
  180DOPC  C21122069   6.929   2.734  13.021 -0.4312 -0.0283  0.0816
  180DOPC  H11R22070   6.988   2.816  13.068  0.0373 -0.2634 -0.0894
  180DOPC  H11S22071   6.955   2.741  12.913  2.0870 -1.6108  0.5015
  180DOPC  C21222072   6.997   2.600  13.083  0.2234  0.4431 -0.1521
  180DOPC  H12R22073   7.104   2.596  13.051  0.2379  2.1139 -0.3943
  180DOPC  H12S22074   6.947   2.513  13.036  0.0349  1.3674 -1.7167
  180DOPC  C21322075   6.999   2.583  13.237 -0.8721  0.4316 -0.6020
  180DOPC  H13R22076   6.899   2.583  13.285 -0.2359 -0.3818  0.7973
  180DOPC  H13S22077   7.056   2.668  13.281  0.0974  0.7666 -2.3970
  180DOPC  C21422078   7.071   2.457  13.287 -0.7018 -0.3471  0.1622
  180DOPC  H14R22079   7.019   2.369  13.244  0.8242 -1.5290  0.6574
  180DOPC  H14S22080   7.069   2.441  13.397 -0.8605  2.3119  0.6103
  180DOPC  C21522081   7.214   2.449  13.263 -0.1190 -0.0321 -0.2592
  180DOPC  H15R22082   7.257   2.534  13.320 -0.2369  1.5497 -2.4109
  180DOPC  H15S22083   7.242   2.462  13.156  2.1173  0.1800  0.3109
  180DOPC  C21622084   7.278   2.315  13.313 -0.5013  0.6411  0.0679
  180DOPC  H16R22085   7.217   2.233  13.270  2.1021 -1.1171 -0.5521
  180DOPC  H16S22086   7.268   2.314  13.424 -1.3910 -1.4282  0.0157
  180DOPC  C21722087   7.430   2.303  13.284  0.2558 -0.3049 -0.2610
  180DOPC  H17R22088   7.459   2.207  13.334 -2.3636 -1.2196 -0.3380
  180DOPC  H17S22089   7.483   2.387  13.333 -2.3601  1.0827  0.3638
  180DOPC  C21822090   7.463   2.285  13.139  0.5250  0.0070 -0.5819
  180DOPC  H18R22091   7.454   2.383  13.087  0.9353  0.6811  0.5624
  180DOPC  H18S22092   7.402   2.204  13.096  1.0024 -1.9088  2.0859
  180DOPC  H18T22093   7.571   2.266  13.117  0.3973  0.2145 -1.4151
  180DOPC   C3322094   6.084   3.314  13.435 -0.3403 -0.3699  0.1927
  180DOPC   H3X22095   5.997   3.271  13.382 -0.7534 -0.2366  0.7609
  180DOPC   H3Y22096   6.098   3.418  13.398  1.2868 -0.7082 -0.2536
  180DOPC   C3422097   6.076   3.313  13.583  0.6325 -0.5075 -0.8384
  180DOPC   H4X22098   6.080   3.210  13.623 -0.2276 -1.0686 -2.1146
  180DOPC   H4Y22099   5.977   3.352  13.617  2.0305  1.3945  1.3360
  180DOPC   C3522100   6.185   3.400  13.646 -0.3146 -0.4583  0.3387
  180DOPC   H5X22101   6.202   3.495  13.592 -2.1891 -1.4068 -2.1420
  180DOPC   H5Y22102   6.288   3.361  13.633  1.2594  3.4064 -0.1222
  180DOPC   C3622103   6.155   3.423  13.793  0.4997  0.0318  0.2281
  180DOPC   H6X22104   6.050   3.460  13.800 -0.6938 -3.0740  0.1063
  180DOPC   H6Y22105   6.155   3.322  13.840 -2.1461 -0.2536 -0.2212
  180DOPC   C3722106   6.256   3.513  13.871 -0.0865 -0.2363 -0.5357
  180DOPC   H7X22107   6.346   3.458  13.906  0.3822  0.1125 -1.1695
  180DOPC   H7Y22108   6.285   3.600  13.808 -0.7137  1.0789  0.9337
  180DOPC   C3822109   6.185   3.574  14.001  0.5594  0.6121 -0.0234
  180DOPC   H8X22110   6.080   3.593  13.971 -0.0595 -2.2961  0.0451
  180DOPC   H8Y22111   6.223   3.678  14.017  3.9987 -0.0898 -2.4960
  180DOPC   C3922112   6.190   3.474  14.115 -0.4616  0.2713 -0.0046
  180DOPC   H9X22113   6.200   3.370  14.082  3.3345  0.4805  0.0773
  180DOPC  C31022114   6.213   3.493  14.248  0.4066  0.2160 -0.2635
  180DOPC  H10X22115   6.215   3.406  14.316  1.5716  0.0056 -0.5539
  180DOPC  C31122116   6.218   3.630  14.314  0.0369  0.0234 -0.4135
  180DOPC  H11X22117   6.221   3.707  14.235 -0.1607  0.4654  0.0016
  180DOPC  H11Y22118   6.309   3.646  14.376  1.4768  1.2257 -2.7195
  180DOPC  C31222119   6.096   3.668  14.405  0.0033 -0.3541 -0.1850
  180DOPC  H12X22120   6.088   3.597  14.490  1.0090 -0.1081  0.1265
  180DOPC  H12Y22121   6.000   3.646  14.354  0.3647 -1.3351 -0.4599
  180DOPC  C31322122   6.106   3.813  14.452 -0.6906  0.6639  0.3106
  180DOPC  H13X22123   6.127   3.883  14.368 -2.1822  1.5637  0.6651
  180DOPC  H13Y22124   6.006   3.844  14.488 -0.9398  0.2034  0.0211
  180DOPC  C31422125   6.218   3.829  14.555  0.0632 -1.1473  0.4328
  180DOPC  H14X22126   6.192   3.770  14.646  3.5906 -1.7817  1.1964
  180DOPC  H14Y22127   6.313   3.781  14.523 -0.0007 -0.8056 -0.2902
  180DOPC  C31522128   6.248   3.969  14.598  0.0761  0.0603 -0.2481
  180DOPC  H15X22129   6.170   3.996  14.672  0.7168  0.7554  0.1934
  180DOPC  H15Y22130   6.241   4.043  14.515 -0.3305  0.2270 -0.0651
  180DOPC  C31622131   6.383   3.989  14.666 -0.3023  0.2347  0.4283
  180DOPC  H16X22132   6.465   3.941  14.608 -0.7971  1.2333 -1.1730
  180DOPC  H16Y22133   6.400   4.099  14.677 -1.2543  0.3700  0.5884
  180DOPC  C31722134   6.401   3.938  14.805  0.4301 -0.3326  0.2491
  180DOPC  H17X22135   6.361   4.010  14.879 -0.0195  0.7418 -0.9954
  180DOPC  H17Y22136   6.339   3.846  14.811 -0.0291  0.0535  1.5410
  180DOPC  C31822137   6.543   3.906  14.838  0.5588 -0.1378  1.3684
  180DOPC  H18X22138   6.585   3.828  14.770  1.3533  0.5401  1.0678
  180DOPC  H18Y22139   6.603   4.000  14.831 -2.3200  1.7165 -0.4221
  180DOPC  H18Z22140   6.554   3.880  14.945  0.2334  1.9482  1.9435
  181DOPC     N22141   1.973   3.004  12.476 -0.0671 -0.1756 -0.2281
  181DOPC   C1222142   1.980   3.116  12.578  0.5501 -0.4712 -0.3519
  181DOPC  H12A22143   1.901   3.187  12.559  1.7983  0.7129 -1.3184
  181DOPC  H12B22144   2.069   3.174  12.561  1.2170 -1.1662  0.6446
  181DOPC   C1322145   2.091   2.916  12.496  0.1811 -0.5368 -0.3762
  181DOPC  H13A22146   2.094   2.831  12.429 -1.1945 -0.9839  0.0727
  181DOPC  H13B22147   2.179   2.976  12.485 -1.1175  1.5219 -0.0975
  181DOPC  H13C22148   2.107   2.879  12.597  1.1463  0.1706 -0.2613
  181DOPC   C1422149   1.986   3.061  12.337  0.5178  0.1635  0.1410
  181DOPC  H14A22150   2.011   2.983  12.267  0.5540  1.1431 -0.9682
  181DOPC  H14B22151   1.894   3.099  12.295  2.2070  2.2712 -1.9215
  181DOPC  H14C22152   2.049   3.148  12.328 -1.4744  1.6915  0.0549
  181DOPC   C1522153   1.839   2.938  12.492 -0.9526 -0.6155  0.0707
  181DOPC  H15A22154   1.824   2.851  12.430  2.4270 -3.9631  3.3803
  181DOPC  H15B22155   1.766   3.013  12.466  0.0877  0.4908  0.2532
  181DOPC  H15C22156   1.824   2.914  12.597 -2.3633  0.5025  0.1597
  181DOPC   C1122157   1.977   3.090  12.730 -0.0694 -0.0559 -0.9214
  181DOPC  H11A22158   1.966   3.182  12.791  0.9609 -1.1659  1.0238
  181DOPC  H11B22159   1.882   3.036  12.751 -0.2123  0.1149 -1.1190
  181DOPC     P22160   2.224   3.099  12.787 -0.2087 -0.5898 -0.6151
  181DOPC   O1322161   2.220   3.216  12.700  0.2405 -0.1625  0.2495
  181DOPC   O1422162   2.342   3.013  12.777 -0.4781 -0.4808 -0.2621
  181DOPC   O1222163   2.090   3.016  12.773  0.5401  0.1726  0.0227
  181DOPC   O1122164   2.213   3.165  12.925  0.0311  0.0490 -0.1017
  181DOPC    C122165   2.199   3.100  13.049 -0.3670 -0.1577  0.7958
  181DOPC    HA22166   2.298   3.083  13.098 -0.7018 -1.7504  0.9721
  181DOPC    HB22167   2.155   2.999  13.041 -0.2712 -0.0684 -1.4617
  181DOPC    C222168   2.123   3.188  13.149 -0.7491  0.0910  0.3634
  181DOPC    HS22169   2.186   3.276  13.171 -0.8980  0.4462 -0.5804
  181DOPC   O2122170   2.097   3.104  13.261 -0.7287 -0.4549  0.3203
  181DOPC   C2122171   2.088   3.179  13.365  0.1241  0.2559 -0.3287
  181DOPC   O2222172   2.105   3.300  13.376 -0.9923  0.0448 -0.0205
  181DOPC   C2222173   2.038   3.096  13.481 -0.0446 -0.0526  0.1382
  181DOPC   H2R22174   2.115   3.021  13.510  0.5409  1.0552  1.6013
  181DOPC   H2S22175   1.952   3.036  13.445 -0.2984  0.2091  0.3042
  181DOPC    C322176   1.988   3.243  13.083  0.3823  0.5113 -0.3916
  181DOPC    HX22177   1.930   3.154  13.051 -0.5232  1.4285 -1.4029
  181DOPC    HY22178   1.997   3.290  12.982  1.0362 -3.2222 -2.2352
  181DOPC   O3122179   1.899   3.326  13.164  0.0164  0.3595 -0.4849
  181DOPC   C3122180   1.947   3.442  13.186 -0.2115  0.2046 -0.4078
  181DOPC   O3222181   2.053   3.480  13.141  0.7045 -0.1716  0.4299
  181DOPC   C3222182   1.857   3.517  13.284 -0.5517 -0.6612  0.3735
  181DOPC   H2X22183   1.751   3.507  13.253 -0.4185  1.3385 -0.9850
  181DOPC   H2Y22184   1.880   3.458  13.375  1.2802 -1.0079 -0.2680
  181DOPC   C2322185   1.998   3.189  13.607 -0.0763 -0.5023  0.5068
  181DOPC   H3R22186   1.943   3.118  13.673  1.2150 -0.7318  1.3738
  181DOPC   H3S22187   1.933   3.273  13.576 -1.4508 -2.5723 -2.8177
  181DOPC   C2422188   2.117   3.239  13.695 -0.1004 -0.1735 -0.0505
  181DOPC   H4R22189   2.086   3.306  13.779  0.8728  1.2750 -0.8040
  181DOPC   H4S22190   2.191   3.304  13.645 -0.2169 -0.6671 -0.8745
  181DOPC   C2522191   2.177   3.124  13.774  0.3488  0.4769 -0.5275
  181DOPC   H5R22192   2.195   3.037  13.708 -2.2313  0.7972 -1.7693
  181DOPC   H5S22193   2.095   3.083  13.837 -1.4793  2.2146 -1.6637
  181DOPC   C2622194   2.289   3.151  13.870  0.3421 -0.2246 -0.1152
  181DOPC   H6R22195   2.266   3.244  13.926 -0.5497 -0.1504 -0.5810
  181DOPC   H6S22196   2.379   3.171  13.807 -0.5806  0.6835 -1.2041
  181DOPC   C2722197   2.323   3.039  13.968  0.1713  0.4370  0.3772
  181DOPC   H7R22198   2.349   2.945  13.915 -1.6842 -0.5125  1.0779
  181DOPC   H7S22199   2.231   3.022  14.027 -0.0224  2.5155  0.7585
  181DOPC   C2822200   2.433   3.076  14.065  0.5392  0.0969  0.7429
  181DOPC   H8R22201   2.410   3.171  14.117  0.5584  1.4835 -1.6273
  181DOPC   H8S22202   2.521   3.088  13.998  0.1833 -0.9729  0.0621
  181DOPC   C2922203   2.455   2.967  14.169 -0.1583 -0.4261  0.7903
  181DOPC   H9R22204   2.529   2.894  14.132 -0.6599 -1.1476  1.1908
  181DOPC  C21022205   2.414   2.967  14.295 -0.1367  0.5961  0.5436
  181DOPC  H10R22206   2.436   2.883  14.362  1.1818 -0.0027 -0.5973
  181DOPC  C21122207   2.321   3.070  14.370  0.5471 -0.4824 -0.3547
  181DOPC  H11R22208   2.284   3.141  14.293 -0.8795  0.2098  0.9297
  181DOPC  H11S22209   2.391   3.130  14.432  0.0922  2.3811 -2.4130
  181DOPC  C21222210   2.215   2.994  14.460 -0.2655  0.1665 -0.3894
  181DOPC  H12R22211   2.195   2.892  14.419  2.1382 -0.9111  0.8732
  181DOPC  H12S22212   2.120   3.051  14.462 -0.3557  0.0310 -0.7229
  181DOPC  C21322213   2.279   2.985  14.604  0.2095 -0.0120 -0.1987
  181DOPC  H13R22214   2.256   3.083  14.651  0.6779  0.2393 -0.4884
  181DOPC  H13S22215   2.389   2.969  14.613  0.0588 -0.2358  1.5594
  181DOPC  C21422216   2.219   2.866  14.678  0.1466 -0.4777 -0.2398
  181DOPC  H14R22217   2.264   2.860  14.779  0.7737 -3.1018 -0.5935
  181DOPC  H14S22218   2.243   2.771  14.626 -1.9631 -2.0819  1.4973
  181DOPC  C21522219   2.069   2.876  14.697 -0.0123  0.0794 -0.1415
  181DOPC  H15R22220   2.030   2.896  14.594  0.1718 -1.2451 -0.4955
  181DOPC  H15S22221   2.035   2.964  14.756 -0.4126  1.2410 -2.0085
  181DOPC  C21622222   1.998   2.748  14.750  0.2006 -0.4622  0.2103
  181DOPC  H16R22223   2.018   2.671  14.673  2.1307  0.4201 -0.2476
  181DOPC  H16S22224   1.890   2.767  14.763  0.2031  0.4888 -0.9863
  181DOPC  C21722225   2.057   2.699  14.885 -0.4825  0.0845 -0.0192
  181DOPC  H17R22226   2.029   2.776  14.961 -2.1540 -0.5108  0.0068
  181DOPC  H17S22227   2.167   2.688  14.898 -0.5359 -3.1797 -1.4163
  181DOPC  C21822228   1.992   2.566  14.934 -0.1116 -0.3659  0.5561
  181DOPC  H18R22229   2.064   2.497  14.983 -1.1300 -1.6157  0.3485
  181DOPC  H18S22230   1.958   2.501  14.851 -0.3862 -0.6365  0.8750
  181DOPC  H18T22231   1.903   2.585  14.997 -0.8754 -0.2234 -0.5389
  181DOPC   C3322232   1.897   3.665  13.313  0.0152 -0.8813  0.7641
  181DOPC   H3X22233   1.853   3.726  13.231  1.4595  0.5299  0.9975
  181DOPC   H3Y22234   2.007   3.674  13.324 -0.0264 -0.8432  1.1855
  181DOPC   C3422235   1.826   3.718  13.438  0.2655 -0.0804  0.0064
  181DOPC   H4X22236   1.834   3.645  13.521  1.6117  0.7158  0.6138
  181DOPC   H4Y22237   1.718   3.736  13.419 -0.1934 -1.4735  1.1861
  181DOPC   C3522238   1.896   3.848  13.489  0.1509 -0.1632 -0.0504
  181DOPC   H5X22239   2.003   3.819  13.474  0.7154  1.8258 -0.0934
  181DOPC   H5Y22240   1.868   3.852  13.597 -0.4689 -1.6460 -0.1281
  181DOPC   C3622241   1.867   3.977  13.409  0.2934  0.3034 -0.5868
  181DOPC   H6X22242   1.962   4.034  13.401 -0.3084  1.6951  1.3630
  181DOPC   H6Y22243   1.839   3.934  13.311 -0.1652 -1.2713  0.1983
  181DOPC   C3722244   1.766   4.072  13.470 -0.3773 -0.0396  0.0837
  181DOPC   H7X22245   1.665   4.025  13.462 -0.3800  0.0066 -0.1672
  181DOPC   H7Y22246   1.790   4.075  13.578 -1.1299 -0.1710  0.2657
  181DOPC   C3822247   1.780   4.217  13.404  0.1104  0.3129  0.9922
  181DOPC   H8X22248   1.718   4.216  13.311  0.8917  2.1971  0.4003
  181DOPC   H8Y22249   1.888   4.222  13.380 -0.1543  1.4208 -0.0777
  181DOPC   C3922250   1.743   4.333  13.492  0.1222 -0.7945 -0.1284
  181DOPC   H9X22251   1.773   4.330  13.598  1.8246  2.2804 -0.3997
  181DOPC  C31022252   1.687   4.446  13.449  0.4867  0.3094 -0.6980
  181DOPC  H10X22253   1.658   4.521  13.524 -1.1678 -1.0626  0.0913
  181DOPC  C31122254   1.638   4.467  13.303  0.2174 -0.5017 -0.2163
  181DOPC  H11X22255   1.563   4.549  13.308  1.7415  0.9562 -0.3943
  181DOPC  H11Y22256   1.577   4.378  13.279  2.2697 -1.8626 -0.5677
  181DOPC  C31222257   1.748   4.511  13.200  0.7724 -0.0670 -1.4378
  181DOPC  H12X22258   1.821   4.428  13.210  1.2746  0.4742 -0.4563
  181DOPC  H12Y22259   1.803   4.596  13.245  1.4446 -0.1106 -2.1524
  181DOPC  C31322260   1.707   4.537  13.058 -0.2164 -0.0287 -0.2147
  181DOPC  H13X22261   1.620   4.605  13.069 -0.3729 -0.1418 -0.6994
  181DOPC  H13Y22262   1.792   4.585  13.005  0.1664  0.0151  0.4262
  181DOPC  C31422263   1.669   4.402  12.990 -0.4717 -0.3295 -0.1626
  181DOPC  H14X22264   1.733   4.318  13.026  1.1551  1.3771  1.0919
  181DOPC  H14Y22265   1.564   4.377  13.018  0.1428 -2.6430  0.3102
  181DOPC  C31522266   1.677   4.413  12.835 -0.0589  0.2289 -0.3191
  181DOPC  H15X22267   1.747   4.490  12.795  0.6531 -0.1205  0.2391
  181DOPC  H15Y22268   1.577   4.456  12.811 -0.7292 -1.7187 -1.2592
  181DOPC  C31622269   1.681   4.277  12.767  0.0793  0.2589  0.7409
  181DOPC  H16X22270   1.785   4.239  12.775 -1.1916 -3.6076  1.1745
  181DOPC  H16Y22271   1.628   4.199  12.826 -0.0281  0.9993  1.6417
  181DOPC  C31722272   1.646   4.281  12.614 -0.4935 -0.2645 -0.6113
  181DOPC  H17X22273   1.702   4.362  12.562  0.9933 -0.3565  0.7524
  181DOPC  H17Y22274   1.685   4.185  12.575 -1.5423 -0.6786 -0.6678
  181DOPC  C31822275   1.495   4.285  12.591  0.6282 -0.3388  0.1724
  181DOPC  H18X22276   1.470   4.277  12.483  0.6504  0.5818  0.0972
  181DOPC  H18Y22277   1.440   4.207  12.648  1.5788 -2.4454 -1.6258
  181DOPC  H18Z22278   1.440   4.379  12.608  0.0321 -0.6578  0.0323
  182DOPC     N22279   2.339   7.680  11.634  0.2030  0.1357  0.1913
  182DOPC   C1222280   2.454   7.679  11.723 -0.0979  0.1501 -0.1313
  182DOPC  H12A22281   2.480   7.777  11.761 -0.5404  0.5097 -0.7378
  182DOPC  H12B22282   2.548   7.663  11.672  0.4977  1.7070  0.4085
  182DOPC   C1322283   2.214   7.741  11.683 -0.2013 -0.2785  0.6174
  182DOPC  H13A22284   2.234   7.846  11.697 -0.0426 -0.3176  0.6765
  182DOPC  H13B22285   2.139   7.727  11.605  0.5904 -1.4306  0.0349
  182DOPC  H13C22286   2.181   7.698  11.776 -1.2419  3.6339  2.2565
  182DOPC   C1422287   2.298   7.542  11.592 -0.0438 -0.1718  0.2460
  182DOPC  H14A22288   2.254   7.489  11.676  0.2454 -1.3334 -0.3049
  182DOPC  H14B22289   2.218   7.545  11.520 -0.8144 -1.8997  0.9556
  182DOPC  H14C22290   2.378   7.482  11.550 -0.6001 -1.1282  0.5174
  182DOPC   C1522291   2.374   7.745  11.502  0.0343 -0.3585  0.9962
  182DOPC  H15A22292   2.451   7.688  11.452  0.5440  1.9085 -1.0047
  182DOPC  H15B22293   2.416   7.845  11.508  2.6629 -1.1040 -2.1260
  182DOPC  H15C22294   2.295   7.740  11.430  0.9645  0.0360 -0.0770
  182DOPC   C1122295   2.434   7.599  11.857 -0.1612 -0.5696  0.1894
  182DOPC  H11A22296   2.397   7.497  11.835 -2.3187  0.2526 -0.2316
  182DOPC  H11B22297   2.533   7.598  11.908  0.5677  0.1684 -1.1482
  182DOPC     P22298   2.240   7.595  12.037  0.4134 -0.6588 -0.3880
  182DOPC   O1322299   2.312   7.479  12.096 -0.1937  0.2288  0.3745
  182DOPC   O1422300   2.113   7.585  11.965  0.4047  0.2480  0.4947
  182DOPC   O1222301   2.338   7.672  11.937 -0.0929 -0.2784  0.2453
  182DOPC   O1122302   2.229   7.708  12.152  0.0559  0.2316  0.5411
  182DOPC    C122303   2.180   7.834  12.100 -0.1919 -0.2547 -0.0758
  182DOPC    HA22304   2.121   7.826  12.005  2.3550 -2.8287 -1.6139
  182DOPC    HB22305   2.264   7.899  12.066 -1.5298  0.3208 -2.5921
  182DOPC    C222306   2.103   7.914  12.212 -0.2280  0.1140  0.1943
  182DOPC    HS22307   2.058   8.007  12.170 -1.6463  0.5591  2.5260
  182DOPC   O2122308   2.194   7.943  12.323 -0.1123 -0.1545 -0.0526
  182DOPC   C2122309   2.158   8.035  12.400  0.2468  0.4018  0.5374
  182DOPC   O2222310   2.057   8.104  12.390  0.3076  0.2504  0.1944
  182DOPC   C2222311   2.255   8.046  12.518  0.2330  0.7974  0.2642
  182DOPC   H2R22312   2.355   8.073  12.479  0.1521  1.6951  0.6645
  182DOPC   H2S22313   2.263   7.944  12.561  2.1224  1.3035  1.2349
  182DOPC    C322314   1.989   7.815  12.259  0.3487  0.0169  0.4110
  182DOPC    HX22315   2.046   7.729  12.299  1.7611  0.4482 -0.5624
  182DOPC    HY22316   1.932   7.776  12.172  1.6030 -2.9957  0.8012
  182DOPC   O3122317   1.903   7.873  12.361  0.2376  0.3725  0.7680
  182DOPC   C3122318   1.838   7.776  12.432 -0.5202 -0.0200  0.0565
  182DOPC   O3222319   1.841   7.658  12.404  1.0481 -0.3858  0.1237
  182DOPC   C3222320   1.778   7.842  12.547  0.4591  0.4519  0.1873
  182DOPC   H2X22321   1.687   7.899  12.520 -0.4765 -0.6825  0.8356
  182DOPC   H2Y22322   1.729   7.760  12.603 -0.5173 -0.1641 -1.5016
  182DOPC   C2322323   2.208   8.152  12.625 -0.3153  0.5990  0.0842
  182DOPC   H3R22324   2.107   8.146  12.672 -1.2268  0.5043 -1.7588
  182DOPC   H3S22325   2.212   8.252  12.576  0.1365  1.1512  1.2083
  182DOPC   C2422326   2.308   8.154  12.742  0.2549 -0.1470 -0.2023
  182DOPC   H4R22327   2.415   8.134  12.722  1.0234  0.4637  2.7751
  182DOPC   H4S22328   2.265   8.095  12.827 -0.4316  0.3398 -0.2054
  182DOPC   C2522329   2.318   8.298  12.797  0.5548 -0.2035  0.7871
  182DOPC   H5R22330   2.215   8.338  12.809  0.7568  0.9318 -1.0349
  182DOPC   H5S22331   2.372   8.359  12.722  1.6523  0.1278  1.8132
  182DOPC   C2622332   2.412   8.312  12.929  0.0481 -0.3828  0.0135
  182DOPC   H6R22333   2.377   8.234  13.001 -0.0379  1.4987  2.1041
  182DOPC   H6S22334   2.394   8.409  12.979 -0.6850 -1.8286  2.7225
  182DOPC   C2722335   2.561   8.289  12.903  0.2429 -0.6769 -0.2009
  182DOPC   H7R22336   2.592   8.368  12.831  0.8795  0.1547  0.9650
  182DOPC   H7S22337   2.578   8.191  12.853 -0.2446 -0.3891 -0.9455
  182DOPC   C2822338   2.642   8.284  13.025 -0.0575  0.6558 -0.5037
  182DOPC   H8R22339   2.611   8.190  13.075 -0.1064 -0.3356 -2.3054
  182DOPC   H8S22340   2.617   8.371  13.090  1.1276  1.5055 -1.1456
  182DOPC   C2922341   2.792   8.302  13.001 -0.4963  0.2626  0.5347
  182DOPC   H9R22342   2.849   8.209  13.012 -1.5768 -0.6631 -1.2072
  182DOPC  C21022343   2.863   8.412  12.983 -0.0474  0.5088 -0.5831
  182DOPC  H10R22344   2.971   8.401  12.967 -0.4105 -2.0547 -1.8522
  182DOPC  C21122345   2.815   8.560  12.982 -0.5073  0.4338  0.4462
  182DOPC  H11R22346   2.716   8.574  13.030  0.7230 -0.0760  3.3266
  182DOPC  H11S22347   2.813   8.620  12.888 -3.7895  0.1886  0.2756
  182DOPC  C21222348   2.909   8.635  13.084  0.7187 -0.2743 -0.5615
  182DOPC  H12R22349   3.011   8.634  13.040  1.3908  2.6550  0.6582
  182DOPC  H12S22350   2.891   8.600  13.187 -0.9050  0.6923 -0.4692
  182DOPC  C21322351   2.875   8.784  13.086  0.4226 -0.5277 -0.1497
  182DOPC  H13R22352   2.775   8.796  13.132  0.4819 -1.2571  0.1785
  182DOPC  H13S22353   2.865   8.818  12.981  2.3153 -1.7035 -0.7561
  182DOPC  C21422354   2.990   8.862  13.156 -0.8510  0.2375 -0.8935
  182DOPC  H14R22355   2.968   8.970  13.164 -0.1849  0.3659 -0.7408
  182DOPC  H14S22356   3.079   8.849  13.090  0.1224 -3.3661  0.8646
  182DOPC  C21522357   3.051   8.809  13.293 -0.1151  0.1482  0.0134
  182DOPC  H15R22358   3.137   8.871  13.325 -0.6365  1.6156 -1.3046
  182DOPC  H15S22359   3.091   8.707  13.274  0.8409  0.1241  1.9423
  182DOPC  C21622360   2.944   8.808  13.410  0.2587  0.1766  0.6259
  182DOPC  H16R22361   2.857   8.746  13.380  0.8725 -0.0856 -0.6856
  182DOPC  H16S22362   2.904   8.912  13.408  0.4465  0.2460  0.3024
  182DOPC  C21722363   2.997   8.753  13.544 -0.1143  0.1324 -0.2625
  182DOPC  H17R22364   3.005   8.643  13.533  0.7695  0.2824 -1.2543
  182DOPC  H17S22365   2.920   8.763  13.624 -0.2958  1.6843 -0.6048
  182DOPC  C21822366   3.129   8.814  13.587 -0.2559 -0.2523  0.0454
  182DOPC  H18R22367   3.135   8.925  13.587  0.5777 -0.2935  0.4696
  182DOPC  H18S22368   3.211   8.791  13.516  0.7657  0.9761  0.7761
  182DOPC  H18T22369   3.163   8.780  13.687 -0.1524 -1.6861 -0.4544
  182DOPC   C3322370   1.876   7.923  12.629 -0.1455  0.0489  0.8253
  182DOPC   H3X22371   1.826   7.994  12.699 -0.4613  0.1208  0.5326
  182DOPC   H3Y22372   1.943   7.985  12.566  1.2416 -0.1993  2.0006
  182DOPC   C3422373   1.977   7.840  12.714 -0.6741  1.1725 -0.0194
  182DOPC   H4X22374   2.057   7.911  12.743 -1.1348  0.8543  2.1914
  182DOPC   H4Y22375   2.026   7.766  12.647  1.8095  1.9067  0.8825
  182DOPC   C3522376   1.915   7.767  12.838 -0.4728  0.0701  0.0100
  182DOPC   H5X22377   1.836   7.695  12.809 -1.4686  0.9271  0.4911
  182DOPC   H5Y22378   1.864   7.836  12.909  0.0895 -3.4026  4.1826
  182DOPC   C3622379   2.017   7.680  12.919  0.0174 -0.0288  0.1044
  182DOPC   H6X22380   1.954   7.612  12.982  1.8005  0.8875  3.0758
  182DOPC   H6Y22381   2.075   7.631  12.838 -0.4847 -0.3551 -0.0669
  182DOPC   C3722382   2.124   7.749  13.000  0.1746 -0.6398  0.2969
  182DOPC   H7X22383   2.197   7.677  13.042 -1.2350 -1.5007  1.3500
  182DOPC   H7Y22384   2.176   7.814  12.926 -2.2074  0.5234 -0.4520
  182DOPC   C3822385   2.064   7.833  13.115  0.9861 -0.5334 -0.2695
  182DOPC   H8X22386   1.983   7.895  13.073 -0.3011  0.8255  3.7614
  182DOPC   H8Y22387   2.139   7.910  13.143  0.4462 -0.1651  0.1633
  182DOPC   C3922388   1.999   7.751  13.226 -0.7617  0.8781  0.1195
  182DOPC   H9X22389   1.975   7.646  13.203  2.9682  0.5559 -3.5469
  182DOPC  C31022390   1.965   7.808  13.341 -0.3144  0.4904  0.4936
  182DOPC  H10X22391   1.926   7.751  13.427 -1.2514  2.2432  1.2817
  182DOPC  C31122392   1.983   7.953  13.366  0.0324 -0.6208 -0.8287
  182DOPC  H11X22393   1.912   8.021  13.315  0.9706 -0.4989 -2.0054
  182DOPC  H11Y22394   2.080   7.990  13.327 -1.0010  1.0023 -1.9528
  182DOPC  C31222395   1.989   7.976  13.522  0.4495 -0.0773 -0.0000
  182DOPC  H12X22396   2.015   8.083  13.543 -0.9636  0.4285 -0.7096
  182DOPC  H12Y22397   2.061   7.910  13.575 -0.6546 -0.4852  1.0198
  182DOPC  C31322398   1.848   7.960  13.585 -0.7920 -0.6381  0.0085
  182DOPC  H13X22399   1.793   8.045  13.541  2.7561  1.7606 -0.2754
  182DOPC  H13Y22400   1.800   7.861  13.567 -0.9577 -0.9840  2.0106
  182DOPC  C31422401   1.851   7.978  13.737 -0.3222 -0.1093  0.6227
  182DOPC  H14X22402   1.909   7.891  13.773  0.3943 -0.5348 -1.4147
  182DOPC  H14Y22403   1.895   8.073  13.775  0.8345  0.2436 -1.4316
  182DOPC  C31522404   1.713   7.964  13.804  0.0345  0.2291  0.4349
  182DOPC  H15X22405   1.688   7.856  13.794 -1.9582  0.7313 -0.7152
  182DOPC  H15Y22406   1.646   8.026  13.740  1.1156  0.8212 -0.1441
  182DOPC  C31622407   1.712   8.014  13.946  0.4493 -0.0662 -0.0352
  182DOPC  H16X22408   1.742   8.121  13.947 -1.2376  0.4306  0.2333
  182DOPC  H16Y22409   1.607   8.004  13.979  0.1982  2.6329  0.2038
  182DOPC  C31722410   1.804   7.944  14.048 -0.1962 -0.2488  0.2225
  182DOPC  H17X22411   1.801   7.835  14.025 -1.0300  0.1272 -1.6566
  182DOPC  H17Y22412   1.908   7.976  14.025 -0.0529 -1.7683 -1.5368
  182DOPC  C31822413   1.777   7.987  14.196 -1.1778 -0.8973 -0.4039
  182DOPC  H18X22414   1.815   8.091  14.200 -1.2280 -0.6131 -3.9293
  182DOPC  H18Y22415   1.671   7.994  14.227 -0.9334 -1.9492  0.7270
  182DOPC  H18Z22416   1.831   7.917  14.264 -0.6200 -0.7440 -0.6826
  183DOPC     N22417   6.743   3.977  12.593 -0.3049 -0.0587 -0.0130
  183DOPC   C1222418   6.866   3.893  12.621 -0.4323  0.3730  0.2359
  183DOPC  H12A22419   6.914   3.858  12.531  1.8837  2.2715  0.6132
  183DOPC  H12B22420   6.839   3.800  12.668 -1.9367 -1.0502 -3.1314
  183DOPC   C1322421   6.784   4.097  12.510 -0.0637  0.5429  0.7206
  183DOPC  H13A22422   6.707   4.169  12.485  0.3140  0.8727  0.4834
  183DOPC  H13B22423   6.852   4.154  12.572  0.0092  0.5462  0.6380
  183DOPC  H13C22424   6.852   4.071  12.430  1.8384  0.9861  2.1088
  183DOPC   C1422425   6.685   4.040  12.718 -0.6650  0.5899  0.5123
  183DOPC  H14A22426   6.752   4.118  12.753 -2.5829  2.6637 -0.1980
  183DOPC  H14B22427   6.602   4.097  12.678  0.6460  1.1230 -1.6362
  183DOPC  H14C22428   6.661   3.971  12.797  0.7409 -0.8088 -0.2181
  183DOPC   C1522429   6.633   3.907  12.516  0.0480  0.1485  0.1877
  183DOPC  H15A22430   6.675   3.863  12.427 -0.0227  0.5381 -0.0389
  183DOPC  H15B22431   6.560   3.978  12.480  0.8094  0.4916 -0.7270
  183DOPC  H15C22432   6.584   3.829  12.573  0.6871  0.0909  0.6666
  183DOPC   C1122433   6.981   3.956  12.711 -0.0057  1.0575  0.8806
  183DOPC  H11A22434   6.927   3.978  12.805  1.7183  0.5149  2.0412
  183DOPC  H11B22435   7.061   3.887  12.745 -0.3528  0.5732  0.7342
  183DOPC     P22436   7.146   4.070  12.532  0.3959  0.3435 -0.4334
  183DOPC   O1322437   7.104   4.174  12.435 -0.1718 -0.1731 -0.2373
  183DOPC   O1422438   7.153   3.935  12.478 -0.0475 -0.7425 -0.4228
  183DOPC   O1222439   7.032   4.075  12.645 -0.0680 -0.3479 -0.8098
  183DOPC   O1122440   7.273   4.110  12.615 -0.2383 -0.6143  0.5293
  183DOPC    C122441   7.268   4.239  12.688 -0.2149 -0.7607 -0.3457
  183DOPC    HA22442   7.168   4.287  12.696 -0.5742 -1.0610 -2.4096
  183DOPC    HB22443   7.329   4.310  12.628 -1.3013 -0.1180 -0.7186
  183DOPC    C222444   7.341   4.244  12.824  0.4562  0.1737  0.2872
  183DOPC    HS22445   7.357   4.353  12.841 -1.2713  0.6770 -1.1160
  183DOPC   O2122446   7.462   4.168  12.810 -0.4124 -0.4578  0.0668
  183DOPC   C2122447   7.569   4.233  12.765 -0.1498  0.4760  1.0010
  183DOPC   O2222448   7.585   4.352  12.743  0.6188  0.1542  0.1886
  183DOPC   C2222449   7.689   4.138  12.755 -0.7078 -0.4333  0.7789
  183DOPC   H2R22450   7.704   4.103  12.651 -0.7575 -0.3258  0.7350
  183DOPC   H2S22451   7.680   4.055  12.828 -0.4784  0.4862  1.8974
  183DOPC    C322452   7.252   4.183  12.932 -0.2177  0.3362  0.0094
  183DOPC    HX22453   7.218   4.080  12.907  0.2046  0.3327 -0.5835
  183DOPC    HY22454   7.152   4.231  12.930 -0.0920  0.5818 -1.0918
  183DOPC   O3122455   7.323   4.181  13.060  0.3128  0.1503  0.7930
  183DOPC   C3122456   7.379   4.065  13.095 -0.2676  0.6771 -0.3033
  183DOPC   O3222457   7.366   3.956  13.041 -0.6011  0.0866 -0.4021
  183DOPC   C3222458   7.469   4.096  13.214 -0.7515  0.0755 -0.5275
  183DOPC   H2X22459   7.530   4.185  13.190  1.7787 -1.3226  0.4056
  183DOPC   H2Y22460   7.407   4.132  13.300  1.7437 -1.9520  2.3190
  183DOPC   C2322461   7.827   4.200  12.800  0.3425  0.7511 -0.2524
  183DOPC   H3R22462   7.837   4.296  12.744  3.4692 -0.2671 -1.6792
  183DOPC   H3S22463   7.900   4.125  12.763  0.4873  0.9630 -0.4007
  183DOPC   C2422464   7.832   4.210  12.956 -0.0744 -0.2811  0.3662
  183DOPC   H4R22465   7.806   4.111  13.001  0.7906 -0.6647  0.0440
  183DOPC   H4S22466   7.743   4.269  12.986 -0.0003 -0.3586  0.7455
  183DOPC   C2522467   7.951   4.277  13.016 -0.1211 -0.3192  0.0704
  183DOPC   H5R22468   8.045   4.230  12.980 -1.0693 -0.9592 -1.6704
  183DOPC   H5S22469   7.953   4.271  13.127  0.1740  1.5166  0.1927
  183DOPC   C2622470   7.966   4.427  12.986 -0.9844 -0.3429 -0.6096
  183DOPC   H6R22471   7.879   4.489  13.018 -0.6842  0.4073 -1.2262
  183DOPC   H6S22472   7.967   4.431  12.875  0.9823 -0.3749 -0.6134
  183DOPC   C2722473   8.091   4.486  13.051  0.4029  0.0757 -0.3953
  183DOPC   H7R22474   8.172   4.416  13.020 -1.2085 -0.7600 -3.0509
  183DOPC   H7S22475   8.083   4.484  13.162 -1.3264  2.8700 -0.3610
  183DOPC   C2822476   8.126   4.628  13.000  0.4157 -0.5051  0.0383
  183DOPC   H8R22477   8.139   4.626  12.889  2.4619 -3.7925  0.1850
  183DOPC   H8S22478   8.230   4.649  13.034 -0.0828  0.1791  1.1760
  183DOPC   C2922479   8.031   4.738  13.037  0.3386 -0.6207 -0.6101
  183DOPC   H9R22480   7.943   4.746  12.971  0.6341  0.0037 -0.9443
  183DOPC  C21022481   8.032   4.831  13.139 -0.0713  0.0842 -0.0535
  183DOPC  H10R22482   7.950   4.899  13.163  0.6332  0.2108  2.2733
  183DOPC  C21122483   8.152   4.841  13.225  0.3880 -0.0476 -0.1447
  183DOPC  H11R22484   8.229   4.781  13.172  0.5216  0.6304 -0.7300
  183DOPC  H11S22485   8.136   4.795  13.325  1.2208 -0.8786 -0.3866
  183DOPC  C21222486   8.204   4.992  13.238 -0.4356  0.4001  0.5322
  183DOPC  H12R22487   8.118   5.057  13.265 -0.3739 -0.0937  1.9941
  183DOPC  H12S22488   8.230   5.028  13.136 -1.2663 -0.1379  0.1181
  183DOPC  C21322489   8.326   5.018  13.326 -0.4254 -0.2668 -0.7112
  183DOPC  H13R22490   8.289   5.036  13.430 -0.9955  0.1240 -0.9718
  183DOPC  H13S22491   8.366   5.119  13.303  0.4071 -1.0479 -2.9182
  183DOPC  C21422492   8.427   4.903  13.337  0.8016  0.2542  0.6190
  183DOPC  H14R22493   8.465   4.881  13.235  0.2057  2.9474 -0.2719
  183DOPC  H14S22494   8.364   4.819  13.375 -1.8056  1.9386  0.2904
  183DOPC  C21522495   8.541   4.920  13.429  0.2634 -0.2719  0.4408
  183DOPC  H15R22496   8.489   4.960  13.519  1.5163  0.6601  0.7770
  183DOPC  H15S22497   8.617   4.992  13.391  2.6102 -0.7125  3.7460
  183DOPC  C21622498   8.605   4.786  13.470 -0.3292 -0.3277 -0.0255
  183DOPC  H16R22499   8.639   4.734  13.378  2.0124  1.5628 -0.3271
  183DOPC  H16S22500   8.540   4.711  13.519  1.1591  0.3012  3.1677
  183DOPC  C21722501   8.717   4.808  13.577 -0.1688 -0.1901  0.2813
  183DOPC  H17R22502   8.687   4.780  13.680  1.4091  1.2862  1.1887
  183DOPC  H17S22503   8.742   4.916  13.581 -0.2049  0.1350 -3.7824
  183DOPC  C21822504   8.837   4.733  13.532  0.2852  0.6419  0.0035
  183DOPC  H18R22505   8.816   4.628  13.500  1.1185  0.5504 -0.2725
  183DOPC  H18S22506   8.908   4.736  13.617 -1.7659  0.2122  1.8255
  183DOPC  H18T22507   8.894   4.774  13.446  0.4607 -1.3670 -0.8972
  183DOPC   C3322508   7.566   3.986  13.257  0.4030  0.3273  0.0100
  183DOPC   H3X22509   7.652   3.971  13.189  1.3281 -1.6080  1.5166
  183DOPC   H3Y22510   7.511   3.890  13.246  0.8468 -0.1042  1.3669
  183DOPC   C3422511   7.616   4.008  13.397  0.2805  0.7510  0.1851
  183DOPC   H4X22512   7.542   4.036  13.475  2.2122  3.7406  1.0925
  183DOPC   H4Y22513   7.700   4.079  13.389  0.8272  0.1434  0.4047
  183DOPC   C3522514   7.676   3.871  13.441 -0.0533 -0.7959 -1.1765
  183DOPC   H5X22515   7.751   3.845  13.364  0.8378 -0.2866 -0.4972
  183DOPC   H5Y22516   7.602   3.788  13.439 -0.4081 -0.4750 -1.8576
  183DOPC   C3622517   7.764   3.873  13.573  0.0437  0.0461 -0.2722
  183DOPC   H6X22518   7.830   3.785  13.559  0.3546  0.5730 -2.4962
  183DOPC   H6Y22519   7.823   3.968  13.572 -1.5983  1.1432  1.2581
  183DOPC   C3722520   7.678   3.862  13.703 -0.4380  0.1092  0.4794
  183DOPC   H7X22521   7.741   3.893  13.789 -0.3496  0.0607  0.4332
  183DOPC   H7Y22522   7.600   3.939  13.687 -1.3911 -0.5962  1.5815
  183DOPC   C3822523   7.622   3.727  13.734  0.0531 -0.0054  0.5947
  183DOPC   H8X22524   7.557   3.693  13.651  1.0235  1.2290 -0.7109
  183DOPC   H8Y22525   7.552   3.725  13.820 -0.3471  0.0711  0.2714
  183DOPC   C3922526   7.726   3.623  13.752 -0.4234 -0.9064  1.0331
  183DOPC   H9X22527   7.767   3.599  13.653  0.9894 -2.6179  1.9825
  183DOPC  C31022528   7.760   3.559  13.864 -0.4470  0.4303  0.1361
  183DOPC  H10X22529   7.825   3.471  13.863 -0.5062  0.3781  0.4910
  183DOPC  C31122530   7.697   3.592  14.001 -0.0585  0.3888  0.2256
  183DOPC  H11X22531   7.604   3.531  14.005  1.2617 -1.8545 -1.3867
  183DOPC  H11Y22532   7.676   3.701  14.005 -0.6767  0.2629  0.4132
  183DOPC  C31222533   7.773   3.558  14.128  0.7761  0.0098 -0.2866
  183DOPC  H12X22534   7.794   3.449  14.122 -0.3924 -0.2792  0.4854
  183DOPC  H12Y22535   7.717   3.578  14.222  1.1350 -1.1796  0.2082
  183DOPC  C31322536   7.900   3.638  14.146 -0.3229 -0.5992 -0.4104
  183DOPC  H13X22537   7.946   3.593  14.237 -1.9818 -4.0644 -1.1296
  183DOPC  H13Y22538   7.971   3.612  14.064 -0.5791 -0.5890 -0.6364
  183DOPC  C31422539   7.893   3.788  14.150  0.3237 -0.5381 -0.7296
  183DOPC  H14X22540   7.859   3.835  14.055  0.4569  2.1951  0.4699
  183DOPC  H14Y22541   7.812   3.808  14.223  2.0200 -1.4778  1.5211
  183DOPC  C31522542   8.020   3.861  14.198  0.6109  0.0701  0.4885
  183DOPC  H15X22543   8.099   3.876  14.122 -0.2725  0.1077 -0.4331
  183DOPC  H15Y22544   8.068   3.798  14.277 -0.6458 -1.5519 -0.0003
  183DOPC  C31622545   7.991   4.001  14.252  0.4394  0.1752  0.2773
  183DOPC  H16X22546   7.961   4.056  14.161 -0.0024 -0.3667  0.0850
  183DOPC  H16Y22547   7.906   4.005  14.323 -0.0590 -1.0570 -0.2114
  183DOPC  C31722548   8.113   4.062  14.325 -0.4617 -0.0991  0.4142
  183DOPC  H17X22549   8.142   4.006  14.417  0.3442 -1.9875 -0.9272
  183DOPC  H17Y22550   8.195   4.066  14.250 -2.6463  1.1105 -2.0514
  183DOPC  C31822551   8.082   4.202  14.366  0.6210 -0.2191 -0.2457
  183DOPC  H18X22552   7.984   4.222  14.414  0.7591  2.8978 -1.0221
  183DOPC  H18Y22553   8.169   4.229  14.431 -0.3736 -1.3230  1.6299
  183DOPC  H18Z22554   8.082   4.265  14.274 -3.2867  0.6066  0.1520
  184DOPC     N22555   6.333   0.469  12.383  0.0034  0.6368 -0.4700
  184DOPC   C1222556   6.249   0.348  12.430  0.3266 -1.1191 -0.1262
  184DOPC  H12A22557   6.256   0.343  12.538  0.9810  1.2192 -0.0016
  184DOPC  H12B22558   6.300   0.258  12.401 -1.9390 -2.7806  0.7628
  184DOPC   C1322559   6.330   0.479  12.237 -0.0240 -0.0344  0.2042
  184DOPC  H13A22560   6.351   0.383  12.191 -2.4487 -0.5997  0.1200
  184DOPC  H13B22561   6.227   0.496  12.211  0.4146  4.4204  0.6318
  184DOPC  H13C22562   6.392   0.558  12.196 -0.7178  0.1400 -0.5303
  184DOPC   C1422563   6.482   0.443  12.415  0.0834 -0.2453 -0.3042
  184DOPC  H14A22564   6.535   0.531  12.381 -2.3160  1.7300  0.7918
  184DOPC  H14B22565   6.500   0.440  12.521  0.3262  1.1832 -0.2818
  184DOPC  H14C22566   6.517   0.352  12.367 -0.7347 -0.7210 -0.0158
  184DOPC   C1522567   6.290   0.592  12.456 -0.1633 -0.3965 -0.4916
  184DOPC  H15A22568   6.359   0.674  12.448 -1.6448  1.2255  1.8400
  184DOPC  H15B22569   6.280   0.571  12.561  1.4753  2.0711  0.2396
  184DOPC  H15C22570   6.197   0.631  12.416 -0.9166 -0.7241  0.8764
  184DOPC   C1122571   6.107   0.330  12.379 -1.1223  0.0890 -0.2658
  184DOPC  H11A22572   6.095   0.314  12.270  0.2668  0.7746 -0.5424
  184DOPC  H11B22573   6.072   0.234  12.422 -0.4723 -0.7088 -1.4576
  184DOPC     P22574   5.941   0.441  12.554  0.0526  0.2459 -0.0352
  184DOPC   O1322575   5.897   0.307  12.595  0.0642  0.2192 -0.4670
  184DOPC   O1422576   5.837   0.540  12.539  0.1279  0.1435 -0.2967
  184DOPC   O1222577   6.010   0.427  12.415 -0.4786 -0.5031 -0.7348
  184DOPC   O1122578   6.059   0.494  12.639 -0.0586 -0.3577 -0.5755
  184DOPC    C122579   6.019   0.558  12.762  0.1999 -0.2643 -0.2436
  184DOPC    HA22580   5.927   0.517  12.810 -0.6145  2.0066  0.2301
  184DOPC    HB22581   5.981   0.660  12.739 -2.1838 -0.9473  0.3038
  184DOPC    C222582   6.131   0.553  12.872  0.2229 -0.3604  0.0238
  184DOPC    HS22583   6.203   0.628  12.831  0.0325 -1.4903 -2.6319
  184DOPC   O2122584   6.202   0.424  12.871  0.1585 -0.6048  0.3970
  184DOPC   C2122585   6.326   0.431  12.917  0.0630 -0.0147  0.0669
  184DOPC   O2222586   6.391   0.534  12.933  0.4266  0.6438 -0.0077
  184DOPC   C2222587   6.390   0.290  12.921  0.1933 -0.1095 -0.4935
  184DOPC   H2R22588   6.493   0.311  12.959  0.5139 -0.2197 -1.2736
  184DOPC   H2S22589   6.406   0.256  12.816 -0.0010  1.2869 -0.9872
  184DOPC    C322590   6.082   0.576  13.016 -0.5978 -0.5230 -0.3827
  184DOPC    HX22591   6.164   0.602  13.087  0.3694  1.7417 -2.1728
  184DOPC    HY22592   6.046   0.474  13.042 -1.0173 -0.4370 -0.6196
  184DOPC   O3122593   5.979   0.674  13.016  0.3457  0.1276 -0.2106
  184DOPC   C3122594   6.017   0.797  13.016  0.1865 -0.6627  0.1632
  184DOPC   O3222595   6.130   0.843  13.009  0.0761 -0.0931  0.2908
  184DOPC   C3222596   5.897   0.884  13.037  0.0343 -0.2021 -0.4626
  184DOPC   H2X22597   5.808   0.847  12.982  1.6412 -0.5950 -2.9713
  184DOPC   H2Y22598   5.875   0.881  13.146  2.8770 -2.0048  0.1699
  184DOPC   C2322599   6.301   0.180  12.988  0.2591 -0.6574 -0.0269
  184DOPC   H3R22600   6.309   0.082  12.937 -0.0472  1.0233 -3.6300
  184DOPC   H3S22601   6.195   0.212  12.983  0.3977 -0.3793 -2.0438
  184DOPC   C2422602   6.332   0.172  13.138  0.0541 -0.1659 -0.0342
  184DOPC   H4R22603   6.426   0.224  13.166  0.0446  0.0707 -0.4303
  184DOPC   H4S22604   6.350   0.065  13.162 -1.5601 -0.4801 -0.1220
  184DOPC   C2522605   6.215   0.223  13.223 -0.1322 -0.2762 -0.1442
  184DOPC   H5R22606   6.203   0.161  13.314  1.9784  1.5505  1.4908
  184DOPC   H5S22607   6.117   0.231  13.170 -0.3369  1.7328  0.4387
  184DOPC   C2622608   6.235   0.366  13.286 -0.0308  0.3286  0.0361
  184DOPC   H6R22609   6.244   0.445  13.208 -0.6704  0.8313  0.4695
  184DOPC   H6S22610   6.332   0.362  13.340 -0.7540  1.0917  1.4254
  184DOPC   C2722611   6.131   0.395  13.390 -0.1018 -0.4201 -0.1034
  184DOPC   H7R22612   6.130   0.326  13.477 -1.5053  0.4454  0.6038
  184DOPC   H7S22613   6.028   0.385  13.350 -1.2611  1.5599  2.1357
  184DOPC   C2822614   6.153   0.538  13.439 -1.2906  0.1437  0.4438
  184DOPC   H8R22615   6.110   0.599  13.356 -0.4100  0.3746  0.1364
  184DOPC   H8S22616   6.261   0.562  13.449 -1.1097 -0.3804 -0.2308
  184DOPC   C2922617   6.083   0.572  13.566  0.1035  0.1646  0.5481
  184DOPC   H9R22618   5.978   0.595  13.544  0.5093  0.4399 -1.2503
  184DOPC  C21022619   6.129   0.575  13.691 -0.6647  0.1848 -1.0248
  184DOPC  H10R22620   6.065   0.597  13.778 -0.3669  0.0708 -0.7744
  184DOPC  C21122621   6.266   0.531  13.741 -0.9115  0.2346  0.3039
  184DOPC  H11R22622   6.330   0.619  13.765 -1.9572  0.5642  2.0559
  184DOPC  H11S22623   6.326   0.476  13.666  0.7062  1.4136  0.6797
  184DOPC  C21222624   6.256   0.445  13.871 -0.0303  0.6509  0.3266
  184DOPC  H12R22625   6.202   0.504  13.949  0.8896 -1.7587  2.9517
  184DOPC  H12S22626   6.362   0.439  13.902  0.2925  0.7233 -0.7551
  184DOPC  C21322627   6.206   0.300  13.856 -0.6599 -0.1814 -0.2576
  184DOPC  H13R22628   6.299   0.260  13.811  0.0522  1.8738 -0.7658
  184DOPC  H13S22629   6.131   0.295  13.774  0.9690 -1.3712 -1.7429
  184DOPC  C21422630   6.162   0.247  13.993 -0.2104 -0.3722  0.1220
  184DOPC  H14R22631   6.113   0.149  13.981  1.7734 -2.2587  4.9966
  184DOPC  H14S22632   6.096   0.325  14.036  0.8957  0.3730  0.5339
  184DOPC  C21522633   6.273   0.236  14.103  0.5915 -0.6493  0.6437
  184DOPC  H15R22634   6.349   0.317  14.095  1.3765 -1.0217  3.4111
  184DOPC  H15S22635   6.311   0.132  14.096  1.5332 -0.5128  2.9152
  184DOPC  C21622636   6.221   0.261  14.247 -0.3991  0.2889  0.3857
  184DOPC  H16R22637   6.122   0.217  14.271 -0.6738  0.6631 -0.0527
  184DOPC  H16S22638   6.209   0.371  14.256 -1.2199  0.3085 -0.7947
  184DOPC  C21722639   6.333   0.219  14.343 -0.1729 -0.4220 -0.2136
  184DOPC  H17R22640   6.432   0.264  14.321 -0.4793 -0.3540 -1.5061
  184DOPC  H17S22641   6.348   0.109  14.341  0.5336 -0.3903  1.5253
  184DOPC  C21822642   6.297   0.246  14.488  1.0722  0.3836 -0.4880
  184DOPC  H18R22643   6.263   0.351  14.497 -0.4502 -0.2285  2.0544
  184DOPC  H18S22644   6.387   0.233  14.552  0.0089 -0.5092  0.8883
  184DOPC  H18T22645   6.215   0.180  14.526 -0.9716  2.7562 -0.5398
  184DOPC   C3322646   5.930   1.036  13.018  0.3728 -0.3082  0.0237
  184DOPC   H3X22647   5.958   1.066  12.915  2.0855 -1.3932  0.1316
  184DOPC   H3Y22648   6.017   1.065  13.080  1.4660 -3.0084 -0.1215
  184DOPC   C3422649   5.814   1.141  13.053  0.1165  0.9877 -0.1410
  184DOPC   H4X22650   5.742   1.142  12.969 -0.6543  3.2078  0.4625
  184DOPC   H4Y22651   5.866   1.238  13.068  1.3480  0.2168  0.7775
  184DOPC   C3522652   5.741   1.100  13.186  0.3166 -0.3162 -0.0853
  184DOPC   H5X22653   5.821   1.106  13.263  1.1867  1.2239 -1.0537
  184DOPC   H5Y22654   5.702   0.997  13.176 -1.2793  0.3668 -1.3616
  184DOPC   C3622655   5.621   1.193  13.225  0.7332 -0.0510  0.1997
  184DOPC   H6X22656   5.648   1.301  13.227 -0.1102  0.2239 -1.1607
  184DOPC   H6Y22657   5.544   1.190  13.144  1.6788 -1.1135 -0.6950
  184DOPC   C3722658   5.554   1.163  13.367 -0.0630  0.1671  0.2425
  184DOPC   H7X22659   5.471   1.090  13.362 -1.4823  1.7780 -0.5056
  184DOPC   H7Y22660   5.642   1.128  13.425  1.2673  1.9859 -0.5745
  184DOPC   C3822661   5.487   1.297  13.417 -0.2894 -0.4082 -0.1308
  184DOPC   H8X22662   5.436   1.261  13.509 -0.6774  0.3971 -0.0258
  184DOPC   H8Y22663   5.408   1.324  13.344 -0.9825  1.3232  1.1913
  184DOPC   C3922664   5.573   1.418  13.435  0.5239 -0.2557  0.1058
  184DOPC   H9X22665   5.674   1.402  13.474  1.1534  1.8836 -0.5147
  184DOPC  C31022666   5.533   1.546  13.423 -0.6855 -0.4290 -0.1905
  184DOPC  H10X22667   5.612   1.622  13.430  0.4731 -1.4741 -1.5174
  184DOPC  C31122668   5.388   1.585  13.391  0.1672 -0.1798 -1.1723
  184DOPC  H11X22669   5.316   1.551  13.468  3.2691 -1.1926  1.4786
  184DOPC  H11Y22670   5.355   1.528  13.301 -1.2435 -0.4154 -0.5325
  184DOPC  C31222671   5.371   1.740  13.371  0.3814 -0.9532  0.1143
  184DOPC  H12X22672   5.426   1.799  13.447  1.2433 -0.5184 -0.8110
  184DOPC  H12Y22673   5.265   1.764  13.394  0.9118  0.6697  1.0486
  184DOPC  C31322674   5.412   1.782  13.228 -0.5354  1.2275  0.3639
  184DOPC  H13X22675   5.519   1.756  13.211 -0.7361  2.0722 -2.7138
  184DOPC  H13Y22676   5.358   1.719  13.155  0.4657  0.3621  0.3372
  184DOPC  C31422677   5.381   1.930  13.202 -1.1336 -0.6568  0.4723
  184DOPC  H14X22678   5.277   1.944  13.167 -0.3317  0.0180 -1.8401
  184DOPC  H14Y22679   5.391   1.988  13.297  0.5768 -1.4569  0.8347
  184DOPC  C31522680   5.475   1.990  13.099  1.1773 -0.6434  0.2134
  184DOPC  H15X22681   5.485   1.921  13.012 -0.1033  1.6335 -1.8928
  184DOPC  H15Y22682   5.583   2.001  13.124  1.1177  0.1558  0.1455
  184DOPC  C31622683   5.432   2.127  13.052  0.7425  0.3485  0.0940
  184DOPC  H16X22684   5.321   2.133  13.063  0.7451  0.2841  0.1520
  184DOPC  H16Y22685   5.475   2.209  13.112 -1.3831  1.0858  0.7155
  184DOPC  C31722686   5.469   2.161  12.910  0.2601 -0.3341  0.2685
  184DOPC  H17X22687   5.449   2.086  12.830 -1.3135  2.6108 -2.3085
  184DOPC  H17Y22688   5.402   2.243  12.877  0.3642 -0.0012  0.8722
  184DOPC  C31822689   5.615   2.202  12.884  0.0100  0.3191  0.5550
  184DOPC  H18X22690   5.641   2.276  12.963 -1.3390 -1.2313  2.5197
  184DOPC  H18Y22691   5.679   2.112  12.898 -1.3080 -1.0615 -1.6767
  184DOPC  H18Z22692   5.634   2.250  12.785 -1.0037 -1.9993 -0.8439
  185DOPC     N22693   7.890   5.503  12.152  0.1578  0.4292 -0.1272
  185DOPC   C1222694   7.996   5.605  12.180 -0.3283  0.5753 -0.0673
  185DOPC  H12A22695   8.078   5.544  12.215  0.5573  0.8286 -1.5950
  185DOPC  H12B22696   7.954   5.671  12.253 -1.2315  0.6562 -0.6555
  185DOPC   C1322697   7.949   5.377  12.084 -0.0711 -0.1411 -0.0857
  185DOPC  H13A22698   7.872   5.301  12.077 -0.1956 -0.0421  0.1963
  185DOPC  H13B22699   7.987   5.409  11.988 -1.4497  0.6481 -0.3921
  185DOPC  H13C22700   8.029   5.341  12.146 -0.1967  2.9121  2.0758
  185DOPC   C1422701   7.779   5.556  12.069  0.3894 -0.9761  0.4668
  185DOPC  H14A22702   7.710   5.626  12.115 -0.4809 -1.5355  0.0399
  185DOPC  H14B22703   7.812   5.607  11.979  1.0933 -1.4390  0.4576
  185DOPC  H14C22704   7.719   5.475  12.031 -0.6085 -0.6590  1.3344
  185DOPC   C1522705   7.837   5.456  12.282 -0.0733 -0.0290  0.3308
  185DOPC  H15A22706   7.755   5.387  12.266  0.0150  0.0011 -0.2804
  185DOPC  H15B22707   7.795   5.531  12.348 -0.3736  1.4874 -1.4933
  185DOPC  H15C22708   7.915   5.397  12.327 -0.7100 -1.4919 -0.4126
  185DOPC   C1122709   8.062   5.694  12.063  0.4374  0.8323  0.3787
  185DOPC  H11A22710   7.977   5.761  12.040 -1.6495 -1.9815 -0.6314
  185DOPC  H11B22711   8.141   5.751  12.117  1.1212 -0.1234  0.4167
  185DOPC     P22712   8.252   5.563  11.954  0.1205 -0.2733 -0.1700
  185DOPC   O1322713   8.339   5.684  11.970  0.7708 -0.1896  0.4417
  185DOPC   O1422714   8.274   5.487  11.828 -0.3527  0.3697  0.2414
  185DOPC   O1222715   8.104   5.617  11.951  0.6461  0.2838 -0.0818
  185DOPC   O1122716   8.247   5.472  12.081 -0.8032 -0.4720  0.4304
  185DOPC    C122717   8.373   5.444  12.149 -0.0340  0.1769  0.3302
  185DOPC    HA22718   8.465   5.486  12.104 -0.0396  2.2104  2.0368
  185DOPC    HB22719   8.381   5.334  12.159  0.2030 -0.2881 -3.5701
  185DOPC    C222720   8.362   5.485  12.300 -0.1902 -0.2651  0.0126
  185DOPC    HS22721   8.456   5.441  12.341 -0.6030  0.8685  2.3385
  185DOPC   O2122722   8.236   5.436  12.360  0.1749 -0.2098 -0.3415
  185DOPC   C2122723   8.253   5.346  12.461  0.6682 -0.0320  0.5084
  185DOPC   O2222724   8.358   5.321  12.509 -0.1370  0.0020  0.4195
  185DOPC   C2222725   8.123   5.293  12.506 -0.5830  0.1508 -0.2359
  185DOPC   H2R22726   8.053   5.277  12.421 -0.7002 -1.1805  0.0980
  185DOPC   H2S22727   8.077   5.347  12.591 -0.3375 -0.5086  0.3264
  185DOPC    C322728   8.367   5.642  12.307 -0.0430 -0.3744 -0.1513
  185DOPC    HX22729   8.302   5.686  12.228 -1.9172  0.9689  2.0410
  185DOPC    HY22730   8.468   5.681  12.284 -0.9914  1.9316 -0.6238
  185DOPC   O3122731   8.340   5.701  12.436  1.0942  0.5237  0.4270
  185DOPC   C3122732   8.218   5.752  12.470  0.4963  0.3902 -0.1733
  185DOPC   O3222733   8.119   5.742  12.400  0.1780  0.3036  0.2259
  185DOPC   C3222734   8.224   5.816  12.606  0.0183 -0.1054  0.1060
  185DOPC   H2X22735   8.327   5.807  12.644  1.1582 -0.1702 -2.7035
  185DOPC   H2Y22736   8.199   5.924  12.593  4.1235  1.0686  0.5000
  185DOPC   C2322737   8.147   5.150  12.560 -0.0957  0.9396 -0.0667
  185DOPC   H3R22738   8.235   5.148  12.627  0.0384  1.4202 -0.2236
  185DOPC   H3S22739   8.170   5.087  12.471  2.9207 -1.0225  1.9266
  185DOPC   C2422740   8.026   5.090  12.631  0.2771 -0.3230 -0.0988
  185DOPC   H4R22741   7.949   5.116  12.556  1.2728  1.6594 -0.4815
  185DOPC   H4S22742   8.004   5.122  12.735  0.5923 -2.2204  0.6040
  185DOPC   C2522743   8.026   4.937  12.615  0.1159  0.0635  0.8618
  185DOPC   H5R22744   8.130   4.908  12.640  1.4054  4.0604  0.8985
  185DOPC   H5S22745   7.992   4.914  12.512 -1.2606 -0.3144  1.3814
  185DOPC   C2622746   7.927   4.884  12.722  0.4677  0.0344 -0.3601
  185DOPC   H6R22747   7.935   4.938  12.819 -0.8167 -0.3210 -0.0384
  185DOPC   H6S22748   7.936   4.779  12.758  0.0544  0.3963  0.8598
  185DOPC   C2722749   7.775   4.904  12.685  0.3950  0.4393 -0.5769
  185DOPC   H7R22750   7.757   4.842  12.595 -2.7564  0.3260  0.0110
  185DOPC   H7S22751   7.737   5.006  12.662 -0.3368  0.0395 -1.2055
  185DOPC   C2822752   7.683   4.846  12.803 -0.7892 -0.4565 -0.2415
  185DOPC   H8R22753   7.583   4.883  12.771 -0.1466  1.3452 -0.2854
  185DOPC   H8S22754   7.710   4.903  12.894  0.0885 -0.6312 -0.3890
  185DOPC   C2922755   7.675   4.696  12.824  0.3133 -0.5641 -0.1205
  185DOPC   H9R22756   7.720   4.639  12.742 -3.3597 -1.8834 -1.4166
  185DOPC  C21022757   7.631   4.636  12.940 -0.0525  0.1288  0.3372
  185DOPC  H10R22758   7.632   4.527  12.956  4.9521 -0.1364 -0.4203
  185DOPC  C21122759   7.583   4.717  13.060  0.3251 -0.0639  0.3877
  185DOPC  H11R22760   7.473   4.711  13.074 -0.2018 -0.1438 -3.0068
  185DOPC  H11S22761   7.595   4.827  13.048  0.8595 -0.1605 -0.0232
  185DOPC  C21222762   7.649   4.665  13.184 -0.2146  0.0208 -0.1114
  185DOPC  H12R22763   7.647   4.734  13.271  0.3935 -1.7794  1.4328
  185DOPC  H12S22764   7.757   4.642  13.174  0.1430  0.9400  1.3634
  185DOPC  C21322765   7.578   4.538  13.236 -0.5944 -0.1472  0.2997
  185DOPC  H13R22766   7.598   4.451  13.170 -1.7033  0.2449 -0.5782
  185DOPC  H13S22767   7.469   4.551  13.220 -0.3283 -0.3800 -2.0017
  185DOPC  C21422768   7.624   4.509  13.384 -0.1783 -0.1214  0.6713
  185DOPC  H14R22769   7.570   4.421  13.424 -1.2936 -0.4257 -1.3686
  185DOPC  H14S22770   7.590   4.591  13.451  1.5999  0.8793  0.4218
  185DOPC  C21522771   7.766   4.457  13.386 -0.1750 -0.3375 -0.1073
  185DOPC  H15R22772   7.836   4.538  13.357 -1.5224  0.7492 -0.3947
  185DOPC  H15S22773   7.779   4.390  13.298  0.0953 -0.1035 -0.2479
  185DOPC  C21622774   7.803   4.388  13.516 -0.5058 -0.0880 -0.7309
  185DOPC  H16R22775   7.746   4.295  13.538 -1.0782  0.5923  0.8055
  185DOPC  H16S22776   7.792   4.457  13.602 -1.0116 -1.3650  0.2538
  185DOPC  C21722777   7.955   4.355  13.516 -0.1796 -0.2659  0.3375
  185DOPC  H17R22778   8.010   4.444  13.554 -0.7702  0.8936 -1.3984
  185DOPC  H17S22779   7.985   4.356  13.409  1.9412  0.7656  0.8816
  185DOPC  C21822780   8.003   4.214  13.558 -0.0359  0.3561  0.2877
  185DOPC  H18R22781   7.982   4.204  13.667  1.1769  1.5207  0.6554
  185DOPC  H18S22782   8.111   4.207  13.531 -0.0203  3.6593 -1.0535
  185DOPC  H18T22783   7.952   4.142  13.491 -0.9669  2.0830 -0.9573
  185DOPC   C3322784   8.118   5.747  12.698  0.0574 -0.4108  0.1839
  185DOPC   H3X22785   8.157   5.643  12.704  1.0513 -0.1543 -1.3967
  185DOPC   H3Y22786   8.020   5.732  12.648  1.0866 -2.5563 -1.3337
  185DOPC   C3422787   8.102   5.822  12.830 -0.1379  0.6330  0.4400
  185DOPC   H4X22788   8.074   5.928  12.811 -0.5825  0.1663 -1.8995
  185DOPC   H4Y22789   8.199   5.820  12.884  0.5124  0.5618 -0.6910
  185DOPC   C3522790   8.005   5.747  12.929  0.3442 -0.6685  0.0854
  185DOPC   H5X22791   8.052   5.650  12.956  1.6936  0.4824  2.0809
  185DOPC   H5Y22792   7.899   5.726  12.901  0.1810  0.3102 -0.0771
  185DOPC   C3622793   7.990   5.833  13.060  0.2698  0.2461  0.4289
  185DOPC   H6X22794   7.980   5.767  13.148 -0.0010 -0.3492 -0.0406
  185DOPC   H6Y22795   8.084   5.890  13.076 -0.3359  1.8889 -1.3949
  185DOPC   C3722796   7.871   5.937  13.061  0.4098 -0.5922  0.6252
  185DOPC   H7X22797   7.902   6.028  13.006 -1.2514 -1.2278 -1.4706
  185DOPC   H7Y22798   7.779   5.899  13.013  0.6177 -0.7758  0.3649
  185DOPC   C3822799   7.832   5.968  13.206  0.0769  0.2792  0.2175
  185DOPC   H8X22800   7.915   6.007  13.269 -0.5892  0.2338  1.1318
  185DOPC   H8Y22801   7.788   5.876  13.250  0.0997  0.3210  0.3269
  185DOPC   C3922802   7.716   6.059  13.221  0.2565 -0.6986 -0.4514
  185DOPC   H9X22803   7.660   6.076  13.127 -2.3476  1.6670  1.3625
  185DOPC  C31022804   7.680   6.121  13.334 -0.0228 -0.6029 -0.5459
  185DOPC  H10X22805   7.585   6.176  13.329  0.9464  1.2270  0.3657
  185DOPC  C31122806   7.740   6.105  13.475 -0.1435 -0.1553 -0.4209
  185DOPC  H11X22807   7.850   6.117  13.483 -0.2746  0.0104  1.4781
  185DOPC  H11Y22808   7.712   6.004  13.512 -0.9021  0.6111  1.1635
  185DOPC  C31222809   7.684   6.208  13.569  0.0414  0.0279 -0.5976
  185DOPC  H12X22810   7.720   6.184  13.672  0.4594  1.8641 -0.2806
  185DOPC  H12Y22811   7.573   6.202  13.573  0.0662  0.1297  1.2766
  185DOPC  C31322812   7.728   6.349  13.532  0.3863 -0.4349 -0.1295
  185DOPC  H13X22813   7.839   6.344  13.531  0.3428 -3.6011 -0.5708
  185DOPC  H13Y22814   7.700   6.375  13.428  0.4975  2.1538  0.4317
  185DOPC  C31422815   7.663   6.464  13.617  0.4852 -0.1438 -0.1751
  185DOPC  H14X22816   7.553   6.450  13.612  0.5709 -1.2070  0.5420
  185DOPC  H14Y22817   7.694   6.441  13.721  0.6401 -1.8629 -0.5702
  185DOPC  C31522818   7.702   6.613  13.591  0.5692  0.4465  0.3192
  185DOPC  H15X22819   7.710   6.619  13.480 -0.5937 -0.1175  0.1832
  185DOPC  H15Y22820   7.802   6.637  13.634  0.7641 -1.2671  0.9098
  185DOPC  C31622821   7.603   6.712  13.634  0.4046  0.3362  0.2273
  185DOPC  H16X22822   7.645   6.810  13.601 -1.0022  0.1973 -2.2576
  185DOPC  H16Y22823   7.510   6.684  13.580  0.2313  0.0946  0.6473
  185DOPC  C31722824   7.584   6.716  13.785 -0.3491 -0.5330  0.5462
  185DOPC  H17X22825   7.501   6.649  13.814 -1.8064  1.9346  2.4507
  185DOPC  H17Y22826   7.681   6.681  13.827 -0.8222 -1.9718  0.4637
  185DOPC  C31822827   7.548   6.858  13.829  0.1032  0.3998  0.0943
  185DOPC  H18X22828   7.632   6.923  13.795 -0.2104 -0.2513 -2.0559
  185DOPC  H18Y22829   7.456   6.887  13.775  0.2313  3.3076  1.2606
  185DOPC  H18Z22830   7.532   6.848  13.939 -2.2475 -0.8243 -0.3040
  186DOPC     N22831   7.600   2.169  12.671  0.1264  0.1322  0.5848
  186DOPC   C1222832   7.751   2.146  12.661  0.4679  0.1471 -0.4848
  186DOPC  H12A22833   7.794   2.224  12.722  1.7606  0.0178 -1.1909
  186DOPC  H12B22834   7.791   2.164  12.562  3.0895  0.4610  0.5364
  186DOPC   C1322835   7.568   2.312  12.684  0.1455  0.7813  0.0809
  186DOPC  H13A22836   7.601   2.357  12.777  0.8491 -1.1436  0.8116
  186DOPC  H13B22837   7.615   2.364  12.602  1.3053 -0.6557 -0.2096
  186DOPC  H13C22838   7.463   2.331  12.668  0.1876 -0.4162 -1.9149
  186DOPC   C1422839   7.550   2.108  12.792  0.4300  0.0031  0.8719
  186DOPC  H14A22840   7.608   2.160  12.867  1.7612 -0.8005  0.4285
  186DOPC  H14B22841   7.446   2.133  12.806  0.0412  0.5832 -2.2474
  186DOPC  H14C22842   7.569   2.002  12.797 -0.7414 -0.4823 -2.5595
  186DOPC   C1522843   7.529   2.106  12.554 -0.0777 -0.1473 -0.8343
  186DOPC  H15A22844   7.557   2.165  12.468  2.9901 -1.3130 -0.7487
  186DOPC  H15B22845   7.422   2.109  12.570  0.1815  0.0428  1.0816
  186DOPC  H15C22846   7.565   2.005  12.544  2.3105  0.5125  0.4718
  186DOPC   C1122847   7.801   2.004  12.711 -0.1399 -0.0174  0.2971
  186DOPC  H11A22848   7.731   1.931  12.666  0.5243 -1.1552  1.0584
  186DOPC  H11B22849   7.902   1.982  12.669  0.2171 -0.5589  1.4104
  186DOPC     P22850   7.924   2.070  12.925 -0.0688 -0.0876  0.1026
  186DOPC   O1322851   7.888   2.214  12.936 -0.2550  0.0769  0.3648
  186DOPC   O1422852   8.060   2.043  12.863 -0.1897  0.5271 -0.5721
  186DOPC   O1222853   7.808   1.986  12.853 -0.2956 -0.1848 -0.0448
  186DOPC   O1122854   7.924   2.004  13.064 -0.0691 -0.3987 -0.1204
  186DOPC    C122855   7.803   1.966  13.128  0.7037  0.0057  0.0577
  186DOPC    HA22856   7.749   1.892  13.065  2.5290 -1.0997 -0.2650
  186DOPC    HB22857   7.739   2.055  13.145  0.6910  0.3662 -1.6638
  186DOPC    C222858   7.826   1.905  13.266  0.5151 -0.4411  0.6913
  186DOPC    HS22859   7.730   1.862  13.302 -0.1252 -0.6303 -1.1080
  186DOPC   O2122860   7.886   2.006  13.353  0.1689  0.6636  0.8150
  186DOPC   C2122861   7.804   2.092  13.394 -0.7705 -0.8058  0.0446
  186DOPC   O2222862   7.683   2.092  13.381 -0.3271  0.1377  0.3334
  186DOPC   C2222863   7.881   2.198  13.474  0.2863  0.0433  0.5392
  186DOPC   H2R22864   7.970   2.159  13.529  1.5258  2.0675  0.0770
  186DOPC   H2S22865   7.819   2.244  13.554  1.2667  0.5958  1.0092
  186DOPC    C322866   7.920   1.778  13.249  0.1325  0.1186 -0.1114
  186DOPC    HX22867   8.014   1.817  13.204 -0.3509  1.6824  0.1886
  186DOPC    HY22868   7.875   1.712  13.171  0.5041  0.7432 -0.8710
  186DOPC   O3122869   7.943   1.711  13.373  0.0419  0.6814  0.1989
  186DOPC   C3122870   8.023   1.764  13.462 -0.1823 -1.0291 -0.4153
  186DOPC   O3222871   8.108   1.846  13.434 -0.3788  0.0531  0.9160
  186DOPC   C3222872   8.004   1.698  13.601 -0.5533 -0.1318  0.6080
  186DOPC   H2X22873   8.050   1.597  13.589  0.6874  0.4869 -0.0704
  186DOPC   H2Y22874   8.072   1.749  13.673 -1.2516 -2.8698  3.4725
  186DOPC   C2322875   7.917   2.309  13.384 -0.7030 -0.6047 -0.3282
  186DOPC   H3R22876   7.827   2.360  13.343 -2.0632 -0.9535  2.0350
  186DOPC   H3S22877   7.982   2.274  13.301 -2.0116 -1.0916 -1.1825
  186DOPC   C2422878   7.992   2.417  13.471 -0.4454  0.5224  0.2068
  186DOPC   H4R22879   7.963   2.420  13.578  1.3601  1.7305  0.7215
  186DOPC   H4S22880   7.965   2.521  13.441  1.3515  1.7812  2.5205
  186DOPC   C2522881   8.146   2.397  13.465  0.1941  0.2793 -0.0439
  186DOPC   H5R22882   8.179   2.398  13.359 -0.5952 -2.1325 -0.3564
  186DOPC   H5S22883   8.165   2.294  13.503  2.8645  0.6339 -0.2345
  186DOPC   C2622884   8.224   2.501  13.541  0.1447  0.0751  0.4295
  186DOPC   H6R22885   8.202   2.597  13.490 -2.2191  0.7112  2.4702
  186DOPC   H6S22886   8.329   2.468  13.521  0.7138  1.7456  0.4750
  186DOPC   C2722887   8.206   2.540  13.692  0.2035 -0.8386 -0.0785
  186DOPC   H7R22888   8.301   2.575  13.738 -1.7124  2.8558  1.4869
  186DOPC   H7S22889   8.160   2.457  13.748 -0.1154 -0.2685  0.5216
  186DOPC   C2822890   8.104   2.653  13.718 -0.0265 -0.2779  0.3044
  186DOPC   H8R22891   8.118   2.672  13.826  1.9475  1.1101 -0.1397
  186DOPC   H8S22892   8.001   2.622  13.691  1.2059 -2.0747 -2.8646
  186DOPC   C2922893   8.128   2.785  13.651 -0.3864 -0.1132 -0.2239
  186DOPC   H9R22894   8.096   2.785  13.546 -2.7012 -1.4881  0.4089
  186DOPC  C21022895   8.179   2.895  13.709 -0.0419 -0.1806 -0.1670
  186DOPC  H10R22896   8.212   2.976  13.642  0.0561 -0.1160 -0.0431
  186DOPC  C21122897   8.224   2.905  13.855  0.0906  0.1707  0.0650
  186DOPC  H11R22898   8.198   2.815  13.915  1.3929 -0.1305  0.2095
  186DOPC  H11S22899   8.157   2.975  13.908 -2.1009 -1.8831  0.2278
  186DOPC  C21222900   8.369   2.946  13.865  0.0591  0.1020 -0.1363
  186DOPC  H12R22901   8.384   3.042  13.810  2.0634 -1.3140 -2.2164
  186DOPC  H12S22902   8.428   2.869  13.811  1.8093  0.2084  1.5460
  186DOPC  C21322903   8.421   2.972  14.007  0.6826  0.2543 -0.3457
  186DOPC  H13R22904   8.426   2.872  14.055  0.7800 -1.4266 -3.5563
  186DOPC  H13S22905   8.349   3.040  14.057  0.1494 -0.3913 -0.2179
  186DOPC  C21422906   8.565   3.038  14.014 -0.3241 -0.0288 -0.2578
  186DOPC  H14R22907   8.561   3.142  13.977  1.4399  0.4125  0.6748
  186DOPC  H14S22908   8.636   2.979  13.953  0.9597  0.1554  0.9991
  186DOPC  C21522909   8.625   3.048  14.147 -0.3452 -0.4739 -0.6638
  186DOPC  H15R22910   8.736   3.038  14.148 -0.2780  0.2545 -0.3423
  186DOPC  H15S22911   8.598   2.953  14.198  0.2212 -0.2235  0.1156
  186DOPC  C21622912   8.574   3.170  14.235  0.3997  0.3768 -0.0156
  186DOPC  H16R22913   8.535   3.133  14.332 -0.6593  0.7088 -0.3098
  186DOPC  H16S22914   8.494   3.221  14.177 -0.8365  0.1430  1.4190
  186DOPC  C21722915   8.684   3.267  14.270 -0.3334  0.6459 -0.2747
  186DOPC  H17R22916   8.776   3.223  14.312  0.2942  0.9346 -1.3107
  186DOPC  H17S22917   8.645   3.334  14.350 -0.7973  1.5274 -1.2142
  186DOPC  C21822918   8.725   3.357  14.165  0.1230 -0.4511 -0.1825
  186DOPC  H18R22919   8.645   3.431  14.145  0.8418  0.3668 -0.1001
  186DOPC  H18S22920   8.747   3.305  14.069  1.4889  0.4604 -0.3996
  186DOPC  H18T22921   8.807   3.427  14.192  0.1282 -1.1742  1.8907
  186DOPC   C3322922   7.853   1.693  13.645  0.2181 -0.1980  0.0551
  186DOPC   H3X22923   7.848   1.619  13.728 -2.2382  0.1210  0.2714
  186DOPC   H3Y22924   7.782   1.651  13.571  1.9335 -0.7429 -1.3610
  186DOPC   C3422925   7.800   1.830  13.696 -0.4129 -0.2818  1.1008
  186DOPC   H4X22926   7.836   1.908  13.626  0.5547 -1.4405  0.2787
  186DOPC   H4Y22927   7.859   1.846  13.789  2.0354 -0.0019 -0.4123
  186DOPC   C3522928   7.654   1.841  13.722 -1.0257 -0.5310 -0.6223
  186DOPC   H5X22929   7.613   1.763  13.790 -0.2546  0.4208  1.0058
  186DOPC   H5Y22930   7.601   1.833  13.625 -1.1913 -1.1829 -0.4825
  186DOPC   C3622931   7.603   1.974  13.787  0.1055  0.8157  0.4882
  186DOPC   H6X22932   7.642   1.976  13.891 -2.3493  0.2623  1.4970
  186DOPC   H6Y22933   7.630   2.058  13.721 -3.2659  0.8178 -1.0906
  186DOPC   C3722934   7.449   1.965  13.789 -0.0727  0.2462 -0.8430
  186DOPC   H7X22935   7.411   1.919  13.695  0.7091 -0.4863 -0.8094
  186DOPC   H7Y22936   7.420   1.892  13.868 -1.5578 -0.3958 -1.9319
  186DOPC   C3822937   7.379   2.095  13.809 -0.0573  0.0308  0.0562
  186DOPC   H8X22938   7.417   2.127  13.909 -2.0542  3.0348  0.0206
  186DOPC   H8Y22939   7.268   2.091  13.812 -0.0906  0.9494  0.6735
  186DOPC   C3922940   7.399   2.200  13.699  0.0015  0.7155 -0.9282
  186DOPC   H9X22941   7.391   2.156  13.599 -1.7028  0.0484 -0.5298
  186DOPC  C31022942   7.427   2.326  13.722 -0.0681 -0.2799 -0.1016
  186DOPC  H10X22943   7.441   2.391  13.634  2.0073  0.0963  0.4467
  186DOPC  C31122944   7.450   2.402  13.848  0.0290 -0.3567 -0.1732
  186DOPC  H11X22945   7.541   2.465  13.835 -0.2689 -0.4687 -4.2202
  186DOPC  H11Y22946   7.467   2.339  13.937 -0.5968  1.6964  1.4830
  186DOPC  C31222947   7.337   2.500  13.884 -0.0621 -0.0619 -0.0606
  186DOPC  H12X22948   7.246   2.442  13.911 -0.8132  1.3112  0.4414
  186DOPC  H12Y22949   7.317   2.560  13.793 -1.1335 -0.5332 -0.1566
  186DOPC  C31322950   7.374   2.576  14.012 -0.4115 -0.4409  0.4604
  186DOPC  H13X22951   7.414   2.505  14.088 -1.9888 -0.8436  0.9550
  186DOPC  H13Y22952   7.459   2.642  13.984  0.1128 -0.6762  1.4701
  186DOPC  C31422953   7.260   2.665  14.075 -0.3425 -0.5365 -0.3141
  186DOPC  H14X22954   7.253   2.763  14.025 -0.7839  0.6084  1.8383
  186DOPC  H14Y22955   7.162   2.614  14.074  0.6984 -2.6268 -0.8306
  186DOPC  C31522956   7.275   2.698  14.227  0.4477 -0.6400 -0.2890
  186DOPC  H15X22957   7.243   2.603  14.276  0.9089  0.3617  2.1048
  186DOPC  H15Y22958   7.206   2.777  14.263  1.7436  0.5125 -0.2788
  186DOPC  C31622959   7.414   2.739  14.270  0.7093  0.1942  0.3764
  186DOPC  H16X22960   7.468   2.652  14.227 -0.9200 -0.6250 -0.1305
  186DOPC  H16Y22961   7.446   2.832  14.219  0.0734  1.2080  1.7494
  186DOPC  C31722962   7.434   2.774  14.417  0.8179  0.3973  0.0904
  186DOPC  H17X22963   7.357   2.849  14.447 -0.2578 -0.8203  0.4734
  186DOPC  H17Y22964   7.423   2.686  14.484 -0.3558  0.4366 -0.0379
  186DOPC  C31822965   7.577   2.830  14.423  0.0685  0.2347 -0.2125
  186DOPC  H18X22966   7.649   2.756  14.383  0.4312  0.9614 -0.9413
  186DOPC  H18Y22967   7.597   2.921  14.363 -0.9770  1.0894  0.6907
  186DOPC  H18Z22968   7.608   2.855  14.527  1.1199 -0.7595 -0.2692
  187DOPC     N22969   7.622   0.067  12.375  0.0708 -0.4474 -0.0938
  187DOPC   C1222970   7.663   0.214  12.403  0.2711 -0.0733  0.5271
  187DOPC  H12A22971   7.682   0.264  12.310  1.1876 -1.7371 -0.2250
  187DOPC  H12B22972   7.758   0.205  12.453  1.3975  1.0633 -1.3090
  187DOPC   C1322973   7.480   0.067  12.319 -0.5279 -0.1965  1.0013
  187DOPC  H13A22974   7.408   0.120  12.381  0.2485  0.2398  1.5500
  187DOPC  H13B22975   7.468   0.117  12.224 -0.0819  0.7850  1.4454
  187DOPC  H13C22976   7.453  -0.036  12.300 -1.4062  0.5935 -2.9260
  187DOPC   C1422977   7.620  -0.008  12.502 -0.3510  0.4066 -0.3119
  187DOPC  H14A22978   7.721  -0.018  12.539 -0.8355  0.8917  1.2205
  187DOPC  H14B22979   7.562   0.042  12.579  0.0295  2.4402 -1.2879
  187DOPC  H14C22980   7.587  -0.111  12.498 -0.0158  0.3443 -1.7442
  187DOPC   C1522981   7.706  -0.004  12.281  0.2653 -0.0615  0.7137
  187DOPC  H15A22982   7.800  -0.023  12.332  0.2700 -0.8715  0.4221
  187DOPC  H15B22983   7.719   0.055  12.192  0.4351 -1.4782 -0.2370
  187DOPC  H15C22984   7.667  -0.098  12.244 -0.4811  0.5473 -0.0649
  187DOPC   C1122985   7.571   0.299  12.493 -0.3653  0.4890  0.4894
  187DOPC  H11A22986   7.627   0.395  12.494  2.9061 -1.2552  0.4136
  187DOPC  H11B22987   7.470   0.312  12.449 -0.4584  1.7651  1.0400
  187DOPC     P22988   7.455   0.266  12.728 -0.0921 -0.0180  0.1391
  187DOPC   O1322989   7.497   0.227  12.864 -0.1560  0.7727 -0.2257
  187DOPC   O1422990   7.342   0.193  12.668  0.1206  0.5987  0.0238
  187DOPC   O1222991   7.574   0.242  12.629  0.6205  0.0476  0.0370
  187DOPC   O1122992   7.426   0.420  12.725 -0.0044 -0.4492  0.2788
  187DOPC    C122993   7.546   0.504  12.748 -0.2609  0.4853  0.6098
  187DOPC    HA22994   7.536   0.602  12.696  1.3926 -0.3130 -1.3635
  187DOPC    HB22995   7.647   0.464  12.726 -0.1864  1.6016 -1.3266
  187DOPC    C222996   7.556   0.532  12.903  0.3833  0.0431 -0.2230
  187DOPC    HS22997   7.565   0.434  12.954  2.2888 -0.1891 -0.8946
  187DOPC   O2122998   7.441   0.615  12.936  0.1696  0.4176 -0.4197
  187DOPC   C2122999   7.387   0.585  13.059 -0.2521  0.2753  1.0752
  187DOPC   O2223000   7.434   0.513  13.139 -0.4154  0.0153  0.5198
  187DOPC   C2223001   7.263   0.669  13.082  0.6130 -0.2288  0.5976
  187DOPC   H2R23002   7.195   0.664  12.995  0.8237 -1.4701  0.4932
  187DOPC   H2S23003   7.301   0.773  13.092  0.0204 -0.0385  0.9122
  187DOPC    C323004   7.689   0.613  12.935  0.5105  0.3043  0.2083
  187DOPC    HX23005   7.696   0.717  12.896 -0.0397 -0.0992 -1.0244
  187DOPC    HY23006   7.767   0.559  12.877  0.2922  0.6678 -0.4383
  187DOPC   O3123007   7.718   0.609  13.077 -0.3071 -0.2178 -0.0161
  187DOPC   C3123008   7.770   0.496  13.123 -0.5494 -0.1880 -0.0708
  187DOPC   O3223009   7.798   0.397  13.066  0.3657 -0.1505 -0.1632
  187DOPC   C3223010   7.818   0.519  13.271  0.1097  0.6240 -0.6777
  187DOPC   H2X23011   7.905   0.587  13.259  0.9791 -0.7500 -3.0169
  187DOPC   H2Y23012   7.732   0.567  13.322  1.7907  2.8332  0.2722
  187DOPC   C2323013   7.197   0.627  13.217  0.2555 -0.5838 -0.2458
  187DOPC   H3R23014   7.266   0.650  13.302  1.1258  1.5992 -1.4575
  187DOPC   H3S23015   7.154   0.525  13.226 -2.8740  0.8010  3.0089
  187DOPC   C2423016   7.077   0.723  13.243 -0.5055  0.2392 -0.1936
  187DOPC   H4R23017   7.005   0.684  13.319 -1.9338  0.9628 -1.1219
  187DOPC   H4S23018   7.034   0.741  13.142 -3.7136 -1.7954  0.6535
  187DOPC   C2523019   7.116   0.865  13.280  0.2170 -0.3903 -0.1460
  187DOPC   H5R23020   7.187   0.898  13.202  0.6255 -1.6629 -0.3233
  187DOPC   H5S23021   7.170   0.866  13.377  0.7364 -0.4038 -0.4307
  187DOPC   C2623022   7.002   0.964  13.291  0.5350  0.0591 -0.1832
  187DOPC   H6R23023   7.037   1.065  13.321  0.7765 -0.0421 -0.1273
  187DOPC   H6S23024   6.938   0.921  13.370 -0.0583  3.1714  1.2011
  187DOPC   C2723025   6.913   0.991  13.171 -0.1667  0.3803 -0.8049
  187DOPC   H7R23026   6.868   0.893  13.145  1.0769 -0.8625  1.4898
  187DOPC   H7S23027   6.980   1.029  13.091 -0.0469 -2.0232 -1.9260
  187DOPC   C2823028   6.805   1.100  13.196 -0.5308  0.0819  0.1730
  187DOPC   H8R23029   6.786   1.137  13.093  1.1420  1.2159  0.2370
  187DOPC   H8S23030   6.859   1.185  13.242 -0.9231  0.8251 -0.7022
  187DOPC   C2923031   6.688   1.070  13.286  0.6299 -0.3570 -0.6000
  187DOPC   H9R23032   6.639   0.972  13.283  1.2492 -0.7697  1.2551
  187DOPC  C21023033   6.639   1.149  13.382 -0.1748 -0.2886  0.5189
  187DOPC  H10R23034   6.574   1.097  13.454 -0.7585 -0.9144 -0.4406
  187DOPC  C21123035   6.681   1.290  13.419  0.2525 -0.0411 -0.2625
  187DOPC  H11R23036   6.593   1.357  13.414 -0.2710 -0.6206  0.8629
  187DOPC  H11S23037   6.768   1.334  13.364 -0.1253  2.5651  1.0438
  187DOPC  C21223038   6.711   1.317  13.570  0.6559 -0.0416 -0.5406
  187DOPC  H12R23039   6.631   1.286  13.640 -0.5151  3.6045 -0.0444
  187DOPC  H12S23040   6.713   1.427  13.586 -1.2613 -0.1788  1.0107
  187DOPC  C21323041   6.841   1.251  13.622  0.0801  0.0327 -0.5727
  187DOPC  H13R23042   6.878   1.302  13.713  3.1706 -0.8221 -1.2226
  187DOPC  H13S23043   6.928   1.261  13.553  0.6847  0.9860  0.3101
  187DOPC  C21423044   6.837   1.095  13.652  0.3751 -0.3247 -0.7355
  187DOPC  H14R23045   6.831   1.042  13.554 -0.8913  1.0688 -1.4616
  187DOPC  H14S23046   6.748   1.073  13.714  0.5662 -0.6849 -0.5870
  187DOPC  C21523047   6.948   1.057  13.754  0.0612 -0.0976 -0.0800
  187DOPC  H15R23048   6.929   0.955  13.793 -0.6916  1.4227  3.9297
  187DOPC  H15S23049   6.933   1.120  13.844  1.8582 -2.4962  2.0442
  187DOPC  C21623050   7.084   1.082  13.691  0.0296 -0.6367 -0.3336
  187DOPC  H16R23051   7.096   1.192  13.690 -0.1527 -0.5506  1.7506
  187DOPC  H16S23052   7.088   1.039  13.589  0.6116 -2.4186  0.3912
  187DOPC  C21723053   7.196   1.006  13.760  0.4714  0.4718  0.1334
  187DOPC  H17R23054   7.170   0.899  13.750  1.0585  0.4400 -1.3520
  187DOPC  H17S23055   7.199   1.026  13.869 -1.0404  0.1924  0.2490
  187DOPC  C21823056   7.340   1.033  13.708 -0.0554 -0.0077 -0.4858
  187DOPC  H18R23057   7.360   0.991  13.607  3.0961 -1.0376  0.4269
  187DOPC  H18S23058   7.411   0.982  13.777  1.7270  3.1223  0.1650
  187DOPC  H18T23059   7.381   1.136  13.717  0.3655 -0.1617 -0.5770
  187DOPC   C3323060   7.850   0.387  13.347 -0.1671 -0.7802 -0.8791
  187DOPC   H3X23061   7.954   0.353  13.330  1.3114  1.4700  2.5198
  187DOPC   H3Y23062   7.781   0.312  13.302  0.7468 -2.3637  0.2652
  187DOPC   C3423063   7.825   0.404  13.497 -0.2348 -0.7818 -0.3861
  187DOPC   H4X23064   7.716   0.421  13.505 -0.3258 -1.2846 -0.5629
  187DOPC   H4Y23065   7.895   0.482  13.534 -0.0829 -0.0803 -2.0694
  187DOPC   C3523066   7.865   0.277  13.576 -0.6961  0.0366  0.2645
  187DOPC   H5X23067   7.957   0.225  13.541 -1.6486 -2.1303  0.8126
  187DOPC   H5Y23068   7.785   0.201  13.565 -0.8330  0.1321  0.5874
  187DOPC   C3623069   7.859   0.281  13.726 -0.4652  0.0220  0.3291
  187DOPC   H6X23070   7.933   0.359  13.755 -0.6142  1.1334 -2.0214
  187DOPC   H6Y23071   7.758   0.315  13.758 -0.0697  1.7852 -0.1950
  187DOPC   C3723072   7.916   0.158  13.789  1.1084  0.2370  0.2516
  187DOPC   H7X23073   7.935   0.081  13.712  1.4825 -3.1069  3.3857
  187DOPC   H7Y23074   8.014   0.189  13.832  0.5763  0.4571  1.3583
  187DOPC   C3823075   7.819   0.092  13.895  0.7504 -0.4905  0.1810
  187DOPC   H8X23076   7.722   0.084  13.841  1.4898 -0.7750 -1.1480
  187DOPC   H8Y23077   7.806   0.167  13.977  0.0261 -1.8314  1.3288
  187DOPC   C3923078   7.864  -0.033  13.953 -0.0966 -0.1064 -0.6299
  187DOPC   H9X23079   7.823  -0.124  13.906  0.6640 -0.5666 -0.4301
  187DOPC  C31023080   7.948  -0.051  14.058 -0.3552 -0.3388  0.1963
  187DOPC  H10X23081   7.944  -0.153  14.099  0.4653 -0.8160 -0.8562
  187DOPC  C31123082   8.020   0.054  14.141 -0.1583 -1.3606 -0.4590
  187DOPC  H11X23083   8.021   0.149  14.084  0.3371 -1.1395 -0.0932
  187DOPC  H11Y23084   8.128   0.032  14.154 -0.2861 -1.9364 -0.3259
  187DOPC  C31223085   7.958   0.074  14.283  0.3892 -0.2032 -0.1268
  187DOPC  H12X23086   7.847   0.067  14.274  0.3838 -1.1442  0.5104
  187DOPC  H12Y23087   7.974   0.182  14.305  1.2131  0.1224 -2.0762
  187DOPC  C31323088   7.999  -0.028  14.393  0.3465  0.5118 -0.0213
  187DOPC  H13X23089   7.967  -0.001  14.496  1.1849  2.0096 -0.1229
  187DOPC  H13Y23090   7.958  -0.128  14.367 -2.1535  1.3403  0.4829
  187DOPC  C31423091   8.154  -0.040  14.410 -0.0637  0.2867 -0.3972
  187DOPC  H14X23092   8.179  -0.104  14.498 -0.6222 -0.0797 -0.5041
  187DOPC  H14Y23093   8.197  -0.109  14.333  0.9088  0.5643 -0.1207
  187DOPC  C31523094   8.232   0.085  14.435  0.4445 -0.1754  0.1874
  187DOPC  H15X23095   8.191   0.132  14.527 -0.9750  0.9906 -1.0046
  187DOPC  H15Y23096   8.210   0.151  14.349 -2.7761 -2.4207 -0.8957
  187DOPC  C31623097   8.388   0.057  14.445 -0.1766 -0.4520  0.1618
  187DOPC  H16X23098   8.417   0.014  14.346 -0.4256 -1.6182  0.5812
  187DOPC  H16Y23099   8.439   0.156  14.442 -1.1975  0.0743 -0.4481
  187DOPC  C31723100   8.441  -0.005  14.573  0.1772 -0.2201 -0.4157
  187DOPC  H17X23101   8.481   0.075  14.638  1.9879  0.2493 -2.0012
  187DOPC  H17Y23102   8.364  -0.058  14.632 -0.3646 -0.7999 -1.6082
  187DOPC  C31823103   8.561  -0.096  14.546 -0.5710 -0.5197  0.7925
  187DOPC  H18X23104   8.541  -0.171  14.466 -1.3220  0.0205  0.4561
  187DOPC  H18Y23105   8.648  -0.031  14.525 -2.3583  1.8321  0.2371
  187DOPC  H18Z23106   8.584  -0.146  14.642  3.6859  2.1545  1.4136
  188DOPC     N23107   2.649   1.738  12.729  0.4911  0.5155 -0.2672
  188DOPC   C1223108   2.780   1.664  12.759 -0.3134  0.3735  0.4830
  188DOPC  H12A23109   2.853   1.738  12.789 -1.0165  1.1556  0.2904
  188DOPC  H12B23110   2.832   1.631  12.671  1.6076  0.0468  1.6745
  188DOPC   C1323111   2.580   1.780  12.854  0.1155 -0.2070  0.3021
  188DOPC  H13A23112   2.568   1.687  12.909  2.2012 -1.7889 -1.7082
  188DOPC  H13B23113   2.641   1.839  12.921 -2.5421  0.8419  1.9269
  188DOPC  H13C23114   2.487   1.825  12.826 -0.0313 -0.4911  0.3262
  188DOPC   C1423115   2.559   1.662  12.640  0.8354  0.5513 -0.3750
  188DOPC  H14A23116   2.616   1.608  12.566 -0.6689 -1.5627 -0.0861
  188DOPC  H14B23117   2.531   1.572  12.693 -0.6106  1.7118  0.9316
  188DOPC  H14C23118   2.470   1.709  12.601 -1.0772 -2.6053 -0.1554
  188DOPC   C1523119   2.685   1.864  12.662  0.1425 -0.7269  0.2457
  188DOPC  H15A23120   2.763   1.909  12.722  0.4081 -0.3225 -0.3851
  188DOPC  H15B23121   2.605   1.935  12.657 -1.0536 -2.0603 -0.0847
  188DOPC  H15C23122   2.733   1.852  12.566  2.3929  0.0962  1.1914
  188DOPC   C1123123   2.781   1.537  12.850 -0.0564  0.5165  0.2501
  188DOPC  H11A23124   2.883   1.513  12.887 -0.7821 -0.7600  1.5324
  188DOPC  H11B23125   2.746   1.577  12.947  0.8725 -0.4129  0.9930
  188DOPC     P23126   2.750   1.347  12.690 -0.1651  0.3107  0.2858
  188DOPC   O1323127   2.792   1.429  12.574 -0.1771 -0.1498  0.3896
  188DOPC   O1423128   2.651   1.245  12.660 -0.4457 -0.5690 -0.1548
  188DOPC   O1223129   2.702   1.432  12.809 -0.3477  0.3151  0.1364
  188DOPC   O1123130   2.888   1.283  12.740  0.1354 -0.0138 -0.1415
  188DOPC    C123131   2.880   1.154  12.811 -0.3079 -0.3015  0.1520
  188DOPC    HA23132   2.780   1.106  12.812 -2.0570  2.8159 -2.5983
  188DOPC    HB23133   2.894   1.156  12.921 -0.6978 -1.5749  0.2424
  188DOPC    C223134   2.983   1.051  12.762 -0.7682  0.8360  0.0033
  188DOPC    HS23135   2.958   1.050  12.654  0.1742  1.8494 -0.2511
  188DOPC   O2123136   2.959   0.920  12.827 -0.3520 -0.1272  0.4856
  188DOPC   C2123137   2.847   0.851  12.790 -0.3166 -0.4303 -0.0842
  188DOPC   O2223138   2.771   0.888  12.702  0.2993 -0.3593 -0.4660
  188DOPC   C2223139   2.827   0.737  12.889  0.4779  0.2220  0.1754
  188DOPC   H2R23140   2.867   0.764  12.989  0.7998 -2.3041  0.8157
  188DOPC   H2S23141   2.885   0.650  12.851  0.3959 -0.5116  1.6576
  188DOPC    C323142   3.128   1.096  12.787  0.4959  0.0133 -0.2165
  188DOPC    HX23143   3.137   1.193  12.734  0.1692  1.1083  1.6640
  188DOPC    HY23144   3.196   1.017  12.750 -2.2765 -2.3818 -0.5746
  188DOPC   O3123145   3.153   1.130  12.930 -0.7649 -0.2971  0.2975
  188DOPC   C3123146   3.175   1.025  13.001 -0.3525 -0.5856 -0.6714
  188DOPC   O3223147   3.205   0.913  12.961  0.4577  0.1781 -0.1946
  188DOPC   C3223148   3.176   1.060  13.146 -0.1727 -0.0092 -0.3411
  188DOPC   H2X23149   3.235   0.984  13.201  0.3437  0.5840 -0.0726
  188DOPC   H2Y23150   3.238   1.151  13.159  2.4388 -1.7048 -0.2234
  188DOPC   C2323151   2.681   0.682  12.917  0.4464 -0.1683  0.3731
  188DOPC   H3R23152   2.620   0.775  12.925 -0.7939 -0.9547  0.2633
  188DOPC   H3S23153   2.682   0.633  13.016  0.3349 -2.4679 -0.7055
  188DOPC   C2423154   2.618   0.601  12.807 -0.0548  0.4670  0.2079
  188DOPC   H4R23155   2.698   0.527  12.789 -0.4521  0.0472  0.1547
  188DOPC   H4S23156   2.583   0.660  12.720  0.4992 -2.9185 -2.5092
  188DOPC   C2523157   2.499   0.516  12.861 -0.2251  0.3293  0.0929
  188DOPC   H5R23158   2.430   0.508  12.774  0.3134  1.9647 -0.5325
  188DOPC   H5S23159   2.448   0.568  12.945  0.3127 -0.5003  0.9511
  188DOPC   C2623160   2.544   0.382  12.912 -0.3160 -0.0913  0.2897
  188DOPC   H6R23161   2.620   0.389  12.993  0.7175  0.3361 -0.6995
  188DOPC   H6S23162   2.590   0.327  12.827 -2.0556 -0.2785 -0.5843
  188DOPC   C2723163   2.434   0.281  12.953 -0.4166 -0.0690  0.3144
  188DOPC   H7R23164   2.407   0.325  13.051 -0.1947 -0.6827  0.6573
  188DOPC   H7S23165   2.480   0.185  12.984  0.9442  0.4185 -0.1019
  188DOPC   C2823166   2.314   0.278  12.855  0.1156 -0.2997 -0.2154
  188DOPC   H8R23167   2.329   0.229  12.756 -2.4382  0.1071 -0.8868
  188DOPC   H8S23168   2.269   0.377  12.832 -1.6275 -0.9486  0.2694
  188DOPC   C2923169   2.206   0.191  12.911 -0.1090 -0.2239 -0.0165
  188DOPC   H9R23170   2.233   0.084  12.906  0.5243 -0.0074 -2.5494
  188DOPC  C21023171   2.090   0.232  12.978 -0.6966  0.2048  0.6477
  188DOPC  H10R23172   2.034   0.145  13.014  0.5546 -0.8463  0.1474
  188DOPC  C21123173   2.059   0.366  13.032  0.2407 -0.1796 -0.0859
  188DOPC  H11R23174   1.973   0.404  12.973 -0.2498  1.2520  1.4924
  188DOPC  H11S23175   2.145   0.436  13.033 -0.9406  1.2933  0.6389
  188DOPC  C21223176   2.015   0.362  13.179  0.3731  0.0666  0.1887
  188DOPC  H12R23177   2.086   0.318  13.252  1.9373  3.8751  1.2469
  188DOPC  H12S23178   1.919   0.306  13.178  0.9886 -1.0221  0.4050
  188DOPC  C21323179   1.993   0.504  13.229 -0.3425 -1.0193 -0.8910
  188DOPC  H13R23180   1.944   0.567  13.151  0.1788  1.2535  0.4987
  188DOPC  H13S23181   2.091   0.550  13.257 -0.7172 -0.7194 -0.0414
  188DOPC  C21423182   1.891   0.518  13.338  0.1191 -0.2348 -0.2197
  188DOPC  H14R23183   1.787   0.505  13.299  0.7142 -0.6485 -1.7648
  188DOPC  H14S23184   1.894   0.622  13.376  0.3147 -0.4996  0.4894
  188DOPC  C21523185   1.914   0.422  13.448 -0.5510 -0.1124 -0.4353
  188DOPC  H15R23186   2.010   0.415  13.503 -0.1484  1.4438 -0.8986
  188DOPC  H15S23187   1.900   0.319  13.409  1.8058 -1.1389  1.1740
  188DOPC  C21623188   1.810   0.455  13.560  0.2516 -0.1343 -0.5306
  188DOPC  H16R23189   1.712   0.468  13.509  0.2938  1.3297 -0.2854
  188DOPC  H16S23190   1.825   0.550  13.616 -0.1371  0.9985 -2.2810
  188DOPC  C21723191   1.807   0.335  13.654 -0.4236  0.3500  0.6771
  188DOPC  H17R23192   1.903   0.329  13.709 -0.2699  0.9512  0.4835
  188DOPC  H17S23193   1.793   0.248  13.588 -0.8046  1.5471 -0.8872
  188DOPC  C21823194   1.693   0.330  13.759 -0.0357 -0.0045  0.2883
  188DOPC  H18R23195   1.695   0.425  13.815  0.4594  1.2244 -1.7167
  188DOPC  H18S23196   1.702   0.250  13.835  0.8957 -1.1873 -1.0142
  188DOPC  H18T23197   1.594   0.326  13.708 -0.4741 -0.1726  1.1269
  188DOPC   C3323198   3.039   1.082  13.213  0.0739 -0.2168 -0.1991
  188DOPC   H3X23199   2.973   0.993  13.208  1.2295 -1.1949  1.0774
  188DOPC   H3Y23200   2.995   1.164  13.152  2.5519  1.1106 -0.3543
  188DOPC   C3423201   3.066   1.138  13.357 -0.2186 -0.0916  0.9882
  188DOPC   H4X23202   2.977   1.191  13.396  0.3265  1.9205 -0.3404
  188DOPC   H4Y23203   3.142   1.217  13.338 -1.3514  0.9284  0.5840
  188DOPC   C3523204   3.123   1.027  13.456 -0.6547 -0.4298 -0.2395
  188DOPC   H5X23205   3.223   1.065  13.484 -1.7025  3.1285 -0.8713
  188DOPC   H5Y23206   3.121   0.929  13.404 -0.6567 -0.0563 -0.9613
  188DOPC   C3623207   3.034   1.015  13.587 -0.5536 -0.1003  0.4132
  188DOPC   H6X23208   3.091   0.968  13.670 -1.9674  1.0737  2.1245
  188DOPC   H6Y23209   3.014   1.119  13.619 -3.0480 -0.2870 -0.2632
  188DOPC   C3723210   2.903   0.931  13.564 -0.1891 -0.5045  0.0872
  188DOPC   H7X23211   2.861   0.935  13.666  0.8075  0.6199  0.4764
  188DOPC   H7Y23212   2.825   0.983  13.503  0.8795 -0.9435 -1.7386
  188DOPC   C3823213   2.929   0.785  13.518  0.2448  0.2597 -0.0223
  188DOPC   H8X23214   2.863   0.714  13.572 -2.7355  0.9238 -2.5424
  188DOPC   H8Y23215   3.034   0.759  13.545  0.3227 -0.6801 -1.1584
  188DOPC   C3923216   2.907   0.751  13.371  0.5971 -0.0634  1.2035
  188DOPC   H9X23217   3.000   0.758  13.313  1.0596 -0.1785  1.9143
  188DOPC  C31023218   2.794   0.716  13.306  0.0255 -0.3900  0.6922
  188DOPC  H10X23219   2.782   0.719  13.197 -1.0697  1.4157  0.8145
  188DOPC  C31123220   2.659   0.705  13.369  0.4446 -0.1945  0.2408
  188DOPC  H11X23221   2.609   0.788  13.314  3.6501  1.1555 -0.8961
  188DOPC  H11Y23222   2.657   0.714  13.479  0.8388  0.0965  0.2261
  188DOPC  C31223223   2.586   0.576  13.328  0.3074  0.2506  0.4033
  188DOPC  H12X23224   2.653   0.493  13.357  3.4126  3.1683  2.4109
  188DOPC  H12Y23225   2.561   0.567  13.220  1.4457 -2.1274  0.2873
  188DOPC  C31323226   2.458   0.558  13.408  0.0324 -0.4115  0.2431
  188DOPC  H13X23227   2.490   0.537  13.512 -2.0423  0.0554  1.0159
  188DOPC  H13Y23228   2.397   0.650  13.404 -0.8363 -0.9632 -4.2160
  188DOPC  C31423229   2.374   0.442  13.343 -0.4662  0.7169 -0.0591
  188DOPC  H14X23230   2.273   0.447  13.390 -0.0922  1.8235  0.6585
  188DOPC  H14Y23231   2.354   0.440  13.234  2.1035 -0.7496 -0.5704
  188DOPC  C31523232   2.441   0.310  13.381  0.1582 -0.2887 -0.2598
  188DOPC  H15X23233   2.456   0.303  13.491  2.3340 -1.5035 -0.5732
  188DOPC  H15Y23234   2.545   0.316  13.344  0.9213  0.4399  1.8225
  188DOPC  C31623235   2.376   0.182  13.324 -0.9542  0.3476  0.5460
  188DOPC  H16X23236   2.267   0.169  13.339 -1.0531 -1.5394 -1.4034
  188DOPC  H16Y23237   2.379   0.194  13.214 -2.0177  1.3132  0.6059
  188DOPC  C31723238   2.447   0.060  13.385 -0.1665  0.4550 -0.6085
  188DOPC  H17X23239   2.553   0.065  13.353 -0.5631  3.7551 -1.8280
  188DOPC  H17Y23240   2.432   0.067  13.495  0.9806 -1.3442 -0.2917
  188DOPC  C31823241   2.379  -0.071  13.348  0.1928 -0.2194 -0.2219
  188DOPC  H18X23242   2.272  -0.070  13.378  0.5950  1.5449  1.3558
  188DOPC  H18Y23243   2.397  -0.088  13.240  2.2239  0.2480  0.0015
  188DOPC  H18Z23244   2.437  -0.156  13.391  1.9676  0.8619 -0.3757
  189DOPC     N23245   5.065   1.059  12.420  0.0859 -0.8827 -0.0223
  189DOPC   C1223246   4.922   1.083  12.387 -0.0420  0.2112 -0.2996
  189DOPC  H12A23247   4.902   1.030  12.295  1.7596 -1.6722  0.3188
  189DOPC  H12B23248   4.907   1.184  12.352 -2.3274  0.0070 -0.0419
  189DOPC   C1323249   5.160   1.084  12.311  0.5153  0.4785 -0.1605
  189DOPC  H13A23250   5.154   1.189  12.286  0.4345  0.4301 -0.3460
  189DOPC  H13B23251   5.260   1.053  12.335 -0.5869 -0.7269  3.6863
  189DOPC  H13C23252   5.135   1.033  12.220 -0.9596  0.2620  0.3416
  189DOPC   C1423253   5.093   0.913  12.459  1.1214 -0.2121 -0.0987
  189DOPC  H14A23254   5.190   0.916  12.507  1.5002  1.6531 -0.9067
  189DOPC  H14B23255   5.022   0.879  12.533 -0.3507  1.9367 -0.4327
  189DOPC  H14C23256   5.082   0.854  12.369  0.6117  2.1031 -1.6323
  189DOPC   C1523257   5.108   1.140  12.539 -0.6187  1.2397  0.0546
  189DOPC  H15A23258   5.036   1.145  12.620  0.3598  2.1085  0.8971
  189DOPC  H15B23259   5.118   1.241  12.502  0.4669  0.4401 -2.0323
  189DOPC  H15C23260   5.198   1.104  12.585 -0.3651 -1.4471 -2.2467
  189DOPC   C1123261   4.820   1.056  12.492  0.1873 -0.8854 -0.4657
  189DOPC  H11A23262   4.841   1.106  12.589  2.1319 -1.9790 -0.2647
  189DOPC  H11B23263   4.723   1.108  12.479  1.4921  1.8749 -0.0172
  189DOPC     P23264   4.736   0.831  12.390  0.1130 -0.2020 -0.2041
  189DOPC   O1323265   4.842   0.740  12.341  0.1417 -0.3699 -0.2391
  189DOPC   O1423266   4.679   0.925  12.290  0.1284 -0.1975 -0.4374
  189DOPC   O1223267   4.804   0.914  12.505 -0.3964  0.2340  0.4952
  189DOPC   O1123268   4.617   0.759  12.465 -0.1711 -0.3662  0.1943
  189DOPC    C123269   4.644   0.668  12.569  0.1955  0.0891  1.0116
  189DOPC    HA23270   4.717   0.716  12.637  0.9581  0.8196 -0.2843
  189DOPC    HB23271   4.703   0.580  12.535  0.6332  0.8880 -0.3608
  189DOPC    C223272   4.515   0.613  12.627  0.2990  1.1216 -0.2365
  189DOPC    HS23273   4.454   0.561  12.550  1.6466  1.0167 -1.2655
  189DOPC   O2123274   4.452   0.724  12.699 -0.3438  0.3854 -0.0923
  189DOPC   C2123275   4.337   0.699  12.756  0.9085 -0.3033  0.8377
  189DOPC   O2223276   4.265   0.604  12.738  0.0805 -0.2417  0.1637
  189DOPC   C2223277   4.296   0.822  12.842  0.9588  0.7445 -0.7886
  189DOPC   H2R23278   4.288   0.919  12.790  2.5558  2.2265  1.5571
  189DOPC   H2S23279   4.372   0.841  12.921  0.5320  0.8509 -0.4005
  189DOPC    C323280   4.547   0.498  12.726  0.8538 -0.5829 -0.0705
  189DOPC    HX23281   4.608   0.420  12.677  1.1820  0.7212 -1.8165
  189DOPC    HY23282   4.457   0.446  12.766  0.1383  2.4623  2.6996
  189DOPC   O3123283   4.615   0.542  12.841 -0.3856  0.1902 -0.4141
  189DOPC   C3123284   4.684   0.445  12.910  0.0627 -0.4674 -0.2784
  189DOPC   O3223285   4.686   0.324  12.897 -0.0040 -0.4052 -0.1356
  189DOPC   C3223286   4.763   0.517  13.023 -0.7511  0.1950  0.1283
  189DOPC   H2X23287   4.828   0.591  12.972 -1.6494  0.2658 -0.9553
  189DOPC   H2Y23288   4.691   0.569  13.090  1.7746  1.9648  1.6461
  189DOPC   C2323289   4.169   0.795  12.920  0.8689  0.0483  0.4406
  189DOPC   H3R23290   4.169   0.869  13.002 -2.7530 -1.4213  1.9991
  189DOPC   H3S23291   4.162   0.694  12.967 -0.7092  0.6896  1.6432
  189DOPC   C2423292   4.034   0.820  12.844  0.1951  0.1490  0.2093
  189DOPC   H4R23293   4.008   0.734  12.779  0.4688  0.0070  0.2900
  189DOPC   H4S23294   4.062   0.908  12.783  0.7827 -1.0742 -1.3486
  189DOPC   C2523295   3.919   0.844  12.936  0.0423 -0.8291 -0.4837
  189DOPC   H5R23296   3.871   0.942  12.917 -0.7862 -0.9985  0.6300
  189DOPC   H5S23297   3.950   0.850  13.043  1.6943  0.4429 -0.9928
  189DOPC   C2623298   3.810   0.741  12.922 -0.0446 -0.4900 -0.0618
  189DOPC   H6R23299   3.767   0.749  12.820 -1.5861  2.1025  0.7000
  189DOPC   H6S23300   3.725   0.768  12.988 -0.5447  0.1439 -0.9351
  189DOPC   C2723301   3.859   0.598  12.944  0.0236 -0.0137 -0.3682
  189DOPC   H7R23302   3.939   0.581  12.869  1.1199  0.9481  0.5312
  189DOPC   H7S23303   3.782   0.524  12.914 -0.0523  0.4267 -1.2872
  189DOPC   C2823304   3.921   0.560  13.082  0.0005 -0.5187  0.1594
  189DOPC   H8R23305   4.007   0.624  13.111  0.4958 -1.2915  0.4203
  189DOPC   H8S23306   3.961   0.458  13.070 -1.1790 -0.9907  0.0795
  189DOPC   C2923307   3.815   0.566  13.191  0.6067 -0.2765  0.2888
  189DOPC   H9R23308   3.782   0.669  13.214  3.5490  0.6339  0.9188
  189DOPC  C21023309   3.743   0.470  13.238  0.8706  0.0414  0.9747
  189DOPC  H10R23310   3.664   0.499  13.309 -1.3168  0.3388 -1.4096
  189DOPC  C21123311   3.748   0.328  13.191  0.0838  0.5315  0.1488
  189DOPC  H11R23312   3.793   0.255  13.261  0.8329  0.3009 -0.5497
  189DOPC  H11S23313   3.815   0.307  13.105  1.4433 -2.4520  1.7851
  189DOPC  C21223314   3.614   0.268  13.150 -0.1767 -0.2710 -0.5427
  189DOPC  H12R23315   3.583   0.309  13.052 -0.0554 -4.2585 -2.4284
  189DOPC  H12S23316   3.537   0.293  13.226 -2.0109 -1.1667 -2.0305
  189DOPC  C21323317   3.610   0.114  13.136 -0.5929  0.2803 -0.0195
  189DOPC  H13R23318   3.651   0.059  13.224  0.0778 -1.1287 -1.1690
  189DOPC  H13S23319   3.674   0.091  13.049 -1.0284  0.5258 -0.4096
  189DOPC  C21423320   3.476   0.058  13.085  0.0806 -0.2972 -0.4089
  189DOPC  H14R23321   3.503  -0.045  13.053  0.6013  0.1653 -1.4778
  189DOPC  H14S23322   3.440   0.117  12.998  0.1555 -0.1190 -0.3183
  189DOPC  C21523323   3.375   0.038  13.195  0.1049 -0.0894  0.7025
  189DOPC  H15R23324   3.343   0.141  13.222  1.0409 -0.0872  1.8627
  189DOPC  H15S23325   3.430   0.004  13.285  0.6362 -0.3272  0.2963
  189DOPC  C21623326   3.259  -0.057  13.158 -0.1231 -0.0342  0.1681
  189DOPC  H16R23327   3.302  -0.150  13.114  0.9857 -0.4988  2.0777
  189DOPC  H16S23328   3.190  -0.029  13.076 -0.1803 -1.7247 -0.4052
  189DOPC  C21723329   3.173  -0.107  13.275  0.4759  0.1371 -0.1576
  189DOPC  H17R23330   3.086  -0.169  13.244 -0.7384  2.8621 -2.7945
  189DOPC  H17S23331   3.122  -0.015  13.312 -2.0618 -1.6719  1.1270
  189DOPC  C21823332   3.258  -0.182  13.377 -0.3782  0.9953 -0.0481
  189DOPC  H18R23333   3.330  -0.249  13.325 -0.0699  2.3967 -1.4857
  189DOPC  H18S23334   3.192  -0.246  13.440 -1.4262 -0.4838 -2.4641
  189DOPC  H18T23335   3.310  -0.113  13.446 -0.4830  1.5236 -0.4905
  189DOPC   C3323336   4.846   0.417  13.120  0.0394  0.3458 -0.4683
  189DOPC   H3X23337   4.900   0.344  13.056  3.2636  1.2249  1.0768
  189DOPC   H3Y23338   4.775   0.370  13.192  0.2883  1.1920  0.3466
  189DOPC   C3423339   4.964   0.482  13.193  0.0563  0.4614 -0.5235
  189DOPC   H4X23340   5.020   0.536  13.114  0.8094 -2.0067 -1.7883
  189DOPC   H4Y23341   5.022   0.406  13.250  0.8594  0.9693 -0.6464
  189DOPC   C3523342   4.922   0.602  13.288  0.0431  0.1505 -0.0714
  189DOPC   H5X23343   4.837   0.574  13.354  1.0780  0.3753  1.4148
  189DOPC   H5Y23344   4.886   0.691  13.231  1.7465  0.4723 -0.7041
  189DOPC   C3623345   5.045   0.662  13.362  0.3785 -0.6093  0.2111
  189DOPC   H6X23346   5.000   0.729  13.438 -0.5622 -1.0385  0.0387
  189DOPC   H6Y23347   5.101   0.582  13.416  0.5844 -1.9212 -1.8080
  189DOPC   C3723348   5.151   0.733  13.279 -0.4495 -0.6564  0.3124
  189DOPC   H7X23349   5.178   0.655  13.204 -2.3363 -0.9286 -0.1541
  189DOPC   H7Y23350   5.102   0.821  13.232  1.0039 -0.3476 -0.6886
  189DOPC   C3823351   5.269   0.786  13.366  0.0935 -0.0578  0.4262
  189DOPC   H8X23352   5.293   0.708  13.442 -1.4344  0.1559  1.1743
  189DOPC   H8Y23353   5.231   0.866  13.433  0.1114 -1.0191  1.6304
  189DOPC   C3923354   5.383   0.827  13.283  0.3261 -0.0863  0.5606
  189DOPC   H9X23355   5.349   0.889  13.199  1.2672  1.8134  1.5065
  189DOPC  C31023356   5.509   0.785  13.284  0.0682  0.0259 -1.2849
  189DOPC  H10X23357   5.573   0.834  13.209 -0.6705  2.4882 -0.3988
  189DOPC  C31123358   5.565   0.696  13.397  0.2018 -0.1654  1.1571
  189DOPC  H11X23359   5.603   0.599  13.358 -2.2302 -0.7435  0.0577
  189DOPC  H11Y23360   5.484   0.668  13.468 -1.6245 -1.5919 -1.3512
  189DOPC  C31223361   5.683   0.740  13.478  0.5639  0.2393  0.0757
  189DOPC  H12X23362   5.756   0.801  13.420  1.8548 -0.7908  0.5646
  189DOPC  H12Y23363   5.742   0.653  13.514  2.0240 -0.0533 -2.6877
  189DOPC  C31323364   5.630   0.821  13.592 -0.0241 -0.8362 -0.2835
  189DOPC  H13X23365   5.571   0.902  13.544  0.8551 -0.5545 -0.9097
  189DOPC  H13Y23366   5.574   0.765  13.670  0.9416  0.7094  1.6132
  189DOPC  C31423367   5.745   0.891  13.672  0.3265 -0.7175 -0.6990
  189DOPC  H14X23368   5.829   0.827  13.705  1.3117 -0.0623 -1.8761
  189DOPC  H14Y23369   5.781   0.972  13.605 -2.1717 -0.7426 -2.2250
  189DOPC  C31523370   5.687   0.951  13.801  0.1140  0.3569  0.1286
  189DOPC  H15X23371   5.767   0.987  13.868  0.0296  2.4834 -0.8416
  189DOPC  H15Y23372   5.617   0.873  13.841 -0.2570 -0.9801 -2.8858
  189DOPC  C31623373   5.615   1.080  13.774  0.0154  0.4678 -0.9457
  189DOPC  H16X23374   5.684   1.150  13.722 -0.3362  1.8881  0.4268
  189DOPC  H16Y23375   5.527   1.052  13.711 -0.6175 -1.5374  0.6859
  189DOPC  C31723376   5.559   1.156  13.895 -0.0987 -0.5416  0.7349
  189DOPC  H17X23377   5.508   1.079  13.957 -2.8551  0.9258  0.4501
  189DOPC  H17Y23378   5.639   1.205  13.954 -0.6480  0.4330  0.7011
  189DOPC  C31823379   5.458   1.267  13.852  0.1092 -0.1854  0.0289
  189DOPC  H18X23380   5.391   1.223  13.776 -0.3750  0.4537  0.0769
  189DOPC  H18Y23381   5.404   1.307  13.941 -0.5160 -0.6668 -0.1263
  189DOPC  H18Z23382   5.517   1.350  13.808  1.8624  0.4126  3.2340
  190DOPC     N23383   1.255   7.870  11.711 -0.0501 -0.1181 -0.0117
  190DOPC   C1223384   1.340   7.889  11.833 -0.0303  0.5583  0.0697
  190DOPC  H12A23385   1.417   7.963  11.815 -0.3263  0.9170  0.2742
  190DOPC  H12B23386   1.394   7.797  11.847 -1.2362 -0.2813 -0.6106
  190DOPC   C1323387   1.356   7.821  11.611 -0.5478 -0.2307  0.3835
  190DOPC  H13A23388   1.418   7.904  11.581  0.2815 -0.8220  0.4220
  190DOPC  H13B23389   1.423   7.747  11.652 -1.1804 -1.5954 -0.9877
  190DOPC  H13C23390   1.316   7.776  11.522 -1.1585 -2.5627  1.7464
  190DOPC   C1423391   1.187   8.000  11.659 -0.6517 -0.0543  0.1074
  190DOPC  H14A23392   1.119   8.037  11.735  2.1133  1.0662  2.1859
  190DOPC  H14B23393   1.260   8.080  11.658 -0.0846 -0.5531 -1.3350
  190DOPC  H14C23394   1.136   7.983  11.565 -2.4449 -1.2043  1.2197
  190DOPC   C1523395   1.153   7.762  11.732  0.5105  0.0235  0.2676
  190DOPC  H15A23396   1.127   7.726  11.633 -0.7115  2.2019 -0.2627
  190DOPC  H15B23397   1.066   7.800  11.784  0.0753 -0.6898  0.0779
  190DOPC  H15C23398   1.194   7.678  11.786 -2.0843 -0.3649  1.8280
  190DOPC   C1123399   1.269   7.924  11.964  0.4665  0.2156 -0.6340
  190DOPC  H11A23400   1.166   7.882  11.959  0.0420  1.2282 -0.5441
  190DOPC  H11B23401   1.329   7.876  12.045 -0.1674  0.6395  0.1053
  190DOPC     P23402   1.386   8.150  12.020 -0.0307  0.3241  0.4213
  190DOPC   O1323403   1.394   8.271  11.930 -0.0980  0.1760 -0.0247
  190DOPC   O1423404   1.503   8.059  12.017  0.2669 -0.1434 -0.4287
  190DOPC   O1223405   1.261   8.068  11.984  0.1112  0.0279  0.4825
  190DOPC   O1123406   1.348   8.197  12.169  0.1473  0.0441 -0.3703
  190DOPC    C123407   1.409   8.128  12.280  0.7940  0.3834  0.6143
  190DOPC    HA23408   1.517   8.111  12.262  1.0520  0.9172  1.6263
  190DOPC    HB23409   1.360   8.029  12.295 -2.0429  0.9963 -3.0569
  190DOPC    C223410   1.391   8.201  12.409 -0.6446  0.5352 -0.1438
  190DOPC    HS23411   1.281   8.191  12.425 -0.8752  1.7549 -0.7889
  190DOPC   O2123412   1.438   8.338  12.400  0.1975  0.4749 -0.4399
  190DOPC   C2123413   1.374   8.417  12.481 -0.1693  0.6727  0.5270
  190DOPC   O2223414   1.275   8.396  12.546  0.2004 -0.1096 -0.5841
  190DOPC   C2223415   1.450   8.546  12.482 -0.9806 -0.0224 -0.9209
  190DOPC   H2R23416   1.420   8.609  12.568 -0.9585  1.4359 -1.9541
  190DOPC   H2S23417   1.416   8.592  12.387 -0.8771 -0.5847 -1.2370
  190DOPC    C323418   1.467   8.123  12.522 -0.0862 -0.4649  0.4328
  190DOPC    HX23419   1.574   8.145  12.500 -0.3581  0.1387 -0.3194
  190DOPC    HY23420   1.445   8.015  12.512 -1.2855 -0.3240  1.3620
  190DOPC   O3123421   1.433   8.178  12.651 -0.1687  0.4201 -0.4613
  190DOPC   C3123422   1.479   8.121  12.755  0.0939 -0.1842 -0.5797
  190DOPC   O3223423   1.555   8.028  12.748 -0.6004  0.1569 -0.1368
  190DOPC   C3223424   1.417   8.184  12.879  0.4593  0.4535 -0.2223
  190DOPC   H2X23425   1.443   8.292  12.891 -2.6155  1.1313  1.4865
  190DOPC   H2Y23426   1.310   8.183  12.850  0.5568 -0.0466 -0.5804
  190DOPC   C2323427   1.604   8.527  12.487 -0.4401 -0.5101  0.5765
  190DOPC   H3R23428   1.654   8.626  12.492 -2.5627  0.5387  3.1923
  190DOPC   H3S23429   1.633   8.477  12.392  0.0629 -2.6465  1.7995
  190DOPC   C2423430   1.651   8.448  12.606 -0.1283  0.9491 -0.6991
  190DOPC   H4R23431   1.625   8.340  12.606 -0.2330  0.8339  3.0363
  190DOPC   H4S23432   1.590   8.489  12.689 -0.1597 -2.9965  1.4914
  190DOPC   C2523433   1.799   8.461  12.635  0.3333 -0.2350 -0.0841
  190DOPC   H5R23434   1.830   8.563  12.668  0.8135  0.0472 -1.3194
  190DOPC   H5S23435   1.852   8.443  12.539 -1.3677  0.1897 -1.1491
  190DOPC   C2623436   1.846   8.353  12.738 -0.0618 -0.3517  0.1325
  190DOPC   H6R23437   1.956   8.337  12.739 -0.3258 -2.7726 -1.1580
  190DOPC   H6S23438   1.800   8.259  12.699  0.8207 -1.1619  0.9704
  190DOPC   C2723439   1.790   8.377  12.879 -0.0985  0.4594  0.3905
  190DOPC   H7R23440   1.680   8.370  12.865  0.2842 -0.8865 -3.1630
  190DOPC   H7S23441   1.824   8.476  12.915 -0.7454  1.2092 -0.9705
  190DOPC   C2823442   1.821   8.252  12.978 -0.4018  0.7281  0.5612
  190DOPC   H8R23443   1.759   8.167  12.943 -1.5656  1.9192 -0.3694
  190DOPC   H8S23444   1.792   8.287  13.080  0.0424 -2.4970  1.9312
  190DOPC   C2923445   1.962   8.205  12.981 -0.9309 -0.6263 -0.2600
  190DOPC   H9R23446   1.996   8.136  12.902 -1.1218  1.6169 -2.3982
  190DOPC  C21023447   2.059   8.259  13.062 -0.1808 -0.2858 -0.2890
  190DOPC  H10R23448   2.157   8.209  13.062  2.6405  4.4618  2.0754
  190DOPC  C21123449   2.039   8.357  13.173  0.4906 -0.7191  0.5561
  190DOPC  H11R23450   1.985   8.438  13.119 -0.8508 -2.2907 -0.5432
  190DOPC  H11S23451   2.140   8.398  13.193  0.4884 -0.8245  0.7853
  190DOPC  C21223452   1.959   8.302  13.294 -0.8239 -0.2464  0.0829
  190DOPC  H12R23453   2.020   8.225  13.347  0.4111  0.6914  0.0663
  190DOPC  H12S23454   1.869   8.251  13.253 -0.6794  1.2515 -2.2412
  190DOPC  C21323455   1.925   8.403  13.402 -0.6958 -0.6479  0.1505
  190DOPC  H13R23456   1.874   8.488  13.353  3.0376  0.1366 -2.8738
  190DOPC  H13S23457   2.019   8.450  13.439  0.1117  0.1674 -2.7108
  190DOPC  C21423458   1.838   8.344  13.522 -0.2199  0.0928 -0.0650
  190DOPC  H14R23459   1.872   8.396  13.614  0.4684 -1.4479  0.5879
  190DOPC  H14S23460   1.859   8.237  13.545  0.7080  0.8879  3.4185
  190DOPC  C21523461   1.687   8.358  13.487 -0.2108  0.2584  0.3177
  190DOPC  H15R23462   1.668   8.293  13.400  0.0996  0.3972  0.1448
  190DOPC  H15S23463   1.660   8.463  13.463  0.8309  0.7469  1.1720
  190DOPC  C21623464   1.597   8.308  13.591 -0.3628  0.4060 -0.6080
  190DOPC  H16R23465   1.631   8.207  13.620 -1.5608 -0.3207 -1.6339
  190DOPC  H16S23466   1.489   8.301  13.566 -1.0619 -0.5161  2.2594
  190DOPC  C21723467   1.600   8.388  13.726 -0.4362 -1.0659 -0.1965
  190DOPC  H17R23468   1.565   8.493  13.722  0.8310 -0.6617 -1.7442
  190DOPC  H17S23469   1.703   8.405  13.765 -0.4937 -0.9061 -0.1136
  190DOPC  C21823470   1.514   8.313  13.831  0.0842  0.0601 -0.0036
  190DOPC  H18R23471   1.412   8.334  13.793  0.7184 -0.7325 -2.3207
  190DOPC  H18S23472   1.510   8.363  13.930 -0.6246  3.7357 -1.6885
  190DOPC  H18T23473   1.539   8.205  13.832 -0.7217 -0.1353 -0.0719
  190DOPC   C3323474   1.435   8.112  13.012 -0.2151 -0.4143 -0.1742
  190DOPC   H3X23475   1.540   8.103  13.045 -0.5989  0.8893  1.5629
  190DOPC   H3Y23476   1.414   8.005  12.991  1.3940 -0.5167 -1.4294
  190DOPC   C3423477   1.342   8.175  13.119  0.1284 -0.0118 -0.2761
  190DOPC   H4X23478   1.234   8.176  13.092  0.0197  0.5818  0.1539
  190DOPC   H4Y23479   1.366   8.283  13.127 -3.3601  0.8628 -0.1359
  190DOPC   C3523480   1.342   8.094  13.251 -0.0856 -0.1887 -0.2106
  190DOPC   H5X23481   1.445   8.091  13.293 -0.9422 -0.9686  2.0358
  190DOPC   H5Y23482   1.318   7.986  13.241 -1.7732  0.3220 -2.3272
  190DOPC   C3623483   1.252   8.154  13.357 -0.7426 -0.4612 -0.3986
  190DOPC   H6X23484   1.148   8.121  13.336 -0.6687  0.1428 -1.7623
  190DOPC   H6Y23485   1.286   8.103  13.450  1.1940  0.3827 -0.6126
  190DOPC   C3723486   1.257   8.313  13.366  0.0414 -0.0761 -0.1387
  190DOPC   H7X23487   1.363   8.347  13.372 -0.0155  0.0503  0.1910
  190DOPC   H7Y23488   1.227   8.358  13.268 -2.5686 -0.8115  0.2498
  190DOPC   C3823489   1.159   8.377  13.467  0.7627 -0.0938 -0.1973
  190DOPC   H8X23490   1.053   8.383  13.435  0.4655  1.1805  0.9034
  190DOPC   H8Y23491   1.195   8.482  13.462  0.9356 -0.1854 -0.8806
  190DOPC   C3923492   1.168   8.334  13.612  0.0614 -0.3611 -0.0136
  190DOPC   H9X23493   1.260   8.278  13.633  0.3575  0.6237  1.4641
  190DOPC  C31023494   1.071   8.336  13.705  0.6567  0.3817 -0.1226
  190DOPC  H10X23495   1.098   8.308  13.807  0.8011 -2.6827 -0.9089
  190DOPC  C31123496   0.932   8.390  13.679 -0.0888 -0.6497  0.5914
  190DOPC  H11X23497   0.867   8.299  13.681  0.6587 -1.2226 -0.3796
  190DOPC  H11Y23498   0.921   8.433  13.577  0.0307 -1.5025  0.2078
  190DOPC  C31223499   0.872   8.486  13.778 -0.2425  0.3913  0.3880
  190DOPC  H12X23500   0.922   8.586  13.774 -2.4003  1.4915 -0.8461
  190DOPC  H12Y23501   0.880   8.442  13.880 -0.3996  0.9630  0.6543
  190DOPC  C31323502   0.734   8.508  13.724  0.4568 -0.1716 -0.6868
  190DOPC  H13X23503   0.729   8.553  13.622  0.4513  2.5301  0.4195
  190DOPC  H13Y23504   0.689   8.407  13.710 -1.5897  0.7234 -0.8628
  190DOPC  C31423505   0.638   8.575  13.830 -0.6438 -0.2243  0.0053
  190DOPC  H14X23506   0.657   8.517  13.923 -1.7783  0.0440  0.4206
  190DOPC  H14Y23507   0.658   8.684  13.827  2.5258 -0.6863  1.1399
  190DOPC  C31523508   0.478   8.560  13.805  0.0483  0.0730  0.1275
  190DOPC  H15X23509   0.425   8.625  13.879  0.0367 -0.2708  0.4232
  190DOPC  H15Y23510   0.440   8.455  13.808  0.2531 -0.0370 -0.8239
  190DOPC  C31623511   0.445   8.601  13.661  0.5971  0.0438 -0.2165
  190DOPC  H16X23512   0.481   8.706  13.649 -0.8653  0.5242 -0.5071
  190DOPC  H16Y23513   0.515   8.550  13.592  1.1282  0.6588 -0.1505
  190DOPC  C31723514   0.303   8.580  13.617  0.7698 -0.2369 -1.0021
  190DOPC  H17X23515   0.266   8.476  13.615 -0.6750  0.2516 -0.5631
  190DOPC  H17Y23516   0.231   8.632  13.684  1.6580  0.6490 -0.7091
  190DOPC  C31823517   0.278   8.626  13.471  0.4070  0.1157 -0.2957
  190DOPC  H18X23518   0.342   8.716  13.454  1.0965 -0.3395 -0.1637
  190DOPC  H18Y23519   0.318   8.546  13.405  0.3809 -1.0184  1.0094
  190DOPC  H18Z23520   0.171   8.646  13.449 -0.0230 -1.5429  0.1591
  191DOPC     N23521   5.683   8.367  12.127  0.5592 -0.4254 -0.0621
  191DOPC   C1223522   5.825   8.341  12.149 -0.2013 -0.2611 -0.5739
  191DOPC  H12A23523   5.868   8.319  12.052  0.6368  1.4053 -0.6056
  191DOPC  H12B23524   5.833   8.245  12.199  2.0862  0.9321  1.5394
  191DOPC   C1323525   5.627   8.269  12.034 -0.4521 -0.2358  0.1756
  191DOPC  H13A23526   5.696   8.246  11.954  1.3133  0.8083  1.3176
  191DOPC  H13B23527   5.624   8.169  12.074 -0.5873 -1.3312 -2.3704
  191DOPC  H13C23528   5.534   8.304  11.991 -0.4452 -0.3295  0.0817
  191DOPC   C1423529   5.672   8.505  12.065 -0.2211 -0.3823 -0.6010
  191DOPC  H14A23530   5.724   8.571  12.134  1.4591 -0.6988 -1.5021
  191DOPC  H14B23531   5.728   8.506  11.973  0.7779 -1.3066 -0.0237
  191DOPC  H14C23532   5.568   8.523  12.042 -0.9951 -4.2834 -0.8302
  191DOPC   C1523533   5.600   8.356  12.254  0.8639 -0.2537  0.0113
  191DOPC  H15A23534   5.609   8.257  12.298 -1.3844 -0.8916 -0.8177
  191DOPC  H15B23535   5.493   8.367  12.245  0.8514 -0.1441  0.2837
  191DOPC  H15C23536   5.640   8.426  12.326  0.6484  0.3035 -0.4080
  191DOPC   C1123537   5.909   8.430  12.240 -0.0860  0.2861  0.2470
  191DOPC  H11A23538   6.017   8.418  12.219  0.1213  2.2814 -0.0084
  191DOPC  H11B23539   5.893   8.539  12.229 -0.0221  0.0653 -3.1301
  191DOPC     P23540   5.941   8.276  12.455  0.7268 -0.1042  0.5735
  191DOPC   O1323541   6.084   8.281  12.436 -0.3545  0.2014 -0.1483
  191DOPC   O1423542   5.871   8.154  12.407 -0.5253 -0.0189  0.1662
  191DOPC   O1223543   5.875   8.409  12.376 -0.0025 -0.1668  0.0440
  191DOPC   O1123544   5.915   8.304  12.604 -0.5728 -0.5207 -0.2077
  191DOPC    C123545   5.786   8.341  12.666 -0.5926  0.2597  0.0867
  191DOPC    HA23546   5.700   8.316  12.600 -0.5233  2.3019 -0.8745
  191DOPC    HB23547   5.785   8.448  12.697 -1.0572  0.2190  0.2139
  191DOPC    C223548   5.781   8.256  12.796  0.0301  0.6835 -0.3507
  191DOPC    HS23549   5.679   8.264  12.839 -0.1810  1.7283 -0.9950
  191DOPC   O2123550   5.881   8.287  12.903  0.6061  0.0596  0.2780
  191DOPC   C2123551   5.852   8.402  12.958 -0.6613 -0.0733  0.0345
  191DOPC   O2223552   5.765   8.476  12.927  0.5100  0.2903 -0.3832
  191DOPC   C2223553   5.951   8.432  13.075 -0.1939  0.1306 -0.4638
  191DOPC   H2R23554   5.922   8.524  13.130 -1.1955 -0.1138 -0.5587
  191DOPC   H2S23555   6.045   8.456  13.021  0.6040  1.3763  1.3907
  191DOPC    C323556   5.797   8.103  12.763  0.4385  0.2246 -0.3219
  191DOPC    HX23557   5.891   8.095  12.705  1.5543  0.0251  1.4352
  191DOPC    HY23558   5.718   8.076  12.690  0.3646  0.4572 -0.3283
  191DOPC   O3123559   5.780   8.010  12.877 -0.7014 -0.2552  0.0282
  191DOPC   C3123560   5.897   7.941  12.910 -0.2399 -0.0572  0.1675
  191DOPC   O3223561   5.997   7.943  12.840  0.5364  0.4295 -0.1581
  191DOPC   C3223562   5.879   7.884  13.053 -0.4501 -0.0735 -0.4102
  191DOPC   H2X23563   5.820   7.953  13.116 -1.7016 -1.7097  0.2630
  191DOPC   H2Y23564   5.813   7.796  13.038 -0.6902  0.1039 -0.3858
  191DOPC   C2323565   5.986   8.317  13.168 -0.4817 -0.0110  0.0694
  191DOPC   H3R23566   6.071   8.357  13.228 -0.0523  0.8495 -1.0775
  191DOPC   H3S23567   6.023   8.230  13.110 -1.3075 -0.0787 -0.3631
  191DOPC   C2423568   5.879   8.281  13.272 -0.5865  0.0970 -0.3399
  191DOPC   H4R23569   5.779   8.259  13.228 -1.0248 -0.0162  0.6851
  191DOPC   H4S23570   5.863   8.364  13.344  0.2840  0.0421 -0.0791
  191DOPC   C2523571   5.923   8.159  13.355  0.1135 -0.6538 -0.6577
  191DOPC   H5R23572   6.032   8.175  13.370  0.0512  1.1494 -1.8312
  191DOPC   H5S23573   5.922   8.061  13.303  1.4292  0.1068 -2.2321
  191DOPC   C2623574   5.852   8.162  13.490 -0.5929  0.9004 -1.0873
  191DOPC   H6R23575   5.750   8.118  13.490 -0.4613  0.4032  2.0518
  191DOPC   H6S23576   5.846   8.267  13.526 -1.3020  0.2648  0.7614
  191DOPC   C2723577   5.936   8.087  13.601 -0.8816  0.0272 -0.2235
  191DOPC   H7R23578   6.040   8.125  13.605 -1.1807  0.8995 -0.4930
  191DOPC   H7S23579   5.941   7.978  13.580 -0.8011 -0.0770  0.3157
  191DOPC   C2823580   5.882   8.095  13.744 -0.4901 -0.0027 -0.2591
  191DOPC   H8R23581   5.853   8.199  13.771  0.6404  0.3899 -0.4661
  191DOPC   H8S23582   5.963   8.056  13.809 -0.1646 -0.6276 -1.0207
  191DOPC   C2923583   5.764   8.002  13.765 -0.3869 -0.0622  0.4070
  191DOPC   H9R23584   5.713   7.985  13.669  1.7198  1.8839 -1.1755
  191DOPC  C21023585   5.741   7.932  13.880 -0.1949  0.4461 -0.2428
  191DOPC  H10R23586   5.664   7.855  13.888 -3.2559  2.9660 -2.8357
  191DOPC  C21123587   5.825   7.947  14.004 -0.0448 -0.4679  0.1627
  191DOPC  H11R23588   5.862   8.051  14.015 -0.2191 -0.2324 -1.3147
  191DOPC  H11S23589   5.913   7.881  13.990 -1.2589 -1.9066 -0.9652
  191DOPC  C21223590   5.741   7.945  14.134 -0.0399  0.5446  0.4340
  191DOPC  H12R23591   5.656   8.017  14.142 -0.0290  0.8943 -1.8593
  191DOPC  H12S23592   5.810   7.968  14.217  0.9281  1.3043 -0.5577
  191DOPC  C21323593   5.678   7.804  14.168 -0.3928  0.6804  0.4097
  191DOPC  H13R23594   5.583   7.799  14.110 -1.2167  1.4179  1.6562
  191DOPC  H13S23595   5.642   7.801  14.273  2.1675  0.2547  1.3501
  191DOPC  C21423596   5.777   7.691  14.130  0.0791 -0.2532  0.0068
  191DOPC  H14R23597   5.880   7.730  14.146 -0.4879  2.3182 -2.0155
  191DOPC  H14S23598   5.773   7.669  14.021 -0.2151  2.4745 -0.6004
  191DOPC  C21523599   5.752   7.559  14.212  0.6981 -0.1144  0.2367
  191DOPC  H15R23600   5.648   7.521  14.196  0.5084 -0.0923  1.3401
  191DOPC  H15S23601   5.755   7.587  14.319 -0.7872 -3.5398  1.3100
  191DOPC  C21623602   5.855   7.447  14.180 -0.3202  0.6610  0.9816
  191DOPC  H16R23603   5.856   7.384  14.272  0.0135  0.9563  1.1832
  191DOPC  H16S23604   5.955   7.491  14.162 -0.0977  0.0193  0.6230
  191DOPC  C21723605   5.803   7.370  14.061 -0.8346  0.7083 -0.0819
  191DOPC  H17R23606   5.802   7.433  13.969 -0.2151 -1.9159 -2.0237
  191DOPC  H17S23607   5.700   7.338  14.087 -0.4022 -0.2402  0.5224
  191DOPC  C21823608   5.889   7.246  14.034  0.3651  0.6900  0.4694
  191DOPC  H18R23609   5.851   7.202  13.939 -0.0657 -0.6746  1.2548
  191DOPC  H18S23610   5.861   7.171  14.111  0.3336  0.8140  0.5800
  191DOPC  H18T23611   5.998   7.263  14.024  1.2238 -3.6667  0.4717
  191DOPC   C3323612   6.010   7.830  13.119  0.0564 -1.3486  0.8098
  191DOPC   H3X23613   6.077   7.906  13.163 -1.1354  0.0697  0.2766
  191DOPC   H3Y23614   6.073   7.783  13.041  1.7293 -1.2659  2.0770
  191DOPC   C3423615   5.980   7.713  13.209 -0.3660  0.0432 -0.2672
  191DOPC   H4X23616   6.079   7.673  13.238  0.1418  0.8049 -0.9141
  191DOPC   H4Y23617   5.922   7.630  13.163 -0.3340  1.0561 -2.2667
  191DOPC   C3523618   5.921   7.752  13.342  0.4577  0.4741 -0.2324
  191DOPC   H5X23619   5.821   7.797  13.328  0.6855  0.9905 -0.2056
  191DOPC   H5Y23620   5.991   7.821  13.394  0.1213  1.0644 -0.5500
  191DOPC   C3623621   5.896   7.631  13.430 -0.0632  0.4079 -0.1293
  191DOPC   H6X23622   5.847   7.553  13.368 -0.1464  2.1516 -2.4104
  191DOPC   H6Y23623   5.983   7.585  13.481 -0.4726 -0.9431 -0.6022
  191DOPC   C3723624   5.802   7.672  13.551 -0.7815 -0.6780 -0.2827
  191DOPC   H7X23625   5.840   7.766  13.597 -0.7196 -0.8184 -0.0386
  191DOPC   H7Y23626   5.705   7.708  13.511 -0.7884  0.1840  0.4650
  191DOPC   C3823627   5.760   7.553  13.645 -0.0546  0.0218 -1.2119
  191DOPC   H8X23628   5.861   7.531  13.686 -0.3200  0.1490 -0.4678
  191DOPC   H8Y23629   5.729   7.471  13.576  1.3493 -1.7435  0.1450
  191DOPC   C3923630   5.659   7.594  13.747  0.0281  0.0566  0.9098
  191DOPC   H9X23631   5.681   7.675  13.819 -0.3265  0.4027  0.6343
  191DOPC  C31023632   5.539   7.535  13.765  0.7769 -0.2137 -0.4799
  191DOPC  H10X23633   5.474   7.591  13.833  2.1290 -0.0537  0.7279
  191DOPC  C31123634   5.478   7.420  13.681 -0.0489 -0.0752 -0.8486
  191DOPC  H11X23635   5.516   7.404  13.578 -1.0021 -0.9773 -1.0829
  191DOPC  H11Y23636   5.369   7.442  13.676 -0.1536  0.2413  1.5372
  191DOPC  C31223637   5.501   7.284  13.761 -0.7234  0.2888 -0.3465
  191DOPC  H12X23638   5.418   7.214  13.737  1.2724 -2.0319 -0.8446
  191DOPC  H12Y23639   5.498   7.303  13.871  1.3576 -0.1299 -0.1724
  191DOPC  C31323640   5.636   7.227  13.724  0.0940 -0.1206  0.3278
  191DOPC  H13X23641   5.637   7.227  13.613  1.9155  0.8427  0.3147
  191DOPC  H13Y23642   5.719   7.292  13.758 -0.7149  1.0549  0.1073
  191DOPC  C31423643   5.659   7.091  13.788 -0.0824  0.1601  0.9682
  191DOPC  H14X23644   5.697   7.117  13.889 -0.3606  1.0351  0.8586
  191DOPC  H14Y23645   5.571   7.023  13.797  0.5121 -1.0654 -1.7104
  191DOPC  C31523646   5.770   7.019  13.718  0.2412  0.2493  0.3284
  191DOPC  H15X23647   5.857   7.088  13.723 -0.5072  1.1942  0.4852
  191DOPC  H15Y23648   5.741   7.004  13.612 -2.2545  0.9692  0.8526
  191DOPC  C31623649   5.804   6.889  13.785 -0.0350  0.0996  0.5687
  191DOPC  H16X23650   5.836   6.905  13.890 -0.4720  2.3565  0.4093
  191DOPC  H16Y23651   5.713   6.825  13.782 -0.4004  0.5521  1.6286
  191DOPC  C31723652   5.914   6.800  13.719  0.1493  0.0156  0.6048
  191DOPC  H17X23653   5.900   6.803  13.609  1.3573  0.5866  0.4593
  191DOPC  H17Y23654   6.014   6.843  13.742  1.1294 -3.5070  4.0787
  191DOPC  C31823655   5.907   6.658  13.781 -0.7105 -0.1021  0.1802
  191DOPC  H18X23656   5.816   6.604  13.747 -1.2634  1.4590 -0.9651
  191DOPC  H18Y23657   5.989   6.593  13.746 -2.7983 -2.0374 -1.4593
  191DOPC  H18Z23658   5.916   6.665  13.891  1.8495  3.1022 -0.0686
  192DOPC     N23659   0.307   3.993  12.010 -0.3661 -0.4813  0.7636
  192DOPC   C1223660   0.374   4.009  12.147  0.5410 -0.3204 -0.0344
  192DOPC  H12A23661   0.337   4.098  12.195 -1.1032 -1.2031  0.4270
  192DOPC  H12B23662   0.480   4.023  12.132  0.3338  0.3592 -0.9476
  192DOPC   C1323663   0.157   4.010  12.014 -0.3340 -0.1436  0.4512
  192DOPC  H13A23664   0.123   4.100  12.063 -0.4871 -1.1821  2.3472
  192DOPC  H13B23665   0.113   4.023  11.916  1.4363 -0.0016 -0.3515
  192DOPC  H13C23666   0.104   3.933  12.069  0.3378 -0.3170  0.8667
  192DOPC   C1423667   0.339   3.859  11.952 -0.1495 -0.4453  0.2562
  192DOPC  H14A23668   0.446   3.852  11.959 -0.0533  1.7728  2.3796
  192DOPC  H14B23669   0.297   3.783  12.016  0.7473 -1.1656  0.0056
  192DOPC  H14C23670   0.295   3.839  11.855 -2.5024 -0.7502  1.3255
  192DOPC   C1523671   0.363   4.102  11.914 -0.9274 -0.3059  0.2553
  192DOPC  H15A23672   0.345   4.086  11.809  0.8831  1.2590 -0.3613
  192DOPC  H15B23673   0.470   4.109  11.926 -1.0190  0.6795  0.6252
  192DOPC  H15C23674   0.333   4.202  11.942  0.5827  0.5413 -0.9786
  192DOPC   C1123675   0.347   3.886  12.245 -0.0192 -0.9779  1.0261
  192DOPC  H11A23676   0.394   3.796  12.198  1.4361  1.6123 -3.0323
  192DOPC  H11B23677   0.413   3.907  12.332 -0.3102  1.1514  0.7677
  192DOPC     P23678   0.138   3.946  12.404  0.1714  0.0343  0.3679
  192DOPC   O1323679   0.133   3.871  12.529  0.2668  0.4122 -0.5685
  192DOPC   O1423680   0.012   4.002  12.353 -0.2480 -0.3952  0.2205
  192DOPC   O1223681   0.215   3.866  12.291  0.0219 -0.4071 -0.0260
  192DOPC   O1123682   0.242   4.059  12.426  0.6152 -0.5722  0.4107
  192DOPC    C123683   0.231   4.164  12.521  0.7089 -0.2088  0.9060
  192DOPC    HA23684   0.125   4.176  12.550  0.1472 -0.2252 -1.0099
  192DOPC    HB23685   0.269   4.254  12.468  2.4097 -0.4542  1.6404
  192DOPC    C223686   0.328   4.126  12.640  0.0015 -0.4451  0.6027
  192DOPC    HS23687   0.291   4.029  12.681  0.8675 -0.6716  0.8750
  192DOPC   O2123688   0.324   4.234  12.739  0.2258  0.4624 -0.5350
  192DOPC   C2123689   0.218   4.249  12.810 -0.5200 -0.6534 -0.5352
  192DOPC   O2223690   0.115   4.180  12.816 -0.3915 -0.0247  0.4767
  192DOPC   C2223691   0.245   4.363  12.913  0.1679 -0.5364 -0.2908
  192DOPC   H2R23692   0.234   4.458  12.856 -3.6729  0.1804  1.3394
  192DOPC   H2S23693   0.353   4.363  12.938  0.9543 -2.1332 -3.2232
  192DOPC    C323694   0.472   4.107  12.587 -0.6108 -0.2162  1.0929
  192DOPC    HX23695   0.507   4.203  12.544  0.8444  0.2941  3.2756
  192DOPC    HY23696   0.479   4.028  12.509  2.7806  1.9766 -1.0660
  192DOPC   O3123697   0.562   4.048  12.692  0.1015  0.5802  0.1267
  192DOPC   C3123698   0.632   4.136  12.766 -0.4193  0.0753 -0.2607
  192DOPC   O3223699   0.650   4.252  12.745  0.4702 -0.4182  0.1403
  192DOPC   C3223700   0.709   4.059  12.875  0.6909 -0.2965 -0.0501
  192DOPC   H2X23701   0.648   3.969  12.895  0.7617 -0.6482 -1.3306
  192DOPC   H2Y23702   0.810   4.028  12.841  1.4448  0.3639  1.4818
  192DOPC   C2323703   0.144   4.371  13.028 -0.3822  0.2501  0.8847
  192DOPC   H3R23704   0.042   4.350  12.989 -0.3315 -0.6849  1.2179
  192DOPC   H3S23705   0.136   4.473  13.070 -0.2563 -0.0967  1.7861
  192DOPC   C2423706   0.173   4.273  13.140 -0.5926  0.2439  0.1647
  192DOPC   H4R23707   0.256   4.301  13.208 -0.9721 -0.4489  0.9245
  192DOPC   H4S23708   0.225   4.189  13.088  0.2911 -0.7515  2.5253
  192DOPC   C2523709   0.056   4.225  13.222  0.0674  0.2606  0.2498
  192DOPC   H5R23710   0.104   4.174  13.308 -1.3993 -0.1699  0.8518
  192DOPC   H5S23711  -0.013   4.162  13.162 -0.6564  0.4591  0.8686
  192DOPC   C2623712  -0.033   4.345  13.274  0.2498 -0.5232 -0.2146
  192DOPC   H6R23713  -0.109   4.367  13.195 -0.3558 -1.3522  0.1201
  192DOPC   H6S23714   0.024   4.438  13.292 -0.4281 -0.7361  3.9507
  192DOPC   C2723715  -0.112   4.317  13.407  0.0634  0.0548  0.2726
  192DOPC   H7R23716  -0.166   4.221  13.400 -3.8292  2.0131  0.4992
  192DOPC   H7S23717  -0.194   4.392  13.422  0.6549  0.6717  0.4725
  192DOPC   C2823718  -0.017   4.334  13.528 -0.1006  0.8025 -1.0692
  192DOPC   H8R23719   0.027   4.433  13.503 -3.7429  2.7696 -0.3046
  192DOPC   H8S23720   0.060   4.253  13.527  0.7121  1.5422 -0.0484
  192DOPC   C2923721  -0.084   4.340  13.660  0.0088  0.4362  0.3474
  192DOPC   H9R23722  -0.070   4.250  13.722 -1.1302 -0.1109 -0.1488
  192DOPC  C21023723  -0.150   4.446  13.714 -0.1844 -0.2730  0.0251
  192DOPC  H10R23724  -0.176   4.438  13.821  2.4656 -0.0148  0.7904
  192DOPC  C21123725  -0.177   4.577  13.643 -0.2649 -0.1669  0.5172
  192DOPC  H11R23726  -0.287   4.592  13.637 -0.0471  1.5414  0.3611
  192DOPC  H11S23727  -0.144   4.562  13.538 -0.8126 -0.5261  0.3911
  192DOPC  C21223728  -0.117   4.707  13.695  0.0348 -0.3936  0.7649
  192DOPC  H12R23729  -0.136   4.782  13.615  2.6902  0.2437  0.6365
  192DOPC  H12S23730  -0.009   4.693  13.714  0.6048 -0.3656 -2.0364
  192DOPC  C21323731  -0.193   4.758  13.825  0.8401  0.2674 -0.4280
  192DOPC  H13R23732  -0.207   4.680  13.903 -0.2496  1.0230  0.1607
  192DOPC  H13S23733  -0.294   4.791  13.790  0.4916 -0.8635 -0.5120
  192DOPC  C21423734  -0.109   4.863  13.886 -0.8522 -0.9150 -0.7104
  192DOPC  H14R23735  -0.101   4.943  13.808  0.1576  0.6313  0.8864
  192DOPC  H14S23736  -0.006   4.837  13.921  0.8418  3.1601 -1.9455
  192DOPC  C21523737  -0.177   4.934  14.008 -0.0049  0.1040 -0.0875
  192DOPC  H15R23738  -0.183   4.853  14.083  0.6874  0.1554  0.0312
  192DOPC  H15S23739  -0.282   4.962  13.985  0.0940  0.2456 -0.3775
  192DOPC  C21623740  -0.101   5.058  14.066  0.0150 -0.6974 -0.0856
  192DOPC  H16R23741  -0.079   5.130  13.984 -1.2076 -1.6067 -1.2622
  192DOPC  H16S23742   0.005   5.037  14.091  0.8662  2.3938 -0.7734
  192DOPC  C21723743  -0.176   5.112  14.191 -0.1802  0.0193 -0.1115
  192DOPC  H17R23744  -0.110   5.190  14.236 -1.1954  0.8353  0.0168
  192DOPC  H17S23745  -0.199   5.034  14.266 -0.3570  1.0712  0.9620
  192DOPC  C21823746  -0.316   5.183  14.161  0.0286 -0.5005 -0.5174
  192DOPC  H18R23747  -0.313   5.234  14.063 -1.7926  0.5600 -0.0669
  192DOPC  H18S23748  -0.346   5.253  14.242 -0.3669  0.3538 -1.3924
  192DOPC  H18T23749  -0.393   5.102  14.156  0.1575 -0.7043  0.5423
  192DOPC   C3323750   0.725   4.147  13.008 -0.0704  0.1045 -0.5135
  192DOPC   H3X23751   0.656   4.234  13.016 -0.1766 -0.0925  0.9517
  192DOPC   H3Y23752   0.831   4.180  13.007 -0.0740  0.1086 -1.0193
  192DOPC   C3423753   0.683   4.062  13.126  0.2681  0.4070  0.7882
  192DOPC   H4X23754   0.726   4.093  13.223  0.9135  0.1248  0.5968
  192DOPC   H4Y23755   0.729   3.964  13.099  0.9238  1.1978 -1.1361
  192DOPC   C3523756   0.533   4.060  13.149  0.5260  0.2616  0.0235
  192DOPC   H5X23757   0.473   4.032  13.059 -0.2291  2.6041 -0.2855
  192DOPC   H5Y23758   0.497   4.158  13.188 -1.2793 -1.4645  3.1635
  192DOPC   C3623759   0.499   3.963  13.267  0.3824  0.0665  0.0915
  192DOPC   H6X23760   0.547   3.865  13.247 -1.2670 -0.5274 -1.1592
  192DOPC   H6Y23761   0.548   4.000  13.360  1.3125  0.7818 -0.6704
  192DOPC   C3723762   0.353   3.929  13.293 -0.9782  0.3837 -0.7833
  192DOPC   H7X23763   0.300   4.025  13.309 -1.8703 -0.3326  0.7085
  192DOPC   H7Y23764   0.320   3.895  13.192 -0.3815 -0.2627 -0.7677
  192DOPC   C3823765   0.329   3.807  13.392  0.1757 -0.5239  0.1283
  192DOPC   H8X23766   0.413   3.796  13.464  0.9381  0.6772 -0.5519
  192DOPC   H8Y23767   0.334   3.715  13.329 -0.1267 -0.5859  0.1972
  192DOPC   C3923768   0.198   3.833  13.457  0.7116  0.6834 -0.1676
  192DOPC   H9X23769   0.194   3.910  13.535  2.0214 -1.6914  2.4802
  192DOPC  C31023770   0.083   3.759  13.449 -0.4600 -0.6270 -0.3131
  192DOPC  H10X23771  -0.009   3.804  13.491 -0.3758 -0.8216  0.0818
  192DOPC  C31123772   0.055   3.640  13.365  0.0772 -0.3115  0.5564
  192DOPC  H11X23773   0.137   3.630  13.290 -0.3988  0.9144 -0.1455
  192DOPC  H11Y23774  -0.037   3.658  13.305 -0.7881 -0.0749  1.9194
  192DOPC  C31223775   0.021   3.499  13.428 -0.1477 -0.7129  0.6473
  192DOPC  H12X23776  -0.006   3.431  13.344 -0.3453 -1.5916  1.4100
  192DOPC  H12Y23777  -0.065   3.526  13.493 -0.1782  3.2096 -0.7020
  192DOPC  C31323778   0.131   3.443  13.508  0.1154  1.5352 -0.1492
  192DOPC  H13X23779   0.220   3.417  13.446 -1.3410 -0.9561 -1.3830
  192DOPC  H13Y23780   0.159   3.514  13.588 -1.9662  2.7257 -0.4225
  192DOPC  C31423781   0.092   3.308  13.578  0.4706 -0.3595 -0.5419
  192DOPC  H14X23782   0.172   3.274  13.647  0.4581 -1.3970 -1.0238
  192DOPC  H14Y23783   0.002   3.326  13.641 -1.1687 -2.6316 -2.0659
  192DOPC  C31523784   0.056   3.183  13.487 -0.3518 -0.6183  0.1401
  192DOPC  H15X23785   0.105   3.197  13.389  0.3846 -0.9315  0.4579
  192DOPC  H15Y23786  -0.051   3.155  13.472 -0.0032 -2.0459  0.1435
  192DOPC  C31623787   0.125   3.055  13.538  0.3791  0.6748  0.0906
  192DOPC  H16X23788   0.235   3.065  13.537  0.5312 -0.7481 -0.9657
  192DOPC  H16Y23789   0.095   3.039  13.644 -1.0592  1.0034 -0.2405
  192DOPC  C31723790   0.076   2.935  13.452 -0.1531 -0.0861 -0.2160
  192DOPC  H17X23791  -0.033   2.949  13.432 -0.1595  0.6674  0.3068
  192DOPC  H17Y23792   0.132   2.939  13.357 -0.1312 -0.2822 -0.2111
  192DOPC  C31823793   0.091   2.799  13.528  0.7879  0.3406  0.1700
  192DOPC  H18X23794   0.029   2.796  13.620  0.0130 -2.1289 -0.3540
  192DOPC  H18Y23795   0.061   2.709  13.470  1.6831  0.2361 -0.1506
  192DOPC  H18Z23796   0.197   2.775  13.555 -0.1841 -2.2467  2.0713
  193DOPC     N23797   0.345   1.548  12.451  0.0822 -0.4417  0.2656
  193DOPC   C1223798   0.242   1.650  12.484 -0.6722  0.3462  0.1983
  193DOPC  H12A23799   0.300   1.740  12.501 -1.8680  1.0373  0.7517
  193DOPC  H12B23800   0.198   1.617  12.576 -0.3431 -0.2485  0.1455
  193DOPC   C1323801   0.423   1.578  12.326 -0.0566 -0.0204 -0.7968
  193DOPC  H13A23802   0.484   1.667  12.334 -0.3528  0.2328 -1.3068
  193DOPC  H13B23803   0.474   1.489  12.294 -2.2886 -1.5195 -0.3919
  193DOPC  H13C23804   0.351   1.605  12.250 -0.4678 -1.0511 -0.7842
  193DOPC   C1423805   0.276   1.413  12.434 -0.5267  1.0204 -0.6033
  193DOPC  H14A23806   0.211   1.413  12.348 -0.1686  0.8502 -0.8802
  193DOPC  H14B23807   0.352   1.337  12.415 -0.9371  0.7792 -1.3055
  193DOPC  H14C23808   0.213   1.392  12.519  0.3650 -0.0502 -0.1730
  193DOPC   C1523809   0.447   1.541  12.558  0.4706 -0.1804 -0.4893
  193DOPC  H15A23810   0.516   1.458  12.546 -0.9473 -1.6020  0.6341
  193DOPC  H15B23811   0.400   1.523  12.654 -0.0542 -1.7334 -1.0065
  193DOPC  H15C23812   0.505   1.631  12.572 -1.3972  0.9281  0.6573
  193DOPC   C1123813   0.130   1.696  12.386 -1.0997 -0.0316  0.0466
  193DOPC  H11A23814   0.081   1.793  12.407  1.2524  1.4935 -0.9607
  193DOPC  H11B23815   0.188   1.726  12.295 -0.0738  0.5609  0.8689
  193DOPC     P23816  -0.075   1.539  12.442  0.6355 -0.2360  0.0797
  193DOPC   O1323817  -0.109   1.399  12.410 -0.0170 -0.3070  0.4131
  193DOPC   O1423818  -0.192   1.632  12.423  0.1189 -0.7487 -0.2495
  193DOPC   O1223819   0.030   1.600  12.344 -0.3854 -0.4976 -0.4516
  193DOPC   O1123820  -0.002   1.554  12.582  0.1258  0.3606 -0.1679
  193DOPC    C123821  -0.072   1.621  12.692 -0.3135 -0.3042  0.6417
  193DOPC    HA23822  -0.177   1.590  12.705 -1.1292  2.6931  2.1388
  193DOPC    HB23823  -0.057   1.731  12.682 -1.6710 -0.1974 -0.4937
  193DOPC    C223824  -0.003   1.592  12.828 -0.0836 -0.5073  0.3361
  193DOPC    HS23825   0.104   1.623  12.825  1.2823 -4.5297  0.9683
  193DOPC   O2123826  -0.015   1.453  12.869  0.3499  0.2095 -0.4539
  193DOPC   C2123827   0.062   1.363  12.812 -0.5776  0.6240 -0.5706
  193DOPC   O2223828   0.159   1.390  12.747 -0.2683 -0.6207  0.1085
  193DOPC   C2223829   0.026   1.218  12.842 -0.5623 -0.3728 -0.7166
  193DOPC   H2R23830  -0.031   1.182  12.753  0.9034 -1.6016 -1.1990
  193DOPC   H2S23831  -0.025   1.203  12.939  1.6195  0.6654  0.6565
  193DOPC    C323832  -0.077   1.685  12.935  0.6780  0.7796  0.3178
  193DOPC    HX23833  -0.182   1.652  12.924  1.1899 -0.4527 -1.3767
  193DOPC    HY23834  -0.068   1.793  12.911  2.2011  0.2891 -1.5723
  193DOPC   O3123835  -0.042   1.649  13.067  0.3736 -0.4433 -0.2091
  193DOPC   C3123836   0.032   1.735  13.132  0.3914 -0.4847 -0.0492
  193DOPC   O3223837   0.089   1.826  13.083  0.5002  0.4777 -0.2780
  193DOPC   C3223838   0.053   1.683  13.273 -0.4752 -0.2926 -0.4353
  193DOPC   H2X23839   0.132   1.605  13.268 -1.9076 -2.0353  1.7943
  193DOPC   H2Y23840   0.083   1.771  13.334 -0.6542 -1.5675  1.6175
  193DOPC   C2323841   0.151   1.133  12.855 -0.2749 -0.1718  0.4397
  193DOPC   H3R23842   0.204   1.147  12.952  0.1438 -0.4031  0.2495
  193DOPC   H3S23843   0.228   1.162  12.781  1.4864  0.0471  2.2694
  193DOPC   C2423844   0.114   0.986  12.850  0.7455 -0.5958  0.0768
  193DOPC   H4R23845   0.056   0.965  12.757 -1.0553  1.1883  0.7284
  193DOPC   H4S23846   0.034   0.982  12.927 -0.2347  1.3216 -0.7535
  193DOPC   C2523847   0.226   0.890  12.878 -0.1624 -0.2808 -0.0662
  193DOPC   H5R23848   0.321   0.947  12.878  0.7835 -1.5892  3.5524
  193DOPC   H5S23849   0.227   0.812  12.799  3.0983 -1.0591  0.5809
  193DOPC   C2623850   0.214   0.841  13.021  0.7106  0.4580  0.2982
  193DOPC   H6R23851   0.134   0.766  13.005  1.9743 -1.2037  1.4587
  193DOPC   H6S23852   0.175   0.913  13.097  1.6710  1.8918 -0.5163
  193DOPC   C2723853   0.340   0.769  13.070  0.2007  0.1549  0.4791
  193DOPC   H7R23854   0.384   0.710  12.987  0.2912 -0.0996  0.7079
  193DOPC   H7S23855   0.290   0.705  13.146 -1.1437  1.3081  0.6216
  193DOPC   C2823856   0.448   0.857  13.131  0.1758 -0.0591 -0.4442
  193DOPC   H8R23857   0.409   0.913  13.219 -0.8323 -0.2730 -0.7352
  193DOPC   H8S23858   0.462   0.937  13.055  0.5053  1.2298  0.9209
  193DOPC   C2923859   0.571   0.778  13.169 -0.1564  0.3232  1.0401
  193DOPC   H9R23860   0.599   0.704  13.092  1.1894 -0.5238  2.3042
  193DOPC  C21023861   0.655   0.815  13.266 -0.1918 -0.2207  0.5277
  193DOPC  H10R23862   0.735   0.742  13.286 -0.9161 -0.9617  0.7687
  193DOPC  C21123863   0.644   0.935  13.359  0.6946  0.2297  0.1527
  193DOPC  H11R23864   0.609   1.023  13.301  0.0764 -0.7320 -0.9662
  193DOPC  H11S23865   0.741   0.956  13.409 -0.5512  6.3006  0.8060
  193DOPC  C21223866   0.542   0.906  13.467 -0.1343  0.1927  0.4838
  193DOPC  H12R23867   0.551   0.805  13.512 -0.6601  0.6826  1.7429
  193DOPC  H12S23868   0.444   0.915  13.416  0.7493 -0.7704 -1.4852
  193DOPC  C21323869   0.551   0.998  13.589 -0.2082  0.0665  0.2865
  193DOPC  H13R23870   0.657   0.992  13.623 -0.1432  0.2448  0.1129
  193DOPC  H13S23871   0.481   0.979  13.673 -0.1939  2.8031  1.0309
  193DOPC  C21423872   0.529   1.145  13.549 -0.2255  0.3212  0.4902
  193DOPC  H14R23873   0.436   1.163  13.491  0.4332  1.0108 -0.3820
  193DOPC  H14S23874   0.608   1.174  13.476  1.7185 -1.6290  1.7213
  193DOPC  C21523875   0.535   1.239  13.675  1.3158  0.2618 -0.5330
  193DOPC  H15R23876   0.638   1.222  13.712  1.8019  0.0780 -1.8998
  193DOPC  H15S23877   0.466   1.194  13.750  0.6419 -1.1212 -1.9280
  193DOPC  C21623878   0.480   1.379  13.650 -0.3402 -0.1255  0.4430
  193DOPC  H16R23879   0.480   1.431  13.748  0.8052 -1.1091  0.9898
  193DOPC  H16S23880   0.372   1.372  13.622 -0.2458  0.3036 -0.0581
  193DOPC  C21723881   0.556   1.457  13.541  0.1857  0.5344  0.0197
  193DOPC  H17R23882   0.534   1.408  13.444 -1.3222  2.2674 -0.5706
  193DOPC  H17S23883   0.659   1.443  13.580  0.5273  0.0609 -1.0237
  193DOPC  C21823884   0.525   1.605  13.520  0.1312 -0.0598 -0.2708
  193DOPC  H18R23885   0.520   1.663  13.615  1.8979  0.7808 -0.6440
  193DOPC  H18S23886   0.420   1.619  13.486 -0.3168  1.2034  1.4811
  193DOPC  H18T23887   0.600   1.654  13.455 -1.0481  0.7989 -1.0210
  193DOPC   C3323888  -0.075   1.625  13.344  0.0920  0.6031 -0.3240
  193DOPC   H3X23889  -0.112   1.543  13.279 -1.0478  1.2268 -0.4873
  193DOPC   H3Y23890  -0.161   1.695  13.346 -0.9743 -0.6549 -0.3433
  193DOPC   C3423891  -0.055   1.581  13.487 -0.3584 -0.6542 -0.4886
  193DOPC   H4X23892  -0.138   1.527  13.538  2.9478 -4.1843  1.8110
  193DOPC   H4Y23893  -0.023   1.672  13.542  1.1084 -0.9622 -0.7863
  193DOPC   C3523894   0.051   1.475  13.514 -1.1450  0.3512  0.0997
  193DOPC   H5X23895   0.149   1.507  13.472  1.7053 -2.0519  4.1978
  193DOPC   H5Y23896   0.023   1.381  13.462 -0.9577 -0.2138  0.9926
  193DOPC   C3623897   0.078   1.445  13.661  0.0860  0.5215  0.0491
  193DOPC   H6X23898  -0.015   1.398  13.700  0.7205 -0.3924  0.4828
  193DOPC   H6Y23899   0.148   1.359  13.667  2.2282  2.1749 -0.2287
  193DOPC   C3723900   0.138   1.554  13.745 -0.2796  0.1207 -0.4830
  193DOPC   H7X23901   0.237   1.590  13.709  0.7719 -1.1604  0.9945
  193DOPC   H7Y23902   0.066   1.639  13.748  1.3137  1.5369 -0.7974
  193DOPC   C3823903   0.134   1.505  13.897 -0.3234 -0.1331 -0.0016
  193DOPC   H8X23904   0.167   1.400  13.904  1.0423  0.1128 -2.0624
  193DOPC   H8Y23905   0.027   1.502  13.926 -0.6706 -0.5932 -1.2768
  193DOPC   C3923906   0.230   1.585  13.988 -0.4868  0.3262 -0.3070
  193DOPC   H9X23907   0.205   1.691  13.995  1.7679  0.8971 -0.1415
  193DOPC  C31023908   0.339   1.539  14.059 -0.9213 -0.2381 -0.5891
  193DOPC  H10X23909   0.388   1.620  14.115  2.3526 -1.2769 -1.7377
  193DOPC  C31123910   0.407   1.406  14.076  0.0869 -0.0510 -0.7705
  193DOPC  H11X23911   0.511   1.409  14.036  0.0710 -0.5574 -0.8578
  193DOPC  H11Y23912   0.358   1.330  14.011  1.2967  0.2639 -2.1154
  193DOPC  C31223913   0.396   1.357  14.225 -0.0794  0.3274  0.2610
  193DOPC  H12X23914   0.424   1.250  14.214  2.9416  0.9875  0.5773
  193DOPC  H12Y23915   0.295   1.364  14.268 -0.1271  3.8550 -0.1001
  193DOPC  C31323916   0.499   1.422  14.315  0.7227  0.2307  0.4512
  193DOPC  H13X23917   0.601   1.415  14.270  0.0647  0.7559 -1.2064
  193DOPC  H13Y23918   0.490   1.533  14.326  0.3711  0.2556 -0.0467
  193DOPC  C31423919   0.499   1.370  14.457  0.3750 -0.0792 -0.1832
  193DOPC  H14X23920   0.440   1.277  14.463  0.5051 -0.2370 -1.1352
  193DOPC  H14Y23921   0.600   1.336  14.490  0.5880  2.9918  3.0046
  193DOPC  C31523922   0.476   1.479  14.568  0.0517  0.1453 -0.4517
  193DOPC  H15X23923   0.556   1.555  14.559 -1.0393  1.2674 -1.0750
  193DOPC  H15Y23924   0.481   1.430  14.667 -0.4412 -2.3106 -1.5558
  193DOPC  C31623925   0.339   1.556  14.554  0.3677  0.2364  0.2551
  193DOPC  H16X23926   0.321   1.617  14.463 -5.0477 -0.9622  0.2057
  193DOPC  H16Y23927   0.260   1.478  14.562 -1.3150  1.8398  0.1048
  193DOPC  C31723928   0.304   1.634  14.685 -0.6403  0.7130  0.2673
  193DOPC  H17X23929   0.206   1.680  14.662  0.1958  1.9342 -1.0966
  193DOPC  H17Y23930   0.302   1.557  14.765 -3.8608 -0.5870 -0.8907
  193DOPC  C31823931   0.401   1.748  14.714 -0.8248 -0.8022  0.1234
  193DOPC  H18X23932   0.501   1.718  14.752 -0.2970  2.0080  1.2122
  193DOPC  H18Y23933   0.421   1.807  14.623  0.9387  0.0457  1.0178
  193DOPC  H18Z23934   0.357   1.820  14.787  0.1246 -1.0514  0.9613
  194DOPC     N23935   0.611   7.462  11.966  0.0291  0.5695 -0.6898
  194DOPC   C1223936   0.633   7.539  12.094  0.6616  1.2111  0.6202
  194DOPC  H12A23937   0.602   7.477  12.176 -1.8314 -0.4432 -1.3934
  194DOPC  H12B23938   0.574   7.629  12.097 -1.3409 -0.0149  0.1528
  194DOPC   C1323939   0.680   7.337  11.960 -0.0438  1.1188  0.1783
  194DOPC  H13A23940   0.785   7.357  11.946 -0.4749  2.2186 -1.7635
  194DOPC  H13B23941   0.659   7.273  12.045 -1.1443  1.3857  0.1167
  194DOPC  H13C23942   0.657   7.278  11.872 -1.3095 -0.9779  1.8127
  194DOPC   C1423943   0.684   7.541  11.860 -0.0796  0.5366 -0.4464
  194DOPC  H14A23944   0.660   7.646  11.869  1.4259  0.8724 -0.1901
  194DOPC  H14B23945   0.785   7.546  11.898 -0.5791 -2.5276  1.5998
  194DOPC  H14C23946   0.662   7.495  11.765 -0.3614 -0.2514 -0.0030
  194DOPC   C1523947   0.462   7.450  11.938 -0.9312 -0.1935 -0.0613
  194DOPC  H15A23948   0.412   7.432  12.032 -2.4562 -0.3240 -0.8506
  194DOPC  H15B23949   0.440   7.375  11.863 -0.1881 -2.4611  1.8753
  194DOPC  H15C23950   0.427   7.550  11.915  1.8875  1.3037  1.6652
  194DOPC   C1123951   0.775   7.578  12.127 -0.6406 -0.0554 -0.3899
  194DOPC  H11A23952   0.772   7.632  12.223 -1.1712  1.1597 -1.0615
  194DOPC  H11B23953   0.843   7.494  12.151 -1.6260 -0.6583  0.3778
  194DOPC     P23954   0.789   7.828  12.042 -0.3391  0.0620  0.6027
  194DOPC   O1323955   0.640   7.835  12.064 -0.0317 -0.7056  0.1506
  194DOPC   O1423956   0.843   7.890  11.914 -0.5149  0.7642 -0.1495
  194DOPC   O1223957   0.828   7.679  12.038  0.1223  0.1409 -0.0642
  194DOPC   O1123958   0.874   7.881  12.163  0.5893 -0.5459  0.2144
  194DOPC    C123959   1.010   7.866  12.191 -0.2617  0.1597  0.6808
  194DOPC    HA23960   1.070   7.947  12.144  1.2235 -1.7695 -0.9704
  194DOPC    HB23961   1.056   7.772  12.152 -0.1890 -0.1953  1.6118
  194DOPC    C223962   1.040   7.889  12.339  0.4375  0.5724 -0.6058
  194DOPC    HS23963   1.143   7.858  12.367 -0.3161 -0.3908  1.3056
  194DOPC   O2123964   0.943   7.808  12.426 -0.1120 -0.2848 -0.4129
  194DOPC   C2123965   0.998   7.689  12.432 -0.1556  0.1598  0.8719
  194DOPC   O2223966   1.092   7.643  12.372 -0.3067 -0.0859 -0.0749
  194DOPC   C2223967   0.922   7.612  12.543  0.0479  0.0233 -0.0173
  194DOPC   H2R23968   0.839   7.560  12.491  0.5697  1.1276 -2.0451
  194DOPC   H2S23969   0.874   7.680  12.618 -1.2398  1.0954 -1.7329
  194DOPC    C323970   1.022   8.042  12.366  0.1041 -0.3913 -0.0327
  194DOPC    HX23971   0.916   8.057  12.339 -0.0327  0.2509  0.8087
  194DOPC    HY23972   1.097   8.087  12.298  0.5170  1.1132  1.3555
  194DOPC   O3123973   1.049   8.089  12.500 -0.3166  0.1205  0.6153
  194DOPC   C3123974   0.942   8.126  12.567  0.9347 -0.2745  0.4979
  194DOPC   O3223975   0.824   8.132  12.525  0.1847  0.5838  0.0845
  194DOPC   C3223976   0.984   8.183  12.703 -0.0860  0.4893 -0.0999
  194DOPC   H2X23977   1.052   8.267  12.677  0.6426 -0.3956 -1.1301
  194DOPC   H2Y23978   0.897   8.226  12.757  0.7085 -0.8149  2.3912
  194DOPC   C2323979   0.998   7.502  12.626 -0.5975  0.1672 -0.4431
  194DOPC   H3R23980   1.074   7.452  12.562 -0.7620 -0.8929  0.1581
  194DOPC   H3S23981   0.934   7.421  12.667  1.1049 -0.4562  1.0923
  194DOPC   C2423982   1.072   7.548  12.756 -0.0939  0.0227  0.8592
  194DOPC   H4R23983   1.082   7.448  12.803  1.5147 -0.3648 -0.2451
  194DOPC   H4S23984   1.010   7.612  12.823 -1.8439 -0.1586 -0.5098
  194DOPC   C2523985   1.202   7.607  12.720 -0.6330  0.2371 -0.0512
  194DOPC   H5R23986   1.191   7.694  12.651 -1.9355  0.3507  0.2608
  194DOPC   H5S23987   1.254   7.538  12.650 -1.7218 -1.5055  0.7946
  194DOPC   C2623988   1.293   7.630  12.847 -0.1447 -0.6716  0.0605
  194DOPC   H6R23989   1.323   7.527  12.873  1.8655 -0.3234 -0.6712
  194DOPC   H6S23990   1.233   7.667  12.933 -0.3232 -0.3994 -0.1761
  194DOPC   C2723991   1.422   7.706  12.818 -0.6749 -0.4311 -0.8119
  194DOPC   H7R23992   1.402   7.811  12.790 -3.9376 -0.5107  0.8175
  194DOPC   H7S23993   1.459   7.655  12.726  2.0081 -1.1022  0.5242
  194DOPC   C2823994   1.526   7.697  12.931  0.0907  0.3049 -0.4397
  194DOPC   H8R23995   1.478   7.754  13.013  1.4934 -1.5944  1.8449
  194DOPC   H8S23996   1.618   7.749  12.897  0.0602  0.2533 -0.5989
  194DOPC   C2923997   1.551   7.553  12.980 -1.2143 -0.5789  0.1176
  194DOPC   H9R23998   1.609   7.485  12.916 -0.1822  0.9296 -0.6179
  194DOPC  C21023999   1.498   7.494  13.093 -0.0224  0.5802 -0.3062
  194DOPC  H10R24000   1.539   7.393  13.108 -1.1030  0.1250 -0.3682
  194DOPC  C21124001   1.403   7.549  13.197 -0.1909 -0.2070  0.8228
  194DOPC  H11R24002   1.337   7.469  13.236 -1.8042  0.9338  0.5658
  194DOPC  H11S24003   1.335   7.611  13.134  0.9608  0.1083 -0.1427
  194DOPC  C21224004   1.458   7.641  13.304 -0.0626 -0.8148  0.0901
  194DOPC  H12R24005   1.528   7.717  13.262 -0.6782  0.0308  0.5472
  194DOPC  H12S24006   1.509   7.590  13.388  0.1144  3.1747  2.7090
  194DOPC  C21324007   1.339   7.714  13.367  0.5272 -0.1927 -0.2364
  194DOPC  H13R24008   1.270   7.632  13.396 -1.2825  1.9377  1.9566
  194DOPC  H13S24009   1.278   7.775  13.297 -1.4459 -2.8713 -1.0368
  194DOPC  C21424010   1.396   7.790  13.485 -0.1569 -0.0060 -0.1011
  194DOPC  H14R24011   1.436   7.888  13.453 -0.5560  0.0989 -0.2868
  194DOPC  H14S24012   1.480   7.737  13.536  0.0976 -1.1358 -1.6176
  194DOPC  C21524013   1.294   7.823  13.590  0.5781  0.0132  0.0737
  194DOPC  H15R24014   1.265   7.722  13.624  2.6500 -1.4878 -2.2447
  194DOPC  H15S24015   1.208   7.881  13.549 -0.1530 -1.7769 -1.0306
  194DOPC  C21624016   1.353   7.896  13.713  0.0034 -0.0108 -0.8385
  194DOPC  H16R24017   1.385   7.996  13.676 -0.2939  0.0830 -0.8503
  194DOPC  H16S24018   1.442   7.835  13.738 -0.6073  0.0207  1.6888
  194DOPC  C21724019   1.271   7.894  13.838  0.1229  0.4793  0.4473
  194DOPC  H17R24020   1.248   7.792  13.875 -0.8532  0.8231  0.8291
  194DOPC  H17S24021   1.174   7.948  13.824  0.7899  1.9232  1.1494
  194DOPC  C21824022   1.346   7.960  13.957 -0.2042  0.2394 -0.1061
  194DOPC  H18R24023   1.289   7.936  14.049 -0.1523  1.2790  0.2089
  194DOPC  H18S24024   1.366   8.069  13.953  1.4023  0.0868  2.0446
  194DOPC  H18T24025   1.441   7.906  13.981  0.9896  1.7614 -1.1670
  194DOPC   C3324026   1.053   8.069  12.789  0.2548 -0.1537 -0.5533
  194DOPC   H3X24027   1.088   8.119  12.882 -0.3042  0.9477 -0.9213
  194DOPC   H3Y24028   1.141   8.034  12.732  0.9438 -1.5377  1.2416
  194DOPC   C3424029   0.962   7.951  12.820  0.2670  0.7617  0.4672
  194DOPC   H4X24030   1.021   7.873  12.873 -1.8453 -2.3079 -1.4098
  194DOPC   H4Y24031   0.936   7.907  12.722 -0.6350 -0.4515  1.2314
  194DOPC   C3524032   0.836   7.977  12.907 -0.6770 -0.0917 -0.6418
  194DOPC   H5X24033   0.768   7.890  12.916 -1.9273  0.9644  0.6324
  194DOPC   H5Y24034   0.795   8.069  12.859  2.1465 -0.5578 -4.4323
  194DOPC   C3624035   0.877   7.992  13.053  1.2500  0.0628 -0.3857
  194DOPC   H6X24036   0.946   7.912  13.087  0.2645 -0.4049  0.5854
  194DOPC   H6Y24037   0.939   8.083  13.065  0.5709  0.6171 -0.9469
  194DOPC   C3724038   0.756   7.995  13.148 -0.2350 -0.7596  0.2675
  194DOPC   H7X24039   0.675   8.064  13.115 -1.2125 -1.6832  0.6600
  194DOPC   H7Y24040   0.726   7.888  13.144 -0.4115 -0.8059  2.1379
  194DOPC   C3824041   0.782   8.022  13.298 -0.2975  0.4378  0.5020
  194DOPC   H8X24042   0.868   7.956  13.322 -0.5599 -0.5357 -1.0385
  194DOPC   H8Y24043   0.700   7.984  13.362  1.3403 -0.2102  2.3186
  194DOPC   C3924044   0.816   8.164  13.326 -0.2070  0.4705 -0.7419
  194DOPC   H9X24045   0.905   8.201  13.273  2.2681 -1.3380  1.8474
  194DOPC  C31024046   0.744   8.254  13.399  0.5201 -0.4009  0.1029
  194DOPC  H10X24047   0.774   8.359  13.415  1.3374 -0.4594 -0.9614
  194DOPC  C31124048   0.611   8.232  13.464  0.0746 -0.0648  0.1397
  194DOPC  H11X24049   0.604   8.252  13.573  0.4950  2.4836 -0.2520
  194DOPC  H11Y24050   0.589   8.123  13.460  1.3080 -0.4296  2.2433
  194DOPC  C31224051   0.495   8.308  13.400  0.5812  0.4120  0.5906
  194DOPC  H12X24052   0.523   8.411  13.369  0.2442  0.0657 -0.9900
  194DOPC  H12Y24053   0.410   8.301  13.472 -0.4028  1.6897 -0.3877
  194DOPC  C31324054   0.421   8.248  13.275  0.7583  0.1953 -0.1519
  194DOPC  H13X24055   0.500   8.224  13.201 -0.7443 -0.9754 -1.4476
  194DOPC  H13Y24056   0.381   8.150  13.308 -0.1027 -0.3936 -2.7035
  194DOPC  C31424057   0.301   8.330  13.211  0.4340  0.5556  0.8472
  194DOPC  H14X24058   0.343   8.429  13.184  0.0416  1.1977  2.4518
  194DOPC  H14Y24059   0.283   8.279  13.114  0.3945  0.0960  1.0909
  194DOPC  C31524060   0.174   8.352  13.293  0.0205 -0.0295 -0.6660
  194DOPC  H15X24061   0.193   8.398  13.393 -1.4305 -0.9145  0.0483
  194DOPC  H15Y24062   0.127   8.258  13.328  1.0382 -0.3566 -0.1516
  194DOPC  C31624063   0.070   8.452  13.225 -0.5835  0.6452  0.3903
  194DOPC  H16X24064   0.009   8.496  13.307 -0.5108  1.0169  0.2456
  194DOPC  H16Y24065   0.148   8.515  13.177  1.9017 -1.5955  1.2486
  194DOPC  C31724066  -0.023   8.381  13.128 -0.2658  0.3023 -0.1233
  194DOPC  H17X24067   0.039   8.302  13.081  0.5612  1.2477 -0.6739
  194DOPC  H17Y24068  -0.099   8.324  13.185  0.6623  0.5064  1.3960
  194DOPC  C31824069  -0.092   8.467  13.030 -0.2271 -0.1447 -0.0079
  194DOPC  H18X24070  -0.028   8.546  12.986  1.0215 -0.1376  1.7280
  194DOPC  H18Y24071  -0.124   8.394  12.953  1.4155  0.1208 -0.9841
  194DOPC  H18Z24072  -0.177   8.525  13.072  3.9819  3.4768  4.8265
  195DOPC     N24073   5.581   7.538  12.229 -0.2722  0.2554 -0.4163
  195DOPC   C1224074   5.493   7.523  12.359 -0.1493 -0.4499  0.7601
  195DOPC  H12A24075   5.482   7.622  12.402 -2.2328 -0.7176  0.9856
  195DOPC  H12B24076   5.545   7.468  12.436  1.7430  0.6004  0.2925
  195DOPC   C1324077   5.510   7.627  12.123  0.2896 -0.0612  0.2029
  195DOPC  H13A24078   5.543   7.608  12.022 -0.1937  0.7934 -0.1248
  195DOPC  H13B24079   5.406   7.600  12.122  0.6413 -1.4517  0.2854
  195DOPC  H13C24080   5.523   7.732  12.149  0.5177  0.2399 -1.0540
  195DOPC   C1424081   5.608   7.407  12.168  0.2030  0.5513  0.3080
  195DOPC  H14A24082   5.671   7.344  12.229 -0.3614  0.9492  1.3235
  195DOPC  H14B24083   5.517   7.349  12.174  1.4542 -1.4927  0.4279
  195DOPC  H14C24084   5.657   7.402  12.072 -2.6460 -0.7095 -1.1933
  195DOPC   C1524085   5.709   7.599  12.262 -0.3490 -0.5772  0.2245
  195DOPC  H15A24086   5.761   7.617  12.169  0.1927  1.2581  0.8360
  195DOPC  H15B24087   5.764   7.540  12.334 -0.2564 -0.2296  0.4423
  195DOPC  H15C24088   5.690   7.691  12.316  1.0078 -0.7650  1.0781
  195DOPC   C1124089   5.345   7.464  12.364  0.2038  0.2464 -0.0382
  195DOPC  H11A24090   5.299   7.482  12.464 -0.6708  2.2046 -0.7475
  195DOPC  H11B24091   5.279   7.524  12.298  0.4470  0.6487  0.0821
  195DOPC     P24092   5.399   7.220  12.442 -0.1569 -0.1044 -0.1475
  195DOPC   O1324093   5.471   7.110  12.376  0.0703 -0.1344 -0.0524
  195DOPC   O1424094   5.283   7.187  12.526 -0.5394  0.5333 -0.2078
  195DOPC   O1224095   5.343   7.326  12.336 -0.1152  0.0591  0.1896
  195DOPC   O1124096   5.497   7.304  12.531 -0.3163  0.7920  0.3694
  195DOPC    C124097   5.471   7.318  12.674 -0.3392  0.4208  0.5624
  195DOPC    HA24098   5.459   7.222  12.727 -0.0671  0.4450  0.6714
  195DOPC    HB24099   5.380   7.376  12.702 -0.9029 -0.8731  1.4932
  195DOPC    C224100   5.597   7.379  12.740 -0.1939  0.2345  0.1771
  195DOPC    HS24101   5.676   7.300  12.742 -0.9199 -0.5111 -0.0202
  195DOPC   O2124102   5.565   7.431  12.870  0.6504  0.5987  0.5807
  195DOPC   C2124103   5.665   7.453  12.947 -0.4662  0.4395 -0.8593
  195DOPC   O2224104   5.784   7.427  12.926 -0.0665  0.2098  0.1170
  195DOPC   C2224105   5.601   7.493  13.079  0.2846 -0.9436  0.0598
  195DOPC   H2R24106   5.495   7.522  13.061  0.2880 -0.7733  0.3053
  195DOPC   H2S24107   5.660   7.576  13.123  1.8989 -1.8523 -0.3201
  195DOPC    C324108   5.672   7.484  12.657 -0.3424 -0.5589  0.3583
  195DOPC    HX24109   5.700   7.438  12.560 -0.8078  0.7417 -0.4037
  195DOPC    HY24110   5.770   7.513  12.703  0.8353 -2.6010 -0.7233
  195DOPC   O3124111   5.590   7.596  12.626  0.7442  0.1203  0.4367
  195DOPC   C3124112   5.596   7.703  12.712 -0.2151  0.2786  0.1751
  195DOPC   O3224113   5.654   7.697  12.818  0.2795 -0.3887  0.2416
  195DOPC   C3224114   5.520   7.826  12.655 -0.0781 -0.1788 -0.1710
  195DOPC   H2X24115   5.582   7.918  12.666 -1.1858  0.3893  1.7279
  195DOPC   H2Y24116   5.487   7.805  12.552  1.2033 -0.7482 -0.4886
  195DOPC   C2324117   5.604   7.385  13.194  0.4763 -1.0743 -0.0831
  195DOPC   H3R24118   5.519   7.315  13.182 -1.0053  0.2188  1.9988
  195DOPC   H3S24119   5.567   7.448  13.278 -0.7918  0.5137 -1.7534
  195DOPC   C2424120   5.740   7.316  13.214 -0.2584  0.4381 -0.1537
  195DOPC   H4R24121   5.810   7.402  13.223  0.3203 -0.1913  1.7912
  195DOPC   H4S24122   5.771   7.256  13.125  0.1741 -0.9210  0.8706
  195DOPC   C2524123   5.745   7.233  13.341 -0.1641  0.0245  0.1757
  195DOPC   H5R24124   5.701   7.131  13.332 -0.6952  0.2797 -0.1368
  195DOPC   H5S24125   5.674   7.296  13.399 -1.0474 -0.2365 -0.5955
  195DOPC   C2624126   5.885   7.225  13.398  0.8016  0.1856 -0.5700
  195DOPC   H6R24127   5.891   7.167  13.493 -0.8051  0.9352  0.0238
  195DOPC   H6S24128   5.928   7.326  13.414  0.8087 -0.0986  1.4829
  195DOPC   C2724129   5.971   7.136  13.308 -0.1610  0.4513  0.4397
  195DOPC   H7R24130   5.973   7.182  13.207  2.1114 -0.2956  0.0980
  195DOPC   H7S24131   5.923   7.036  13.299  1.1760 -0.0284 -2.1857
  195DOPC   C2824132   6.112   7.129  13.370 -0.3138 -0.1691  0.5756
  195DOPC   H8R24133   6.142   7.222  13.422  0.2287  1.0015 -1.7163
  195DOPC   H8S24134   6.187   7.122  13.288 -0.6745  0.8671  0.1409
  195DOPC   C2924135   6.124   7.004  13.452 -0.0510  0.1213 -0.3891
  195DOPC   H9R24136   6.066   6.921  13.411 -2.4998  0.9163  1.2235
  195DOPC  C21024137   6.194   6.992  13.574  0.1251 -0.4106 -0.6372
  195DOPC  H10R24138   6.201   6.891  13.616  3.4747 -0.0973 -0.1740
  195DOPC  C21124139   6.267   7.093  13.650 -0.1404 -0.4657 -0.2433
  195DOPC  H11R24140   6.274   7.182  13.583  0.3062  0.2577  0.7282
  195DOPC  H11S24141   6.373   7.059  13.655  0.6983  1.8518 -0.8388
  195DOPC  C21224142   6.208   7.154  13.784  0.2787  0.4575 -0.2590
  195DOPC  H12R24143   6.107   7.198  13.776 -0.3911 -0.5040  1.9965
  195DOPC  H12S24144   6.283   7.228  13.819  1.8855 -1.9974  1.8880
  195DOPC  C21324145   6.201   7.052  13.900  0.4076 -0.4872 -0.5130
  195DOPC  H13R24146   6.144   6.964  13.864 -0.5990  0.3359 -0.9650
  195DOPC  H13S24147   6.150   7.096  13.988 -1.0819  0.7378 -1.9301
  195DOPC  C21424148   6.340   7.016  13.942 -0.1352  0.1055  1.0592
  195DOPC  H14R24149   6.403   7.101  13.977 -0.2160  0.9595 -0.7628
  195DOPC  H14S24150   6.392   6.977  13.852 -0.2263  2.5748 -0.1650
  195DOPC  C21524151   6.340   6.904  14.042 -0.1919  0.7488 -0.6974
  195DOPC  H15R24152   6.289   6.809  14.013  0.3310  0.9391 -2.3403
  195DOPC  H15S24153   6.296   6.928  14.141  0.4419  0.5254 -0.3590
  195DOPC  C21624154   6.484   6.860  14.072 -0.5406 -0.5693  0.4303
  195DOPC  H16R24155   6.548   6.946  14.100  1.0574 -1.4513 -0.4195
  195DOPC  H16S24156   6.519   6.826  13.972 -0.0391 -0.0845  0.4365
  195DOPC  C21724157   6.508   6.742  14.163  0.1190  0.5924  0.0692
  195DOPC  H17R24158   6.445   6.658  14.126 -0.1185  0.5339  0.5948
  195DOPC  H17S24159   6.461   6.769  14.259  0.9538  0.9218  0.3959
  195DOPC  C21824160   6.652   6.695  14.192  0.3015  0.3358 -0.1992
  195DOPC  H18R24161   6.716   6.780  14.223  0.1568 -0.3068  1.9856
  195DOPC  H18S24162   6.699   6.643  14.106  2.9869  2.2964 -0.0485
  195DOPC  H18T24163   6.650   6.629  14.281  0.9046  0.5657 -0.0129
  195DOPC   C3324164   5.389   7.856  12.746 -0.1158 -0.1248 -0.2531
  195DOPC   H3X24165   5.349   7.955  12.715  0.9992  0.0223 -1.2928
  195DOPC   H3Y24166   5.404   7.881  12.853 -1.7065  1.7536 -0.4133
  195DOPC   C3424167   5.281   7.758  12.730  0.0398 -0.0915 -0.4347
  195DOPC   H4X24168   5.332   7.659  12.731  0.8638  0.3039 -1.3237
  195DOPC   H4Y24169   5.247   7.766  12.624 -0.9996 -2.1898 -0.3112
  195DOPC   C3524170   5.167   7.758  12.828  0.2113 -0.3653 -0.3746
  195DOPC   H5X24171   5.079   7.815  12.792 -0.1720  1.0777  2.5307
  195DOPC   H5Y24172   5.208   7.813  12.916  0.4586  0.2081 -0.8485
  195DOPC   C3624173   5.131   7.618  12.877  1.0107 -0.3417 -0.5804
  195DOPC   H6X24174   5.031   7.640  12.920  0.2268 -3.4367 -0.5310
  195DOPC   H6Y24175   5.123   7.537  12.801  1.5896 -1.8611  0.9001
  195DOPC   C3724176   5.211   7.556  12.990  0.0838 -0.2360  0.0870
  195DOPC   H7X24177   5.306   7.522  12.944  0.9422 -0.5547  1.9688
  195DOPC   H7Y24178   5.238   7.628  13.071  0.6339  1.1225 -1.2458
  195DOPC   C3824179   5.136   7.438  13.060 -0.9380 -0.1927 -0.1431
  195DOPC   H8X24180   5.032   7.472  13.081 -1.5869 -1.8211 -0.4991
  195DOPC   H8Y24181   5.186   7.421  13.158 -0.6842  1.0698 -0.0390
  195DOPC   C3924182   5.148   7.305  12.983  0.1896  0.0555 -0.2418
  195DOPC   H9X24183   5.251   7.289  12.947 -0.4530 -2.4056 -1.1755
  195DOPC  C31024184   5.044   7.230  12.946 -0.9347 -0.1379 -0.2286
  195DOPC  H10X24185   5.058   7.125  12.915 -0.7761  0.2076 -1.3680
  195DOPC  C31124186   4.900   7.258  12.953  0.7872  0.2237  0.2010
  195DOPC  H11X24187   4.883   7.328  12.869  2.7396  0.0924 -0.3381
  195DOPC  H11Y24188   4.877   7.306  13.051  0.8015  0.1575  0.2368
  195DOPC  C31224189   4.815   7.130  12.949  0.3059 -0.1860 -0.3502
  195DOPC  H12X24190   4.854   7.063  12.869  2.6988 -0.6989  1.1383
  195DOPC  H12Y24191   4.715   7.162  12.912 -0.4190  0.4929  2.0454
  195DOPC  C31324192   4.794   7.057  13.085  0.4487 -0.8147  0.1605
  195DOPC  H13X24193   4.748   6.958  13.068  0.3107 -0.7296  0.0429
  195DOPC  H13Y24194   4.888   7.051  13.145  0.6897  3.2078  0.4600
  195DOPC  C31424195   4.705   7.132  13.188  0.4357  0.1459 -0.2473
  195DOPC  H14X24196   4.761   7.219  13.228  1.3037  0.5410 -2.1878
  195DOPC  H14Y24197   4.605   7.162  13.152  0.4927 -0.6574 -1.1061
  195DOPC  C31524198   4.697   7.044  13.312 -0.6426 -0.1880  0.1259
  195DOPC  H15X24199   4.800   7.024  13.349 -1.0138 -1.2017  0.6724
  195DOPC  H15Y24200   4.666   6.947  13.267 -1.1191 -0.5582  1.1957
  195DOPC  C31624201   4.612   7.105  13.425  0.3852  0.1518  0.1697
  195DOPC  H16X24202   4.646   7.209  13.444 -2.0702  1.5354 -2.1707
  195DOPC  H16Y24203   4.506   7.112  13.391  0.4853 -2.2422 -0.8509
  195DOPC  C31724204   4.593   7.030  13.553 -0.3929 -0.1757  0.3303
  195DOPC  H17X24205   4.555   7.095  13.635  0.2955  0.7758 -0.0866
  195DOPC  H17Y24206   4.505   6.963  13.543 -1.1096  0.4664  1.8988
  195DOPC  C31824207   4.713   6.951  13.598 -0.4593 -0.1612 -0.5791
  195DOPC  H18X24208   4.737   6.871  13.524  0.1559 -0.9180  0.4156
  195DOPC  H18Y24209   4.805   7.014  13.599  0.4111 -1.3581  0.9562
  195DOPC  H18Z24210   4.703   6.888  13.689  2.1756 -0.0042 -0.1028
  196DOPC     N24211   2.142   1.605  12.089 -0.0527 -0.4425  0.0219
  196DOPC   C1224212   2.064   1.614  12.222 -0.0845  0.9251 -0.1263
  196DOPC  H12A24213   1.958   1.617  12.201  0.3296 -1.5508 -3.4130
  196DOPC  H12B24214   2.087   1.704  12.276  2.2195  0.8659 -0.9038
  196DOPC   C1324215   2.124   1.480  12.018  0.4396  0.4320  1.1353
  196DOPC  H13A24216   2.175   1.400  12.069  0.0783 -1.5183 -1.3672
  196DOPC  H13B24217   2.021   1.447  12.018  1.0102 -1.6732 -0.9945
  196DOPC  H13C24218   2.166   1.475  11.918 -0.8887 -0.7927  0.5992
  196DOPC   C1424219   2.289   1.623  12.118 -0.0392  0.4322  0.1445
  196DOPC  H14A24220   2.317   1.551  12.193 -2.9295 -0.9074  0.0994
  196DOPC  H14B24221   2.343   1.600  12.028  0.8276 -1.5551  1.1186
  196DOPC  H14C24222   2.312   1.717  12.166  0.6993  0.6625 -0.6341
  196DOPC   C1524223   2.099   1.722  12.004  0.2202 -0.3627 -0.2431
  196DOPC  H15A24224   2.081   1.811  12.063 -1.3773 -0.8337  0.0085
  196DOPC  H15B24225   2.006   1.713  11.950 -0.5874  1.1730  0.8066
  196DOPC  H15C24226   2.160   1.738  11.916  0.1890  0.3889 -0.1376
  196DOPC   C1124227   2.080   1.490  12.322 -0.1543  0.2799 -0.3312
  196DOPC  H11A24228   2.187   1.474  12.343 -1.0787 -1.7547  3.8609
  196DOPC  H11B24229   2.021   1.516  12.412  0.4079 -3.0728  1.1597
  196DOPC     P24230   1.857   1.363  12.268  0.0036 -0.3157 -0.1797
  196DOPC   O1324231   1.801   1.238  12.217 -0.3609  0.0001 -0.1096
  196DOPC   O1424232   1.810   1.489  12.207  1.0258 -0.1047 -0.1072
  196DOPC   O1224233   2.018   1.368  12.276  0.0391 -0.1047 -0.0113
  196DOPC   O1124234   1.818   1.369  12.422  0.6375  0.5088 -0.7944
  196DOPC    C124235   1.876   1.278  12.510  0.5736 -0.2448  0.0123
  196DOPC    HA24236   1.906   1.337  12.599  0.8198 -2.6429  1.6035
  196DOPC    HB24237   1.961   1.227  12.461  0.9320  1.1899 -0.9091
  196DOPC    C224238   1.775   1.166  12.567  0.0065 -0.3339 -0.2056
  196DOPC    HS24239   1.748   1.105  12.478  0.4533 -1.5360  0.4594
  196DOPC   O2124240   1.662   1.227  12.623  0.2770 -0.4106 -0.3331
  196DOPC   C2124241   1.561   1.146  12.661 -0.0957 -0.1528  0.7885
  196DOPC   O2224242   1.543   1.029  12.629 -0.2978  0.1149 -0.2037
  196DOPC   C2224243   1.459   1.234  12.750 -0.6489 -0.2435  0.2398
  196DOPC   H2R24244   1.398   1.164  12.811 -0.3038  0.5038  1.4831
  196DOPC   H2S24245   1.382   1.282  12.686  0.1375 -1.7611 -1.9897
  196DOPC    C324246   1.843   1.063  12.666  0.0561 -0.3531  0.1751
  196DOPC    HX24247   1.941   1.042  12.617  0.0932 -0.6264  0.3653
  196DOPC    HY24248   1.783   0.969  12.672  0.4422 -0.5084  4.1028
  196DOPC   O3124249   1.863   1.123  12.799  0.2688  0.1410  0.6219
  196DOPC   C3124250   1.980   1.180  12.823 -0.6163  0.5025 -0.6837
  196DOPC   O3224251   2.079   1.183  12.749 -0.0472 -0.0250 -0.0741
  196DOPC   C3224252   1.975   1.232  12.969 -0.0899  0.0848 -0.6205
  196DOPC   H2X24253   1.947   1.153  13.041 -0.0019  0.6645  0.0604
  196DOPC   H2Y24254   2.080   1.263  12.992 -1.3074  2.6239  2.1281
  196DOPC   C2324255   1.523   1.331  12.849  0.1310  0.6372 -0.2643
  196DOPC   H3R24256   1.594   1.389  12.786 -2.2908  0.8649 -3.0059
  196DOPC   H3S24257   1.582   1.271  12.922 -3.3049 -0.2885  2.0025
  196DOPC   C2424258   1.429   1.438  12.908  0.5971  0.0920  0.3289
  196DOPC   H4R24259   1.418   1.513  12.827 -1.2015  0.9436  1.3206
  196DOPC   H4S24260   1.481   1.476  12.999 -0.7095  0.1344  1.0735
  196DOPC   C2524261   1.287   1.393  12.928  0.6778  0.1799 -0.2652
  196DOPC   H5R24262   1.300   1.302  12.991  0.9331  0.6802  0.4233
  196DOPC   H5S24263   1.243   1.361  12.831 -0.9453  1.0530  0.1445
  196DOPC   C2624264   1.198   1.502  12.992 -0.2382  0.1789  0.4340
  196DOPC   H6R24265   1.092   1.468  12.990 -0.4174  0.7173  0.6269
  196DOPC   H6S24266   1.200   1.596  12.932  0.5513  0.9977  1.7018
  196DOPC   C2724267   1.220   1.534  13.143  0.0074 -0.1749  0.4799
  196DOPC   H7R24268   1.307   1.602  13.154 -0.1035  0.5295 -2.2446
  196DOPC   H7S24269   1.242   1.439  13.197 -0.0775 -0.3658  0.1840
  196DOPC   C2824270   1.093   1.594  13.211  0.3016  0.3181 -0.1629
  196DOPC   H8R24271   1.067   1.684  13.151 -1.2864  0.0091  0.0149
  196DOPC   H8S24272   1.133   1.633  13.307 -0.6358 -1.5227  1.0288
  196DOPC   C2924273   0.972   1.502  13.225 -0.6162 -0.4590  0.0879
  196DOPC   H9R24274   0.923   1.495  13.127  0.4465  0.1188 -0.4948
  196DOPC  C21024275   0.920   1.443  13.333  0.8926  0.5058  0.6041
  196DOPC  H10R24276   0.828   1.386  13.312  0.8948  0.3105  1.1284
  196DOPC  C21124277   0.969   1.452  13.474 -0.1866  0.2795 -0.6933
  196DOPC  H11R24278   0.899   1.389  13.532  0.1549 -0.0468 -0.6314
  196DOPC  H11S24279   0.962   1.557  13.512 -0.8849 -0.3090  0.8788
  196DOPC  C21224280   1.118   1.405  13.514 -0.6300 -0.3703  0.1954
  196DOPC  H12R24281   1.153   1.443  13.613  1.7204 -1.0024 -0.3362
  196DOPC  H12S24282   1.197   1.438  13.444 -0.7680  1.2990  0.7822
  196DOPC  C21324283   1.130   1.251  13.512  0.0087 -0.7562 -0.4254
  196DOPC  H13R24284   1.091   1.201  13.421 -2.8391  0.8538 -0.1923
  196DOPC  H13S24285   1.064   1.210  13.592  0.1054 -2.0856 -0.9978
  196DOPC  C21424286   1.269   1.196  13.549  0.5332 -0.4983 -0.4210
  196DOPC  H14R24287   1.298   1.249  13.642 -3.8205 -0.2899  1.0752
  196DOPC  H14S24288   1.326   1.237  13.463 -1.3628 -1.5483 -2.2578
  196DOPC  C21524289   1.277   1.040  13.551 -0.8824  0.0765  0.2865
  196DOPC  H15R24290   1.207   1.007  13.472 -1.6439  1.3027  0.4082
  196DOPC  H15S24291   1.237   1.007  13.649  1.5945 -1.2170  0.9356
  196DOPC  C21624292   1.425   1.000  13.529  0.3499 -0.3526  0.0413
  196DOPC  H16R24293   1.494   1.051  13.600  0.0155  2.1400 -1.2995
  196DOPC  H16S24294   1.454   1.019  13.423  2.1426  0.2131  0.5982
  196DOPC  C21724295   1.441   0.845  13.548 -0.2753  0.1091 -0.0899
  196DOPC  H17R24296   1.366   0.790  13.488 -1.0620 -1.6164  2.3119
  196DOPC  H17S24297   1.406   0.829  13.652 -0.0212  1.5431  0.2404
  196DOPC  C21824298   1.572   0.767  13.534  1.0308 -0.5053 -0.4536
  196DOPC  H18R24299   1.656   0.810  13.592  1.7490 -1.5356 -0.6892
  196DOPC  H18S24300   1.596   0.772  13.426 -2.0091 -0.7181 -1.2401
  196DOPC  H18T24301   1.564   0.662  13.570 -0.2255 -0.0066  0.8212
  196DOPC   C3324302   1.883   1.354  12.979  0.4715  0.3131 -0.2358
  196DOPC   H3X24303   1.785   1.330  12.932 -0.2079  1.5410  0.5104
  196DOPC   H3Y24304   1.927   1.436  12.919 -0.7527 -0.2819 -2.0517
  196DOPC   C3424305   1.872   1.400  13.129  0.1129 -0.3699  0.3477
  196DOPC   H4X24306   1.849   1.509  13.128  1.6553 -0.0213  0.4166
  196DOPC   H4Y24307   1.971   1.383  13.177  0.1553  3.0795  1.8045
  196DOPC   C3524308   1.762   1.333  13.207  0.4990 -0.1502 -0.4122
  196DOPC   H5X24309   1.787   1.225  13.212 -0.3142 -0.3295  0.1000
  196DOPC   H5Y24310   1.664   1.369  13.169  1.3884  1.7974 -0.9725
  196DOPC   C3624311   1.764   1.376  13.353  0.3072  0.4581 -0.1280
  196DOPC   H6X24312   1.861   1.345  13.398 -0.2372  1.5820  1.8894
  196DOPC   H6Y24313   1.750   1.485  13.364  1.1129  0.3871  1.9681
  196DOPC   C3724314   1.653   1.305  13.429 -0.0411 -0.2481 -0.4955
  196DOPC   H7X24315   1.556   1.333  13.383 -0.8179  0.2225  1.3442
  196DOPC   H7Y24316   1.680   1.197  13.421  0.5609  0.0309 -3.6346
  196DOPC   C3824317   1.645   1.348  13.580 -0.8118 -0.7415 -0.2383
  196DOPC   H8X24318   1.552   1.304  13.624  0.0574 -1.8834  0.5279
  196DOPC   H8Y24319   1.635   1.459  13.583  1.7007 -0.4483 -0.9899
  196DOPC   C3924320   1.763   1.315  13.663 -0.9164 -0.7412 -0.1032
  196DOPC   H9X24321   1.861   1.337  13.617 -0.1518 -1.1212  1.2672
  196DOPC  C31024322   1.764   1.273  13.790  0.8744  0.5315 -0.2780
  196DOPC  H10X24323   1.859   1.239  13.834 -0.3356 -1.3434  1.0394
  196DOPC  C31124324   1.642   1.269  13.878  0.9533  0.4196 -0.0579
  196DOPC  H11X24325   1.558   1.325  13.832 -2.0285 -1.6712  2.4523
  196DOPC  H11Y24326   1.678   1.309  13.976  2.2122 -0.6533 -0.0591
  196DOPC  C31224327   1.587   1.125  13.902 -0.2186 -0.6785 -1.0834
  196DOPC  H12X24328   1.553   1.093  13.801 -1.0761 -0.4662 -0.8716
  196DOPC  H12Y24329   1.500   1.131  13.972  1.8684  0.1659  1.5900
  196DOPC  C31324330   1.684   1.012  13.950  0.0632 -0.9831  0.8191
  196DOPC  H13X24331   1.783   1.025  13.901  0.1443 -0.0477  1.2023
  196DOPC  H13Y24332   1.710   1.036  14.056 -0.5149  2.5921  0.2737
  196DOPC  C31424333   1.618   0.881  13.905 -0.7433 -0.2436  0.0052
  196DOPC  H14X24334   1.521   0.866  13.956  0.1073  1.1351  2.1811
  196DOPC  H14Y24335   1.614   0.884  13.794  0.7639 -0.2566 -0.0703
  196DOPC  C31524336   1.712   0.763  13.936 -0.2993 -0.9382 -0.5785
  196DOPC  H15X24337   1.811   0.791  13.893 -0.7305 -0.1970 -1.1050
  196DOPC  H15Y24338   1.689   0.669  13.882  0.0018 -2.1571  1.3060
  196DOPC  C31624339   1.732   0.726  14.085  0.3846 -0.4887  0.6353
  196DOPC  H16X24340   1.766   0.811  14.147  1.7160 -1.1144  0.7967
  196DOPC  H16Y24341   1.632   0.702  14.125 -0.9712  0.0120 -2.1643
  196DOPC  C31724342   1.831   0.613  14.103  0.0926  0.3481 -0.4924
  196DOPC  H17X24343   1.856   0.564  14.006  0.5418  0.1867 -0.2966
  196DOPC  H17Y24344   1.930   0.655  14.133 -0.8641  1.4372  1.3131
  196DOPC  C31824345   1.771   0.489  14.193  0.4525 -0.7251 -0.0323
  196DOPC  H18X24346   1.703   0.523  14.274  0.1243  0.4177 -0.7588
  196DOPC  H18Y24347   1.707   0.425  14.128 -1.2856 -0.6431  1.5073
  196DOPC  H18Z24348   1.849   0.422  14.236 -1.2131 -1.5747  1.8325
  197DOPC     N24349   0.596   8.216  11.949  0.2548  0.7453  0.0942
  197DOPC   C1224350   0.519   8.099  12.006  0.3361  0.5979 -0.2441
  197DOPC  H12A24351   0.583   8.013  12.019  0.1482  0.6587  1.2635
  197DOPC  H12B24352   0.451   8.068  11.928  0.6108  0.7379 -0.5418
  197DOPC   C1324353   0.704   8.255  12.045  0.0241 -0.0631 -0.1382
  197DOPC  H13A24354   0.761   8.163  12.050  1.1156  0.5731 -0.7379
  197DOPC  H13B24355   0.773   8.332  12.014  2.3432 -1.8124  0.3534
  197DOPC  H13C24356   0.672   8.274  12.147 -0.5418 -3.9895  0.5959
  197DOPC   C1424357   0.497   8.324  11.922  0.5701 -0.4289  0.0432
  197DOPC  H14A24358   0.418   8.276  11.865 -0.2506  0.5306  0.3430
  197DOPC  H14B24359   0.441   8.353  12.010 -0.3925 -0.3155 -0.5871
  197DOPC  H14C24360   0.543   8.413  11.883  0.1859  0.5717  1.7710
  197DOPC   C1524361   0.652   8.180  11.820 -0.3119  0.8945  0.0313
  197DOPC  H15A24362   0.704   8.272  11.794  0.1489  0.6171 -0.0513
  197DOPC  H15B24363   0.581   8.160  11.741  0.5191  0.9798 -0.7730
  197DOPC  H15C24364   0.718   8.095  11.825 -2.2820 -0.7526 -0.7243
  197DOPC   C1124365   0.426   8.121  12.134  0.0633  0.1926 -0.3590
  197DOPC  H11A24366   0.425   8.018  12.177  2.1913  0.5432  0.6759
  197DOPC  H11B24367   0.485   8.182  12.206  0.7874 -1.2504  0.3118
  197DOPC     P24368   0.224   8.272  12.197  0.2952  0.1328 -0.0564
  197DOPC   O1324369   0.076   8.259  12.185 -0.7012 -0.5342 -0.0393
  197DOPC   O1424370   0.285   8.407  12.172  0.1216  0.3800  0.4279
  197DOPC   O1224371   0.296   8.167  12.105 -0.0682 -0.1701  0.0634
  197DOPC   O1124372   0.257   8.215  12.347 -0.1144  0.0510 -0.3715
  197DOPC    C124373   0.168   8.141  12.427 -0.1854  0.9294 -0.2894
  197DOPC    HA24374   0.086   8.108  12.359  1.4978  2.4052 -3.2595
  197DOPC    HB24375   0.133   8.207  12.509 -0.4814 -1.1520  1.3296
  197DOPC    C224376   0.256   8.029  12.493  0.5705  0.5094  0.8552
  197DOPC    HS24377   0.280   7.956  12.413 -2.1533  1.7953 -1.3209
  197DOPC   O2124378   0.164   7.965  12.589  0.2225  0.2467  0.7121
  197DOPC   C2124379   0.224   7.851  12.643  0.7108  0.3398  0.0964
  197DOPC   O2224380   0.312   7.786  12.595 -0.5325  0.2128 -0.0333
  197DOPC   C2224381   0.140   7.808  12.763  0.2481  0.1329  0.7721
  197DOPC   H2R24382   0.077   7.725  12.724 -1.7701  2.2508 -0.7503
  197DOPC   H2S24383   0.071   7.887  12.798 -2.5448 -1.9058  0.2343
  197DOPC    C324384   0.387   8.080  12.558  0.2382  0.3441 -0.1762
  197DOPC    HX24385   0.439   8.141  12.480  0.9371 -2.3521 -1.9465
  197DOPC    HY24386   0.454   7.994  12.580 -0.3943 -0.0412  0.2870
  197DOPC   O3124387   0.349   8.153  12.672  0.3976  0.1267  0.4117
  197DOPC   C3124388   0.453   8.169  12.757  0.3042 -0.8862 -1.0975
  197DOPC   O3224389   0.567   8.128  12.730  0.0598  0.8821 -0.1811
  197DOPC   C3224390   0.411   8.259  12.877 -0.1636 -0.5067 -0.5746
  197DOPC   H2X24391   0.303   8.244  12.894  0.1905 -2.1773  0.4416
  197DOPC   H2Y24392   0.471   8.224  12.964 -1.3696 -0.1462  0.4247
  197DOPC   C2324393   0.232   7.746  12.869 -0.0897  0.1147 -0.3518
  197DOPC   H3R24394   0.310   7.683  12.822  0.7524  0.9394 -0.0705
  197DOPC   H3S24395   0.170   7.682  12.937  1.6902 -0.1492  1.0808
  197DOPC   C2424396   0.304   7.842  12.968 -0.4705  0.2250 -0.1840
  197DOPC   H4R24397   0.388   7.886  12.910 -0.1300 -0.7541 -0.4542
  197DOPC   H4S24398   0.353   7.774  13.040  0.9821  1.1026 -0.2905
  197DOPC   C2524399   0.216   7.934  13.040 -0.1960  0.0579  0.4274
  197DOPC   H5R24400   0.151   7.991  12.970 -0.3449 -0.7028 -0.0562
  197DOPC   H5S24401   0.286   8.007  13.085  1.3868 -1.3061  0.2518
  197DOPC   C2624402   0.108   7.878  13.144  0.0192  0.5596  0.4799
  197DOPC   H6R24403   0.162   7.811  13.215  1.3794  0.8603 -0.2402
  197DOPC   H6S24404   0.043   7.811  13.084  2.7392 -0.9923 -0.9117
  197DOPC   C2724405   0.030   7.979  13.221 -0.4269 -0.5332  0.1457
  197DOPC   H7R24406  -0.019   8.051  13.153 -0.4845 -1.7387 -1.1200
  197DOPC   H7S24407   0.096   8.035  13.291  0.1182 -1.7440  0.6336
  197DOPC   C2824408  -0.088   7.918  13.310  0.7358 -0.7026 -0.1651
  197DOPC   H8R24409  -0.160   7.868  13.241  0.9362  0.1618 -1.0331
  197DOPC   H8S24410  -0.161   7.997  13.339 -1.6594 -2.4386 -1.1295
  197DOPC   C2924411  -0.056   7.842  13.432 -0.2749  0.1982  0.2991
  197DOPC   H9R24412   0.047   7.803  13.427 -0.1993  0.5888 -1.8058
  197DOPC  C21024413  -0.137   7.804  13.533  0.3913  0.1396  0.4130
  197DOPC  H10R24414  -0.103   7.762  13.629 -2.4392  0.6492  1.7251
  197DOPC  C21124415  -0.288   7.844  13.543 -0.2394 -0.1962 -0.5676
  197DOPC  H11R24416  -0.315   7.923  13.471 -0.2372 -1.1758 -1.6713
  197DOPC  H11S24417  -0.302   7.886  13.645 -0.3802  1.9597 -1.4229
  197DOPC  C21224418  -0.385   7.731  13.528 -0.1832  0.3238 -0.3125
  197DOPC  H12R24419  -0.484   7.772  13.558  0.5430  0.4077  2.1427
  197DOPC  H12S24420  -0.357   7.652  13.600 -0.3205  1.3566  0.9138
  197DOPC  C21324421  -0.402   7.663  13.384 -1.1759  0.0464 -0.0313
  197DOPC  H13R24422  -0.298   7.637  13.354 -1.1942 -0.6475  0.4750
  197DOPC  H13S24423  -0.442   7.736  13.310  0.1596 -0.8810 -1.7556
  197DOPC  C21424424  -0.486   7.534  13.379  0.0504 -0.0879  0.2862
  197DOPC  H14R24425  -0.457   7.490  13.281 -0.5753  0.1021  0.0084
  197DOPC  H14S24426  -0.595   7.554  13.377  0.0993  0.8959  3.3764
  197DOPC  C21524427  -0.452   7.429  13.489  0.1351  0.1507  0.7198
  197DOPC  H15R24428  -0.468   7.476  13.588 -0.2087 -0.6902  1.0757
  197DOPC  H15S24429  -0.342   7.412  13.476  0.0593 -0.6186  1.0351
  197DOPC  C21624430  -0.527   7.302  13.470  0.0529 -0.8361 -0.0288
  197DOPC  H16R24431  -0.494   7.241  13.383 -0.1922 -1.8931  0.5987
  197DOPC  H16S24432  -0.636   7.319  13.457  0.1582  0.4450  0.6043
  197DOPC  C21724433  -0.510   7.209  13.591  0.1073  0.8734  0.7480
  197DOPC  H17R24434  -0.401   7.186  13.592 -0.1075 -0.2212  0.6060
  197DOPC  H17S24435  -0.560   7.110  13.580  0.8780  0.2669  2.4002
  197DOPC  C21824436  -0.570   7.246  13.726  0.2251 -0.1980 -0.2475
  197DOPC  H18R24437  -0.527   7.199  13.816  3.6148  3.1460  0.1421
  197DOPC  H18S24438  -0.680   7.232  13.732  0.2958 -0.2869  0.9051
  197DOPC  H18T24439  -0.553   7.354  13.746  0.3285  0.0327 -1.4683
  197DOPC   C3324440   0.444   8.409  12.854 -0.5945 -1.2019  0.0251
  197DOPC   H3X24441   0.419   8.464  12.947  2.1954 -1.5797  1.0921
  197DOPC   H3Y24442   0.382   8.441  12.767 -0.9646 -2.8707 -0.3570
  197DOPC   C3424443   0.593   8.443  12.819  0.1160  0.1810  0.6308
  197DOPC   H4X24444   0.612   8.552  12.813  2.6351 -0.1334  1.8524
  197DOPC   H4Y24445   0.625   8.405  12.719 -1.1691  1.0496 -0.1458
  197DOPC   C3524446   0.687   8.393  12.928  0.3157  0.2227 -0.5508
  197DOPC   H5X24447   0.692   8.282  12.928 -1.5805  0.0576  1.2953
  197DOPC   H5Y24448   0.647   8.420  13.028 -0.7513 -0.7949 -0.6878
  197DOPC   C3624449   0.829   8.455  12.928  0.7230 -0.7933  0.1308
  197DOPC   H6X24450   0.859   8.449  12.821 -0.7055 -1.8327 -0.2407
  197DOPC   H6Y24451   0.823   8.565  12.947 -1.7446 -0.6771 -0.9568
  197DOPC   C3724452   0.925   8.388  13.025  0.1502  0.5112 -0.0657
  197DOPC   H7X24453   0.901   8.404  13.133  1.3984  0.6025  0.2168
  197DOPC   H7Y24454   0.913   8.279  13.006  1.5962 -0.4562  3.5721
  197DOPC   C3824455   1.072   8.409  12.988 -0.5791 -0.3224 -0.1941
  197DOPC   H8X24456   1.087   8.404  12.878  0.1893  0.3201 -0.1287
  197DOPC   H8Y24457   1.129   8.331  13.043 -2.0746 -1.7038 -0.5537
  197DOPC   C3924458   1.134   8.543  13.014  0.2734  0.6543 -0.1559
  197DOPC   H9X24459   1.181   8.561  13.112  1.1921  0.2794 -0.5144
  197DOPC  C31024460   1.151   8.651  12.936  0.3125 -0.0941  0.7981
  197DOPC  H10X24461   1.174   8.748  12.982  0.2880 -0.5582  1.8257
  197DOPC  C31124462   1.119   8.659  12.789 -0.9206 -0.9652  0.7642
  197DOPC  H11X24463   1.102   8.561  12.740 -0.1952  0.0205 -1.5634
  197DOPC  H11Y24464   1.211   8.693  12.738 -1.2483  0.6384  1.1962
  197DOPC  C31224465   1.004   8.753  12.751  0.2017 -0.2596  0.6049
  197DOPC  H12X24466   0.912   8.729  12.810 -0.3733 -2.4836 -1.0765
  197DOPC  H12Y24467   0.979   8.724  12.647 -2.9141 -0.4975  1.3223
  197DOPC  C31324468   1.026   8.905  12.749 -0.0143  0.7354  0.1445
  197DOPC  H13X24469   1.056   8.934  12.852  2.0319  1.7985 -0.6939
  197DOPC  H13Y24470   1.116   8.922  12.686 -0.1868 -3.0887 -1.4119
  197DOPC  C31424471   0.904   8.978  12.707  0.0416 -0.1786 -0.6331
  197DOPC  H14X24472   0.929   9.084  12.687  0.1647 -0.1393 -0.2782
  197DOPC  H14Y24473   0.859   8.931  12.617 -0.2522 -0.8471 -0.1467
  197DOPC  C31524474   0.789   8.978  12.804 -0.4695  0.7532  0.1946
  197DOPC  H15X24475   0.820   8.983  12.910  3.7485  2.1115 -0.8969
  197DOPC  H15Y24476   0.741   8.878  12.795  2.3596 -1.1617  3.8006
  197DOPC  C31624477   0.668   9.069  12.783 -0.4669 -0.5663 -0.6026
  197DOPC  H16X24478   0.625   9.059  12.682  0.2721 -0.1184 -0.9745
  197DOPC  H16Y24479   0.597   9.048  12.866 -2.2067  0.7959 -1.7049
  197DOPC  C31724480   0.701   9.218  12.780 -0.4518 -0.0624 -0.2697
  197DOPC  H17X24481   0.746   9.249  12.683  0.7066 -0.3325  0.1678
  197DOPC  H17Y24482   0.603   9.271  12.786  0.8493  2.8192 -2.0095
  197DOPC  C31824483   0.790   9.290  12.888  0.0663 -0.0112  0.5989
  197DOPC  H18X24484   0.887   9.235  12.894  0.9105  1.2139 -1.2163
  197DOPC  H18Y24485   0.821   9.389  12.851 -1.0936  0.7339  1.5452
  197DOPC  H18Z24486   0.740   9.290  12.988 -1.9176 -0.6223 -0.3441
  198DOPC     N24487   7.134   6.647  12.217  0.1680 -0.3492 -0.1343
  198DOPC   C1224488   7.156   6.676  12.366 -0.5548 -0.2654  0.1878
  198DOPC  H12A24489   7.123   6.778  12.380  1.5174  0.5904 -0.6923
  198DOPC  H12B24490   7.261   6.667  12.391 -0.7552 -0.5428  0.9650
  198DOPC   C1324491   7.009   6.711  12.169  0.2710  0.2282  0.5577
  198DOPC  H13A24492   7.006   6.818  12.184 -0.8061  0.2081  0.5642
  198DOPC  H13B24493   7.006   6.713  12.061  2.0597  2.3184  0.4786
  198DOPC  H13C24494   6.918   6.676  12.215  0.8124 -1.3696  0.4686
  198DOPC   C1424495   7.139   6.497  12.180 -0.5535 -0.3046  0.3337
  198DOPC  H14A24496   7.085   6.439  12.253 -1.3064  0.5931  0.5146
  198DOPC  H14B24497   7.114   6.495  12.075  0.2430  3.2977 -0.0620
  198DOPC  H14C24498   7.242   6.466  12.178 -0.2098  0.7694 -2.6427
  198DOPC   C1524499   7.246   6.709  12.140  0.1485 -0.3111 -0.4840
  198DOPC  H15A24500   7.344   6.674  12.170 -0.4073 -0.9408  0.6631
  198DOPC  H15B24501   7.235   6.816  12.150 -2.1055 -0.5781  0.6485
  198DOPC  H15C24502   7.241   6.681  12.036 -1.3514  2.5864 -1.2935
  198DOPC   C1124503   7.074   6.586  12.470  0.8080 -0.1455 -0.4005
  198DOPC  H11A24504   7.113   6.485  12.448 -0.6300 -0.4944 -1.5174
  198DOPC  H11B24505   7.105   6.605  12.575 -0.4681 -0.0278 -0.0228
  198DOPC     P24506   6.828   6.673  12.491 -0.1500  0.0865 -0.5859
  198DOPC   O1324507   6.695   6.659  12.419 -0.3304 -0.8662 -0.1632
  198DOPC   O1424508   6.882   6.814  12.473 -0.3387  0.0642  0.3513
  198DOPC   O1224509   6.933   6.574  12.438 -0.0091 -0.0021  0.1117
  198DOPC   O1124510   6.808   6.636  12.642 -0.4185  0.2064  0.0569
  198DOPC    C124511   6.810   6.498  12.686 -0.3467  0.4712 -0.2863
  198DOPC    HA24512   6.913   6.458  12.684 -0.1645  0.8225  1.2624
  198DOPC    HB24513   6.750   6.431  12.621 -1.8210 -0.7791  2.2483
  198DOPC    C224514   6.782   6.467  12.842  0.7281  0.3310 -0.1568
  198DOPC    HS24515   6.674   6.484  12.858  0.6050 -1.3777  1.0821
  198DOPC   O2124516   6.865   6.555  12.916 -0.4402 -0.5264  0.8736
  198DOPC   C2124517   6.823   6.582  13.037 -0.3182  0.4252  0.1861
  198DOPC   O2224518   6.736   6.524  13.096 -0.2130 -0.3181 -0.4328
  198DOPC   C2224519   6.905   6.704  13.089  0.1295 -0.7655 -0.2931
  198DOPC   H2R24520   6.830   6.780  13.120  1.4707 -0.2710  1.9530
  198DOPC   H2S24521   6.959   6.756  13.007 -0.2148 -0.2223 -0.1792
  198DOPC    C324522   6.792   6.317  12.866 -0.2577 -0.2695  0.2645
  198DOPC    HX24523   6.899   6.289  12.873  0.3243  2.1205  3.0002
  198DOPC    HY24524   6.751   6.274  12.772 -0.2105  0.9530 -0.3349
  198DOPC   O3124525   6.706   6.277  12.973  0.2118 -0.4269 -0.0903
  198DOPC   C3124526   6.768   6.221  13.073  0.0084 -0.0317 -0.1468
  198DOPC   O3224527   6.891   6.200  13.077  0.6416  0.3864 -0.9761
  198DOPC   C3224528   6.663   6.218  13.186  0.1668 -0.0121 -0.5474
  198DOPC   H2X24529   6.632   6.323  13.200  0.0677 -0.4302  3.6775
  198DOPC   H2Y24530   6.569   6.167  13.157  0.0366  1.0106 -1.9838
  198DOPC   C2324531   6.998   6.680  13.208  0.0978  0.1692  0.2462
  198DOPC   H3R24532   6.938   6.649  13.297 -3.4234  0.1136 -1.9708
  198DOPC   H3S24533   7.051   6.776  13.227 -0.9037  0.7306  0.2661
  198DOPC   C2424534   7.103   6.569  13.180 -0.3182 -0.2527  0.0355
  198DOPC   H4R24535   7.152   6.592  13.083  0.3036 -2.2415 -0.1713
  198DOPC   H4S24536   7.062   6.467  13.168  0.5923 -0.6088 -0.1634
  198DOPC   C2524537   7.212   6.546  13.287 -0.1340 -0.0233 -0.1622
  198DOPC   H5R24538   7.263   6.641  13.313  0.0165 -0.0690 -0.2865
  198DOPC   H5S24539   7.293   6.476  13.257  0.3580 -0.2004  1.4846
  198DOPC   C2624540   7.142   6.496  13.420 -0.1006 -0.4519  0.1140
  198DOPC   H6R24541   7.077   6.409  13.394  0.3678 -0.0334 -2.8916
  198DOPC   H6S24542   7.074   6.574  13.461 -1.8222 -1.1691 -1.2097
  198DOPC   C2724543   7.239   6.463  13.531 -0.5586 -0.4147  0.7377
  198DOPC   H7R24544   7.289   6.559  13.556  0.2569  0.2676 -2.8996
  198DOPC   H7S24545   7.306   6.387  13.484 -0.0785 -0.0515  0.8326
  198DOPC   C2824546   7.177   6.415  13.661 -0.0029 -0.6670  0.0097
  198DOPC   H8R24547   7.124   6.320  13.639 -0.6464 -0.6007  1.2016
  198DOPC   H8S24548   7.104   6.490  13.697 -1.5322 -2.2671  0.3521
  198DOPC   C2924549   7.288   6.397  13.763 -0.2625 -0.3141  0.3381
  198DOPC   H9R24550   7.347   6.488  13.777 -1.9698  0.7532  0.9003
  198DOPC  C21024551   7.340   6.289  13.821  0.7080 -0.7172  0.2489
  198DOPC  H10R24552   7.423   6.293  13.892  1.0587 -0.5182 -0.1686
  198DOPC  C21124553   7.303   6.146  13.795 -0.3624  0.3089  0.7290
  198DOPC  H11R24554   7.385   6.076  13.824 -0.7194 -1.2726 -1.7788
  198DOPC  H11S24555   7.286   6.132  13.686 -0.9272 -0.7441  0.9449
  198DOPC  C21224556   7.169   6.110  13.863  0.6457 -0.7492 -0.1135
  198DOPC  H12R24557   7.091   6.186  13.841  0.1726 -1.9027 -2.8344
  198DOPC  H12S24558   7.195   6.104  13.971 -0.7670  1.9585  0.4631
  198DOPC  C21324559   7.108   5.988  13.801  0.0186 -0.4231 -0.1709
  198DOPC  H13R24560   7.162   5.899  13.840 -1.2028  0.0653  2.9332
  198DOPC  H13S24561   7.124   5.998  13.691 -0.1562 -0.1005 -0.1676
  198DOPC  C21424562   6.953   5.989  13.827 -0.5625 -0.1456 -0.0893
  198DOPC  H14R24563   6.906   6.073  13.772 -0.2228  1.4884  2.0120
  198DOPC  H14S24564   6.943   6.021  13.933 -2.2829 -0.0455 -0.2570
  198DOPC  C21524565   6.875   5.856  13.801 -0.1967  0.4288  0.2789
  198DOPC  H15R24566   6.888   5.822  13.696  2.3072 -0.3346  0.7837
  198DOPC  H15S24567   6.766   5.877  13.802 -0.2264  0.2738  0.4159
  198DOPC  C21624568   6.903   5.751  13.904  0.3935  0.1072  1.1724
  198DOPC  H16R24569   6.933   5.795  14.001 -0.4978 -0.6383  1.7985
  198DOPC  H16S24570   6.999   5.701  13.878  1.3210  2.1554  0.4627
  198DOPC  C21724571   6.794   5.647  13.918  0.2106 -0.0125  0.4598
  198DOPC  H17R24572   6.773   5.604  13.817  0.7850  1.9508 -0.5454
  198DOPC  H17S24573   6.703   5.706  13.944 -0.0245  0.8425 -2.0210
  198DOPC  C21824574   6.826   5.556  14.029  0.5351 -0.6775  0.0981
  198DOPC  H18R24575   6.921   5.506  14.002  1.4868  0.2686  1.5649
  198DOPC  H18S24576   6.751   5.474  14.038  0.9182 -1.2454 -1.6186
  198DOPC  H18T24577   6.843   5.611  14.124  4.2279 -0.0176 -0.7919
  198DOPC   C3324578   6.735   6.182  13.323  0.2873  0.1725 -0.8551
  198DOPC   H3X24579   6.841   6.150  13.311  0.8119  1.1729  0.7726
  198DOPC   H3Y24580   6.686   6.094  13.371 -0.5795  0.0644 -1.9040
  198DOPC   C3424581   6.740   6.290  13.438  0.6147  0.5309 -0.1722
  198DOPC   H4X24582   6.636   6.300  13.476  0.8274  1.3970  0.1913
  198DOPC   H4Y24583   6.778   6.383  13.391  0.9744  0.4716  0.0041
  198DOPC   C3524584   6.844   6.247  13.540 -0.2097 -0.3051 -0.4879
  198DOPC   H5X24585   6.942   6.234  13.488  0.1846  0.4286  0.0473
  198DOPC   H5Y24586   6.817   6.145  13.575  2.8643 -1.3623 -0.8619
  198DOPC   C3624587   6.841   6.339  13.661 -0.1126  0.7860  0.7588
  198DOPC   H6X24588   6.928   6.336  13.730  0.8025 -1.8322 -0.3824
  198DOPC   H6Y24589   6.849   6.447  13.635  0.1205  0.0973 -2.4464
  198DOPC   C3724590   6.718   6.314  13.754 -0.0657 -0.3584 -0.0245
  198DOPC   H7X24591   6.623   6.320  13.697 -1.1020  0.5928  1.7207
  198DOPC   H7Y24592   6.743   6.210  13.785 -1.7693 -1.0061 -0.7000
  198DOPC   C3824593   6.714   6.410  13.876 -0.1977  0.0593  0.0483
  198DOPC   H8X24594   6.620   6.380  13.926 -0.2941  1.2391  0.5945
  198DOPC   H8Y24595   6.710   6.515  13.839  5.2720  1.3122  2.0179
  198DOPC   C3924596   6.835   6.395  13.966  0.0504  0.0997 -0.0628
  198DOPC   H9X24597   6.906   6.477  13.946  1.8637 -0.6211  2.8589
  198DOPC  C31024598   6.856   6.303  14.060  0.0021 -0.2163 -0.3296
  198DOPC  H10X24599   6.946   6.297  14.124 -2.0425  1.2983  2.9209
  198DOPC  C31124600   6.756   6.202  14.109  0.2881  0.1763 -0.1425
  198DOPC  H11X24601   6.697   6.160  14.025 -2.0405  0.6539  1.1573
  198DOPC  H11Y24602   6.678   6.254  14.169 -0.2099 -1.5072  0.7402
  198DOPC  C31224603   6.816   6.094  14.193  0.4419 -0.7067  1.1717
  198DOPC  H12X24604   6.895   6.134  14.260  1.0006  1.9307 -0.8870
  198DOPC  H12Y24605   6.865   6.019  14.127  0.4188 -0.1210  0.4743
  198DOPC  C31324606   6.706   6.019  14.275 -0.0768  0.0572  0.6292
  198DOPC  H13X24607   6.743   5.965  14.365  1.6084  0.2115  0.0640
  198DOPC  H13Y24608   6.630   6.094  14.307 -0.3725  0.6298 -1.2691
  198DOPC  C31424609   6.618   5.922  14.194 -0.0487 -0.3020 -0.1134
  198DOPC  H14X24610   6.543   5.976  14.133  0.9749 -0.0114 -1.1443
  198DOPC  H14Y24611   6.676   5.859  14.123 -2.0122  0.1886 -2.2455
  198DOPC  C31524612   6.533   5.832  14.289 -0.9786 -0.1640  0.0028
  198DOPC  H15X24613   6.453   5.896  14.332  0.5383  1.6802  0.2266
  198DOPC  H15Y24614   6.603   5.784  14.361  0.3312  1.5283 -0.0722
  198DOPC  C31624615   6.463   5.714  14.223  0.1259  0.9937  0.0556
  198DOPC  H16X24616   6.390   5.770  14.161 -1.3216  1.4611  2.0670
  198DOPC  H16Y24617   6.529   5.652  14.159 -0.5920 -0.3245  0.5610
  198DOPC  C31724618   6.369   5.634  14.317 -0.0748 -0.1367 -0.4158
  198DOPC  H17X24619   6.431   5.546  14.346  2.3494  1.2576 -1.1272
  198DOPC  H17Y24620   6.355   5.684  14.416 -0.9892 -1.1683  0.0000
  198DOPC  C31824621   6.229   5.601  14.253  0.0951  0.0830 -0.0306
  198DOPC  H18X24622   6.245   5.558  14.152  0.5757  0.0249  0.0664
  198DOPC  H18Y24623   6.182   5.529  14.323 -1.2874 -2.0908 -3.0094
  198DOPC  H18Z24624   6.176   5.699  14.249 -0.8145 -0.1665  3.2599
  199DOPC     N24625   6.333   8.022  12.445 -0.5763  0.0828 -0.1834
  199DOPC   C1224626   6.384   8.154  12.508  0.0214  0.2558  0.4946
  199DOPC  H12A24627   6.337   8.159  12.605  2.1338  1.3785  1.5479
  199DOPC  H12B24628   6.337   8.233  12.450  0.6538 -1.0376 -1.9118
  199DOPC   C1324629   6.387   7.906  12.519 -0.4000  0.1112 -0.7381
  199DOPC  H13A24630   6.495   7.911  12.522 -0.3812  0.7798 -2.2078
  199DOPC  H13B24631   6.367   7.916  12.625 -0.5354 -0.8609 -0.6637
  199DOPC  H13C24632   6.355   7.812  12.477 -0.1757 -0.8807  1.1645
  199DOPC   C1424633   6.376   8.021  12.301 -0.0608 -0.3291 -0.5794
  199DOPC  H14A24634   6.353   7.922  12.265 -0.0745  0.1119 -1.8341
  199DOPC  H14B24635   6.330   8.099  12.242  0.5082  0.7746  0.3978
  199DOPC  H14C24636   6.480   8.048  12.292  0.4586 -1.6233  0.9847
  199DOPC   C1524637   6.180   8.013  12.448 -0.0265  0.4545  0.0235
  199DOPC  H15A24638   6.135   8.106  12.415  1.1190  0.6404 -1.0896
  199DOPC  H15B24639   6.133   7.990  12.542 -0.8385  1.3111 -0.1485
  199DOPC  H15C24640   6.159   7.940  12.371 -1.0351 -0.7214  1.3674
  199DOPC   C1124641   6.533   8.188  12.527  0.3239  0.0880  0.0571
  199DOPC  H11A24642   6.548   8.277  12.593  1.8457 -0.2117  0.1589
  199DOPC  H11B24643   6.581   8.105  12.583  0.9281  0.5422  0.2318
  199DOPC     P24644   6.604   8.338  12.329  0.5407  0.2541 -0.1829
  199DOPC   O1324645   6.467   8.370  12.274  0.0477 -0.1134 -0.6243
  199DOPC   O1424646   6.710   8.341  12.228 -0.6632  0.0541  0.2591
  199DOPC   O1224647   6.602   8.197  12.407 -0.2777  0.0013 -0.5860
  199DOPC   O1124648   6.642   8.438  12.447 -0.0487  0.2129  0.7131
  199DOPC    C124649   6.775   8.469  12.494  0.2863 -0.2644  0.1173
  199DOPC    HA24650   6.776   8.573  12.533  1.2188  0.0953 -0.8328
  199DOPC    HB24651   6.848   8.459  12.411 -0.6931 -0.5102 -0.7362
  199DOPC    C224652   6.810   8.390  12.619 -0.0690 -0.1816 -0.0241
  199DOPC    HS24653   6.810   8.284  12.585  0.6221 -0.8963  2.0160
  199DOPC   O2124654   6.720   8.433  12.725  0.6615 -0.1808 -0.3131
  199DOPC   C2124655   6.715   8.359  12.833  0.0874  0.0130 -0.2479
  199DOPC   O2224656   6.757   8.243  12.840  0.1024 -0.1819 -0.1288
  199DOPC   C2224657   6.642   8.428  12.950 -0.5611  0.7947  0.3755
  199DOPC   H2R24658   6.538   8.391  12.963 -0.7123  1.2902  0.6199
  199DOPC   H2S24659   6.644   8.537  12.926  0.5527  0.4068 -1.5302
  199DOPC    C324660   6.959   8.417  12.664 -0.4683  0.1991 -0.0411
  199DOPC    HX24661   7.019   8.414  12.571  1.5473  0.5067  1.1906
  199DOPC    HY24662   7.000   8.335  12.727  1.2554  1.7483  0.9746
  199DOPC   O3124663   6.982   8.527  12.747  0.2892  0.1499  0.3406
  199DOPC   C3124664   7.018   8.640  12.689 -0.5635 -1.1583  0.3480
  199DOPC   O3224665   7.029   8.654  12.569 -0.1030 -0.3799 -0.2719
  199DOPC   C3224666   7.055   8.751  12.788 -0.0248 -0.2809 -0.0566
  199DOPC   H2X24667   7.146   8.737  12.850 -0.4401  0.9365  0.8640
  199DOPC   H2Y24668   7.089   8.833  12.721  1.3384  0.4741  1.4826
  199DOPC   C2324669   6.714   8.412  13.087 -0.1556  0.1632 -0.1189
  199DOPC   H3R24670   6.815   8.457  13.086  0.0157 -0.2247 -0.6064
  199DOPC   H3S24671   6.719   8.303  13.109 -0.0619  0.5424  2.0115
  199DOPC   C2424672   6.634   8.470  13.208  0.1934  0.5968 -0.2223
  199DOPC   H4R24673   6.533   8.431  13.231  0.7652 -0.0747  1.3442
  199DOPC   H4S24674   6.622   8.580  13.202 -0.9238  0.5485  0.6910
  199DOPC   C2524675   6.718   8.443  13.345  0.0003  0.5411  0.0433
  199DOPC   H5R24676   6.821   8.480  13.330  0.4334 -1.1360 -1.5247
  199DOPC   H5S24677   6.729   8.333  13.357 -1.1367  0.4622  0.5454
  199DOPC   C2624678   6.647   8.498  13.472  0.5949  0.3431 -0.5538
  199DOPC   H6R24679   6.724   8.486  13.551 -1.3676  1.2210  1.6106
  199DOPC   H6S24680   6.559   8.436  13.498  0.0135  0.9976 -0.9357
  199DOPC   C2724681   6.604   8.646  13.455  0.5545 -0.7699 -0.7196
  199DOPC   H7R24682   6.526   8.651  13.376  1.9998 -0.4619 -2.2019
  199DOPC   H7S24683   6.690   8.711  13.426  1.4038 -0.9521  1.2286
  199DOPC   C2824684   6.544   8.702  13.584 -1.0450  0.9519 -0.3049
  199DOPC   H8R24685   6.467   8.635  13.627  1.3025 -1.2965  0.6390
  199DOPC   H8S24686   6.494   8.799  13.561 -1.8824  0.2877 -1.3581
  199DOPC   C2924687   6.660   8.723  13.682  0.6615 -0.4567  0.0891
  199DOPC   H9R24688   6.737   8.797  13.656 -0.8167  0.6295 -1.3691
  199DOPC  C21024689   6.667   8.674  13.806  0.1821 -0.8085 -0.3108
  199DOPC  H10R24690   6.758   8.697  13.863 -0.4283 -2.9320  1.6877
  199DOPC  C21124691   6.571   8.574  13.875 -0.1240  0.0100 -0.2728
  199DOPC  H11R24692   6.513   8.509  13.805 -1.2128  2.3729 -1.6813
  199DOPC  H11S24693   6.501   8.630  13.940 -0.2041  0.4568 -0.7420
  199DOPC  C21224694   6.654   8.472  13.961  0.2514  0.5088  0.5332
  199DOPC  H12R24695   6.578   8.402  14.004 -0.9524  1.8274  0.6167
  199DOPC  H12S24696   6.711   8.523  14.041  1.7951  1.1433 -0.9331
  199DOPC  C21324697   6.759   8.396  13.877 -0.3668  0.4282 -0.5054
  199DOPC  H13R24698   6.841   8.463  13.841  2.2249 -2.1591  0.2260
  199DOPC  H13S24699   6.712   8.348  13.788 -0.2659  1.6144 -1.2200
  199DOPC  C21424700   6.827   8.283  13.953 -0.2910  0.1961 -0.1957
  199DOPC  H14R24701   6.870   8.208  13.883 -2.1578 -1.9243  0.7867
  199DOPC  H14S24702   6.767   8.228  14.029 -2.0716 -0.2500 -1.8319
  199DOPC  C21524703   6.947   8.337  14.034  0.1265 -0.3900 -0.0177
  199DOPC  H15R24704   6.905   8.400  14.116  0.2688 -1.1782  0.6712
  199DOPC  H15S24705   7.019   8.391  13.970  0.3210 -1.9775 -1.1846
  199DOPC  C21624706   7.020   8.224  14.119  0.0293 -0.0562  0.6845
  199DOPC  H16R24707   7.068   8.158  14.043  0.7872  0.8042  0.4009
  199DOPC  H16S24708   6.948   8.163  14.178 -0.1271 -0.9426 -0.3827
  199DOPC  C21724709   7.134   8.264  14.214 -0.2363 -0.5568 -0.6850
  199DOPC  H17R24710   7.181   8.358  14.178 -0.1656 -0.7636 -1.1420
  199DOPC  H17S24711   7.214   8.188  14.200  1.9891  1.6915 -0.6838
  199DOPC  C21824712   7.092   8.280  14.359  0.3480 -0.7246 -0.1315
  199DOPC  H18R24713   7.162   8.341  14.421  0.0290 -1.5488  1.0654
  199DOPC  H18S24714   7.090   8.180  14.406  1.5634 -0.9989 -0.6183
  199DOPC  H18T24715   6.993   8.330  14.368  0.8761  0.1177  1.5373
  199DOPC   C3324716   6.930   8.785  12.881 -0.0441 -0.4816  0.3757
  199DOPC   H3X24717   6.849   8.725  12.835  1.4748  0.2717 -3.7437
  199DOPC   H3Y24718   6.899   8.892  12.875  1.8853  0.0766 -0.3158
  199DOPC   C3424719   6.942   8.767  13.028 -0.0440  0.7428  0.2889
  199DOPC   H4X24720   7.029   8.823  13.067  0.8543  0.8256 -1.6907
  199DOPC   H4Y24721   6.951   8.660  13.057 -2.1130  0.3908 -0.2279
  199DOPC   C3524722   6.814   8.793  13.113  0.3784  0.4495  0.0829
  199DOPC   H5X24723   6.806   8.728  13.202  0.2574 -1.0583 -0.9896
  199DOPC   H5Y24724   6.719   8.766  13.061  1.3216 -2.0864 -0.4982
  199DOPC   C3624725   6.808   8.944  13.151  0.6106 -0.0033  0.7572
  199DOPC   H6X24726   6.879   8.973  13.232 -1.8406  2.3514  2.2225
  199DOPC   H6Y24727   6.824   9.009  13.063 -3.1143  1.5757  1.0781
  199DOPC   C3724728   6.672   8.972  13.206  0.8564 -0.3123  0.5299
  199DOPC   H7X24729   6.601   8.936  13.128  4.6723  0.3941 -3.6122
  199DOPC   H7Y24730   6.661   8.923  13.306  0.3621  0.5120  0.8926
  199DOPC   C3824731   6.648   9.122  13.239 -0.2342 -0.8610  0.1690
  199DOPC   H8X24732   6.651   9.183  13.146 -0.8227 -2.4894 -0.9693
  199DOPC   H8Y24733   6.728   9.164  13.302 -0.4311 -0.7826  0.3667
  199DOPC   C3924734   6.519   9.163  13.299  0.5749  0.3955  0.5084
  199DOPC   H9X24735   6.444   9.200  13.228  0.0401 -2.5368 -0.6126
  199DOPC  C31024736   6.488   9.159  13.431  0.1806 -0.1901 -0.0937
  199DOPC  H10X24737   6.391   9.198  13.464  0.2863  2.3134 -2.4335
  199DOPC  C31124738   6.580   9.093  13.532  0.1328 -0.0633 -0.2395
  199DOPC  H11X24739   6.651   9.018  13.490  1.1366 -0.6796  2.4016
  199DOPC  H11Y24740   6.525   9.035  13.608 -0.3699  0.5489 -0.1348
  199DOPC  C31224741   6.659   9.200  13.617  0.5097 -0.1782 -0.2514
  199DOPC  H12X24742   6.600   9.283  13.662  2.1917  1.9031 -1.7135
  199DOPC  H12Y24743   6.726   9.249  13.543 -0.1473 -2.1157 -2.2399
  199DOPC  C31324744   6.748   9.133  13.722  0.1100  0.2036  0.1813
  199DOPC  H13X24745   6.805   9.049  13.676  1.3069  0.4673  1.1517
  199DOPC  H13Y24746   6.818   9.215  13.748 -1.7277  2.7472 -2.2763
  199DOPC  C31424747   6.676   9.092  13.849  0.5170  0.6494 -0.2519
  199DOPC  H14X24748   6.608   9.170  13.891  1.1704  1.1332 -0.0685
  199DOPC  H14Y24749   6.604   9.013  13.820 -1.1128  1.1651  2.0975
  199DOPC  C31524750   6.776   9.028  13.952  0.0685  0.3844 -0.2062
  199DOPC  H15X24751   6.855   9.102  13.979  2.6479 -1.3957 -2.3911
  199DOPC  H15Y24752   6.831   8.943  13.907 -0.7465 -1.5829  2.3114
  199DOPC  C31624753   6.710   8.981  14.080  0.1943 -0.0027  0.7291
  199DOPC  H16X24754   6.668   9.070  14.132 -2.5844  0.8057 -2.4698
  199DOPC  H16Y24755   6.626   8.916  14.046 -0.5574  0.9105  0.7935
  199DOPC  C31724756   6.807   8.909  14.172  0.0413  0.6301 -0.3694
  199DOPC  H17X24757   6.830   8.808  14.129 -2.0292  1.0005 -2.5629
  199DOPC  H17Y24758   6.908   8.954  14.168  1.0017 -0.8327  3.3016
  199DOPC  C31824759   6.757   8.911  14.317  0.3516 -0.5614 -0.2665
  199DOPC  H18X24760   6.826   8.887  14.400  0.0599  3.6766  1.4363
  199DOPC  H18Y24761   6.741   9.019  14.340 -0.4296 -1.0131  1.4356
  199DOPC  H18Z24762   6.657   8.864  14.332  0.6498 -0.7487  1.2702
  200DOPC     N24763   0.583   1.387  11.832 -0.7132  0.5990 -0.2777
  200DOPC   C1224764   0.583   1.404  11.986  0.2067  0.3598 -0.2882
  200DOPC  H12A24765   0.496   1.351  12.024  1.4748 -1.3894  0.3013
  200DOPC  H12B24766   0.570   1.509  12.007 -1.7267  0.1183 -0.0935
  200DOPC   C1324767   0.578   1.239  11.802  0.5211  0.8630  0.0447
  200DOPC  H13A24768   0.550   1.228  11.698  0.2050  3.7088 -0.2485
  200DOPC  H13B24769   0.672   1.192  11.825 -0.2895 -0.3890  0.9561
  200DOPC  H13C24770   0.499   1.197  11.863  0.2387 -1.6482 -1.8558
  200DOPC   C1424771   0.701   1.438  11.759  0.0487 -0.2800  0.7390
  200DOPC  H14A24772   0.719   1.544  11.758  0.2369 -0.3117  0.1844
  200DOPC  H14B24773   0.793   1.388  11.784 -0.3033 -0.9120  0.7953
  200DOPC  H14C24774   0.691   1.408  11.655 -0.0030 -0.4776  0.7986
  200DOPC   C1524775   0.463   1.444  11.772 -0.3030  0.6251 -0.2153
  200DOPC  H15A24776   0.446   1.400  11.676  1.2068 -0.5248  0.0188
  200DOPC  H15B24777   0.471   1.552  11.761 -1.9689  0.5100 -4.4313
  200DOPC  H15C24778   0.376   1.424  11.833 -0.9668 -0.0747 -1.3664
  200DOPC   C1124779   0.705   1.342  12.064  0.8467 -0.3925  0.1294
  200DOPC  H11A24780   0.735   1.239  12.034 -0.5985 -0.8883  0.2903
  200DOPC  H11B24781   0.787   1.413  12.038  1.6548 -2.0105 -2.0991
  200DOPC     P24782   0.573   1.237  12.256 -0.4659  0.0202  0.0022
  200DOPC   O1324783   0.628   1.102  12.226  0.0572  0.9519 -0.5255
  200DOPC   O1424784   0.443   1.267  12.201 -0.0012  0.4995 -0.0628
  200DOPC   O1224785   0.669   1.345  12.202 -1.0312  0.2220  0.1139
  200DOPC   O1124786   0.577   1.257  12.414 -0.2949 -0.2486  0.0085
  200DOPC    C124787   0.705   1.292  12.476  0.1159 -0.3893  0.6556
  200DOPC    HA24788   0.682   1.377  12.543 -1.4900 -0.4953  0.3018
  200DOPC    HB24789   0.772   1.336  12.400 -0.9036  0.0615  0.0073
  200DOPC    C224790   0.763   1.168  12.543 -0.4092 -0.2235 -0.4356
  200DOPC    HS24791   0.752   1.078  12.479  0.1131 -1.5501  1.2351
  200DOPC   O2124792   0.688   1.135  12.660 -0.1213  0.2317 -0.6818
  200DOPC   C2124793   0.682   1.223  12.758  0.3081 -0.2566  0.3709
  200DOPC   O2224794   0.734   1.332  12.761  0.4009 -0.1030 -0.5586
  200DOPC   C2224795   0.608   1.165  12.877 -0.1759  0.6351 -0.1771
  200DOPC   H2R24796   0.630   1.056  12.882  1.6926  1.0301  1.0137
  200DOPC   H2S24797   0.498   1.177  12.863 -0.3750  3.0679  2.3996
  200DOPC    C324798   0.919   1.173  12.577  0.4996  0.1634 -0.0615
  200DOPC    HX24799   0.946   1.260  12.641 -1.5470  0.8896 -0.0902
  200DOPC    HY24800   0.961   1.170  12.474  1.1046  0.8313  0.1576
  200DOPC   O3124801   0.949   1.054  12.653 -0.3591 -0.2176 -0.2931
  200DOPC   C3124802   1.079   1.033  12.659 -0.2741  0.0057  1.2996
  200DOPC   O3224803   1.160   1.113  12.608 -0.2868  0.6461  0.0939
  200DOPC   C3224804   1.104   0.913  12.736  0.5387  0.2360 -1.0609
  200DOPC   H2X24805   1.099   0.935  12.845 -0.3672 -3.1983 -0.2937
  200DOPC   H2Y24806   1.032   0.832  12.713 -1.8373  1.1361  2.3040
  200DOPC   C2324807   0.651   1.206  13.020 -0.4081  0.4922  0.8826
  200DOPC   H3R24808   0.568   1.187  13.091 -1.4428  2.0902  0.1634
  200DOPC   H3S24809   0.663   1.316  13.008  1.4106  0.1510 -1.0034
  200DOPC   C2424810   0.788   1.144  13.072  0.6671  0.2553 -1.0831
  200DOPC   H4R24811   0.787   1.033  13.070 -1.0317  0.2507 -1.2834
  200DOPC   H4S24812   0.788   1.178  13.177 -4.7976 -1.4745 -0.1923
  200DOPC   C2524813   0.907   1.195  12.989  0.1822 -0.1376 -0.3594
  200DOPC   H5R24814   0.906   1.305  13.004 -1.3759 -0.1922  0.1083
  200DOPC   H5S24815   0.894   1.176  12.881 -1.4651  2.9458 -0.8269
  200DOPC   C2624816   1.038   1.143  13.040 -0.1689  0.2678 -0.0353
  200DOPC   H6R24817   1.065   1.209  13.124  0.6450  0.7994 -0.7029
  200DOPC   H6S24818   1.118   1.165  12.966 -1.3708 -1.2804 -1.8948
  200DOPC   C2724819   1.039   1.010  13.111 -0.0059 -0.2444 -0.4854
  200DOPC   H7R24820   1.004   0.926  13.046  1.9260 -2.0218  0.6242
  200DOPC   H7S24821   0.968   1.007  13.196 -0.1568 -0.6052 -0.6161
  200DOPC   C2824822   1.175   0.962  13.164  0.1771 -0.9444 -0.4519
  200DOPC   H8R24823   1.212   0.888  13.089  1.8487 -0.2953 -0.3164
  200DOPC   H8S24824   1.156   0.903  13.256 -0.8061  0.5932  0.3721
  200DOPC   C2924825   1.273   1.078  13.184 -0.2079  0.4255 -0.5615
  200DOPC   H9R24826   1.239   1.161  13.248  1.2080  0.4488  0.2108
  200DOPC  C21024827   1.404   1.081  13.145  0.3476  0.7289  0.1017
  200DOPC  H10R24828   1.463   1.170  13.172  2.1107  0.2725 -1.9806
  200DOPC  C21124829   1.472   0.977  13.057  0.4963  0.8569 -0.1223
  200DOPC  H11R24830   1.534   1.031  12.982  1.2298 -1.2516 -1.1299
  200DOPC  H11S24831   1.403   0.913  12.998  0.9718  0.3925 -0.1844
  200DOPC  C21224832   1.568   0.891  13.148  0.0497  0.2109 -0.1228
  200DOPC  H12R24833   1.524   0.860  13.244  0.2940  1.0489  0.2705
  200DOPC  H12S24834   1.657   0.952  13.174  0.2676 -1.2544  2.9539
  200DOPC  C21324835   1.612   0.757  13.087  0.1841 -0.4796  0.2480
  200DOPC  H13R24836   1.523   0.694  13.065  0.7036 -0.7281 -1.2373
  200DOPC  H13S24837   1.674   0.694  13.155 -0.4039 -0.6257  0.6544
  200DOPC  C21424838   1.690   0.784  12.957  0.2849 -0.0801  0.3250
  200DOPC  H14R24839   1.633   0.850  12.887  0.3694 -0.1322  0.2081
  200DOPC  H14S24840   1.687   0.685  12.907 -1.0489 -0.0635  0.3172
  200DOPC  C21524841   1.835   0.827  12.978 -0.0904  0.3163 -0.1814
  200DOPC  H15R24842   1.872   0.806  13.081  1.2658  0.1150 -0.6833
  200DOPC  H15S24843   1.842   0.936  12.956 -0.0342  0.5257  0.8162
  200DOPC  C21624844   1.934   0.751  12.891  0.4425  0.1014  1.0505
  200DOPC  H16R24845   1.909   0.772  12.784 -1.4540 -2.6730  0.8414
  200DOPC  H16S24846   1.909   0.645  12.911  0.0614  0.6297  3.6497
  200DOPC  C21724847   2.080   0.775  12.905 -0.2009 -0.4561 -0.0849
  200DOPC  H17R24848   2.114   0.752  13.008 -0.0332  2.1446  0.5016
  200DOPC  H17S24849   2.096   0.883  12.882 -2.5469 -0.1023 -0.3193
  200DOPC  C21824850   2.169   0.702  12.807 -0.1810 -0.5718  0.6981
  200DOPC  H18R24851   2.147   0.721  12.700 -3.3707 -0.5396  1.2622
  200DOPC  H18S24852   2.138   0.595  12.814  0.3047 -0.8871 -1.3622
  200DOPC  H18T24853   2.277   0.716  12.829 -0.6706  3.6886  1.1945
  200DOPC   C3324854   1.249   0.854  12.729 -0.4606  1.0234  0.7844
  200DOPC   H3X24855   1.325   0.927  12.764  1.0263  0.0795 -0.3495
  200DOPC   H3Y24856   1.278   0.819  12.628 -0.3112  1.4125  0.6880
  200DOPC   C3424857   1.254   0.725  12.817 -0.3005 -1.2104 -0.3365
  200DOPC   H4X24858   1.164   0.670  12.784 -1.5123 -0.5809  1.7429
  200DOPC   H4Y24859   1.232   0.756  12.922 -2.3266 -2.4226 -0.3565
  200DOPC   C3524860   1.379   0.642  12.781 -0.0021  0.3239 -0.7997
  200DOPC   H5X24861   1.462   0.702  12.822 -0.0577 -0.6919  0.8814
  200DOPC   H5Y24862   1.387   0.639  12.670 -0.3618  1.4585 -0.8651
  200DOPC   C3624863   1.375   0.503  12.851  0.2545  0.5536  0.3392
  200DOPC   H6X24864   1.323   0.514  12.949  0.8052  1.5711  0.5408
  200DOPC   H6Y24865   1.322   0.436  12.781  2.3249 -0.1014 -0.6654
  200DOPC   C3724866   1.515   0.441  12.878  0.3269 -0.5724 -0.2471
  200DOPC   H7X24867   1.575   0.467  12.788  0.8878  1.4293  0.6438
  200DOPC   H7Y24868   1.555   0.496  12.966 -1.6406 -2.2909  1.8468
  200DOPC   C3824869   1.514   0.287  12.904 -0.2217 -0.9454 -0.6936
  200DOPC   H8X24870   1.509   0.236  12.805  2.5361 -3.6292  0.3930
  200DOPC   H8Y24871   1.422   0.272  12.964  0.0845 -0.4037 -0.0756
  200DOPC   C3924872   1.639   0.236  12.971  0.4305 -0.2362  0.2975
  200DOPC   H9X24873   1.727   0.237  12.905 -1.6170 -0.5041 -2.6301
  200DOPC  C31024874   1.632   0.172  13.092  0.0455 -0.3298  0.2011
  200DOPC  H10X24875   1.729   0.140  13.132  1.1074 -0.2218 -2.1107
  200DOPC  C31124876   1.513   0.146  13.170  0.2780  0.1367  0.0798
  200DOPC  H11X24877   1.552   0.079  13.249 -0.2746  0.6162  0.7794
  200DOPC  H11Y24878   1.425   0.108  13.113  0.5256 -2.6441  1.4048
  200DOPC  C31224879   1.487   0.278  13.246  0.0159  0.4223 -0.5537
  200DOPC  H12X24880   1.445   0.364  13.189  0.4295  1.1493  0.2088
  200DOPC  H12Y24881   1.582   0.316  13.288 -0.2227  0.0882  0.3119
  200DOPC  C31324882   1.401   0.236  13.361 -0.3653 -0.2663  0.3531
  200DOPC  H13X24883   1.308   0.205  13.309  0.6272  1.6524 -2.8240
  200DOPC  H13Y24884   1.449   0.150  13.412  1.5122  0.5020 -0.0377
  200DOPC  C31424885   1.375   0.358  13.461  0.1228 -0.8171  0.3089
  200DOPC  H14X24886   1.305   0.320  13.538  1.7732  0.4984  2.5823
  200DOPC  H14Y24887   1.476   0.378  13.501  0.2467  0.5970 -0.6303
  200DOPC  C31524888   1.328   0.488  13.399 -0.2234 -0.4774 -0.1100
  200DOPC  H15X24889   1.393   0.540  13.326  0.3290 -2.9374 -1.4619
  200DOPC  H15Y24890   1.332   0.542  13.496 -0.6577 -0.7049  0.0367
  200DOPC  C31624891   1.191   0.487  13.335 -0.5257  0.0738 -0.2218
  200DOPC  H16X24892   1.196   0.425  13.243 -2.3273  0.5699 -0.6873
  200DOPC  H16Y24893   1.111   0.444  13.399 -2.2353  1.4975 -1.3042
  200DOPC  C31724894   1.147   0.630  13.289  0.7012 -0.0889 -0.8093
  200DOPC  H17X24895   1.161   0.702  13.373  0.4221 -1.0430  0.0819
  200DOPC  H17Y24896   1.216   0.660  13.208  1.5506 -3.2708 -1.4017
  200DOPC  C31824897   1.000   0.631  13.245  0.4108  0.3988 -0.6829
  200DOPC  H18X24898   0.932   0.615  13.332  1.9075 -0.3724  0.3954
  200DOPC  H18Y24899   0.955   0.717  13.191 -2.1986 -0.3669  0.1272
  200DOPC  H18Z24900   0.979   0.546  13.177 -0.7708 -0.5326  0.7721
  201SOD    SOD24901   4.587   3.208  17.622  0.1850 -0.0772  0.3560
  202SOD    SOD24902   5.811   7.996  11.107  0.6506 -0.4663  0.3289
  203SOD    SOD24903   6.996   3.478  17.428  0.1276  0.2775 -0.3360
  204SOD    SOD24904   1.013   2.413  11.571 -0.0517 -0.7738 -0.2489
  205SOD    SOD24905   3.582   3.917  16.268  0.2294  0.2612 -0.1153
  206SOD    SOD24906   0.278   1.519  11.284  0.2117  0.0787 -0.4657
  207SOD    SOD24907   1.935   6.010  12.013  0.0864 -0.2300  0.3261
  208SOD    SOD24908   7.753   5.916  16.603  0.2706  0.2090  0.3431
  209SOD    SOD24909   4.248   3.962  12.133 -0.1419 -0.5322 -0.0031
  210SOD    SOD24910   1.687   5.757  16.118  0.5579 -0.4062  0.0441
  211SOD    SOD24911   4.181   6.286  16.189  0.1192  0.2119  0.1617
  212SOD    SOD24912   7.031   4.845  17.114  0.0706 -0.0389  0.8081
  213SOD    SOD24913   4.875   6.453  11.199 -0.0182 -0.1311 -0.3024
  214SOD    SOD24914   4.200   2.033  15.954  0.0806 -0.0315  0.2673
  215SOD    SOD24915   3.123   7.421  17.243 -0.5845  0.2153  0.2308
  216SOD    SOD24916   3.414   5.357  16.280  0.3385  0.2740 -0.2814
  217SOD    SOD24917   3.545   7.027  11.698 -0.2067  0.2484 -0.1343
  218SOD    SOD24918   1.662   5.037  15.731 -0.0460  0.2686  0.0639
  219SOD    SOD24919   8.182   0.132  16.630 -0.2723 -0.5834  0.1177
  220SOD    SOD24920   6.950   3.283  11.107 -0.2713 -0.0564  0.2507
  221SOD    SOD24921   7.946   2.978  12.258  0.2132 -0.0256  0.4537
  222SOD    SOD24922   4.767   3.919  17.310  0.4388  0.0066  0.0143
  223SOD    SOD24923   0.936   0.953  12.042  0.0351 -0.1485  0.7920
  224SOD    SOD24924   4.765   1.094  11.260 -0.2045  0.4993  0.0509
  225SOD    SOD24925   1.636   4.553  10.987 -0.2296  0.1237 -0.3223
  226SOD    SOD24926   0.877   1.786  16.312 -0.1547 -0.1485 -0.2735
  227CLA    CLA24927   1.799   0.671  11.093  0.3504 -0.5917 -0.0624
  228CLA    CLA24928   7.403   3.230  11.018 -0.0109 -0.3878 -0.0623
  229CLA    CLA24929   1.634   7.102  11.142  0.0942 -0.0719 -0.0580
  230CLA    CLA24930   6.505   3.097  17.700  0.3199 -0.0723 -0.3351
  231CLA    CLA24931   0.189   6.103  16.866 -0.2326 -0.1168  0.0992
  232CLA    CLA24932   5.786   0.788  17.017  0.0317 -0.0322 -0.1522
  233CLA    CLA24933   2.456   5.126  17.238  0.4025  0.0273 -0.0286
  234CLA    CLA24934   0.402   6.421  17.459  0.0733  0.0269 -0.1924
  235CLA    CLA24935   5.796   2.458  11.549 -0.1352  0.3618  0.1708
  236CLA    CLA24936   4.126   4.383  17.574 -0.0229  0.2507  0.0868
  237CLA    CLA24937   5.344   3.479  17.174 -0.0197  0.0332 -0.1576
  238CLA    CLA24938   3.854   8.357  11.706 -0.0478 -0.6400 -0.2485
  239CLA    CLA24939   6.945   5.821  11.391 -0.0758  0.1307  0.2038
  240CLA    CLA24940   1.080   2.747  17.170  0.0383  0.1453 -0.0853
  241CLA    CLA24941   7.116   3.458  12.491  0.4112  0.0768 -0.1327
  242CLA    CLA24942   5.682   1.580  16.406  0.0648 -0.3761 -0.0219
  243CLA    CLA24943   3.177   8.444  11.017  0.0469 -0.4769 -0.2844
  244CLA    CLA24944   0.191   6.604  11.929 -0.1895  0.2990 -0.2523
  245CLA    CLA24945   0.733   1.400  11.176  0.2312  0.2363  0.1151
  246CLA    CLA24946   1.831   2.268  17.715  0.0072 -0.1077 -0.2079
  247CLA    CLA24947   3.422   6.800  11.046 -0.4067 -0.1443 -0.3910
  248CLA    CLA24948   1.129   2.625  11.465  0.3891  0.0105 -0.1202
  249CLA    CLA24949   6.177   3.169  11.683  0.2112  0.1846 -0.1522
  250CLA    CLA24950   6.102   6.609  17.062 -0.0075  0.3864 -0.1247
  251CLA    CLA24951   0.668   6.332  17.073 -0.0066 -0.3358  0.1030
  252CLA    CLA24952   1.925   3.588  11.316  0.0848 -0.3351  0.1204
  253TIP3   OH224953   1.176   6.294  18.127  0.2002 -0.5814  0.1712
  253TIP3    H124954   1.132   6.379  18.134  2.0694  0.4316  0.2527
  253TIP3    H224955   1.129   6.249  18.057  0.2791  1.2646 -1.1623
  254TIP3   OH224956   6.558   1.521  16.594 -0.2883  0.0229  0.2454
  254TIP3    H124957   6.610   1.474  16.529  0.1141  0.3289  0.3489
  254TIP3    H224958   6.475   1.474  16.596  0.0454 -0.5770  0.2122
  255TIP3   OH224959   5.461   1.527  15.748  0.0206 -0.1116 -0.5177
  255TIP3    H124960   5.413   1.497  15.825 -2.3606  1.1405 -1.4190
  255TIP3    H224961   5.444   1.461  15.681 -1.3176  0.7836 -1.1115
  256TIP3   OH224962   0.954   0.973  16.994 -0.2261  0.1918  0.6152
  256TIP3    H124963   0.891   0.902  17.006  2.1547 -2.2245 -0.1915
  256TIP3    H224964   0.935   1.006  16.906  1.7272 -2.9776 -1.1772
  257TIP3   OH224965   0.450   2.931  16.738  0.2040  0.2277 -0.4915
  257TIP3    H124966   0.376   2.990  16.751  0.7573  0.9932 -0.7428
  257TIP3    H224967   0.477   2.907  16.827 -0.2041  0.1211 -0.3955
  258TIP3   OH224968   2.346   2.883  15.500 -0.2850 -0.3310  0.6784
  258TIP3    H124969   2.295   2.961  15.521 -0.6065 -0.5148  0.5889
  258TIP3    H224970   2.281   2.814  15.491 -0.0184 -0.5672  0.5528
  259TIP3   OH224971   1.976   0.205  16.892 -0.0352  0.0367 -0.3807
  259TIP3    H124972   2.019   0.264  16.829 -0.0716  0.7341  0.2342
  259TIP3    H224973   1.893   0.248  16.912 -0.2288 -0.4144 -0.2121
  260TIP3   OH224974   2.404   7.889  16.762 -0.2476 -0.0784  0.5002
  260TIP3    H124975   2.435   7.966  16.713  2.2431 -0.6773  1.0204
  260TIP3    H224976   2.479   7.831  16.765 -1.7080 -2.0269  1.2154
  261TIP3   OH224977   0.610   2.058  17.902 -0.2794 -0.0971  0.3597
  261TIP3    H124978   0.533   2.004  17.888 -0.6699  0.7232 -0.8403
  261TIP3    H224979   0.581   2.128  17.960 -0.7187  0.7415 -0.8395
  262TIP3   OH224980   6.115   1.908  16.745  0.0771  0.7231  0.1211
  262TIP3    H124981   6.128   1.834  16.804  1.4671  0.2042 -0.7732
  262TIP3    H224982   6.039   1.883  16.692 -1.5097  1.4315  1.9746
  263TIP3   OH224983   1.419   0.030  15.712 -0.4508 -0.4503 -0.7917
  263TIP3    H124984   1.358   0.079  15.766  0.4022  0.0656 -0.2831
  263TIP3    H224985   1.481   0.095  15.679  1.4048 -1.2910  0.8448
  264TIP3   OH224986   3.235   2.818  18.182 -0.7414  0.2026  0.2108
  264TIP3    H124987   3.221   2.736  18.228  0.8867  0.7150  1.7690
  264TIP3    H224988   3.148   2.855  18.169 -1.4045 -1.2122  0.5333
  265TIP3   OH224989   3.958   3.876  16.840  0.3473 -0.0636 -0.2306
  265TIP3    H124990   4.014   3.953  16.836  0.5181 -0.2323 -1.4793
  265TIP3    H224991   3.957   3.852  16.932  0.9531  0.9459  0.0544
  266TIP3   OH224992   8.288   6.194  16.199 -0.4309  0.1697 -0.1848
  266TIP3    H124993   8.301   6.217  16.107 -2.7416  0.2222 -0.5810
  266TIP3    H224994   8.303   6.100  16.203 -0.8321  0.0717 -0.7562
  267TIP3   OH224995   3.274   4.021  17.754  0.1433  0.3303  0.8519
  267TIP3    H124996   3.216   4.070  17.812 -0.6191 -0.1303  0.4952
  267TIP3    H224997   3.247   4.046  17.666 -0.3432 -0.8100  0.6620
  268TIP3   OH224998   5.552   4.826  17.350  0.7959 -0.2290 -0.1436
  268TIP3    H124999   5.625   4.888  17.351 -0.3974  1.2257  0.1455
  268TIP3    H225000   5.485   4.867  17.404 -0.5732 -1.1059 -1.1015
  269TIP3   OH225001   1.538   8.033  17.088 -0.4532  0.1884  0.3094
  269TIP3    H125002   1.478   7.985  17.146  0.9417 -1.0542  0.8063
  269TIP3    H225003   1.515   8.003  17.000 -0.4202 -0.4514  0.5116
  270TIP3   OH225004   5.517   6.558  17.001  0.1761  0.3395  0.4826
  270TIP3    H125005   5.441   6.600  17.042  0.2169  1.1533 -0.2432
  270TIP3    H225006   5.545   6.621  16.934  1.1791 -0.1811  0.4051
  271TIP3   OH225007   0.035   2.871  16.673 -0.0118  0.1190 -0.0939
  271TIP3    H125008   0.013   2.841  16.585 -2.4915 -0.0953  0.5136
  271TIP3    H225009  -0.043   2.919  16.702  0.7389  0.1762  1.9777
  272TIP3   OH225010   3.247   3.543  17.687  0.1224 -0.6663 -0.5661
  272TIP3    H125011   3.269   3.595  17.764  0.5836 -1.4584 -0.1476
  272TIP3    H225012   3.268   3.453  17.712  0.5207 -0.9089 -1.7054
  273TIP3   OH225013   5.817   2.052  15.790 -0.4560 -0.6407 -0.0430
  273TIP3    H125014   5.727   2.068  15.763  0.1552 -1.0093 -2.5261
  273TIP3    H225015   5.850   2.137  15.819 -1.1246 -0.1879 -0.6148
  274TIP3   OH225016   4.393   7.224  16.221  0.3695  0.2532  0.4715
  274TIP3    H125017   4.328   7.156  16.199 -0.1144  0.6485  0.6736
  274TIP3    H225018   4.463   7.176  16.265  0.5031 -0.2755 -0.2892
  275TIP3   OH225019   2.375   2.359  17.862  0.5199  0.0232 -0.4915
  275TIP3    H125020   2.380   2.266  17.883  0.3013 -0.1498 -1.1746
  275TIP3    H225021   2.281   2.375  17.846  0.8198 -0.2546 -2.9758
  276TIP3   OH225022   7.991   3.537  16.928  0.5619  0.0714 -0.3449
  276TIP3    H125023   7.964   3.528  16.837 -0.4515  0.0338 -0.0463
  276TIP3    H225024   8.040   3.456  16.946  2.1139  0.7619 -1.2912
  277TIP3   OH225025   2.493   1.159  17.278  0.1913 -0.1566  0.0308
  277TIP3    H125026   2.471   1.066  17.274  1.0491 -0.3413 -0.5544
  277TIP3    H225027   2.412   1.201  17.307 -0.7504 -0.8876 -1.4279
  278TIP3   OH225028   8.419   0.756  16.756  0.0453 -0.0656 -0.4062
  278TIP3    H125029   8.434   0.778  16.848 -0.7139  0.1745 -0.3346
  278TIP3    H225030   8.410   0.841  16.713  0.8063 -0.1659 -0.7840
  279TIP3   OH225031   5.025   6.260  16.720  0.4062  0.3526 -0.1440
  279TIP3    H125032   5.063   6.343  16.749 -0.1205  0.5500  0.0056
  279TIP3    H225033   4.939   6.257  16.762  1.9954 -2.2758  3.4010
  280TIP3   OH225034   5.596   2.127  17.110 -0.2254  0.7709 -0.0932
  280TIP3    H125035   5.691   2.121  17.121 -0.1897  0.1591 -0.6210
  280TIP3    H225036   5.570   2.200  17.165  0.2472 -0.4464  1.8433
  281TIP3   OH225037   4.453   1.849  16.748 -0.1566 -0.1232  0.4355
  281TIP3    H125038   4.535   1.878  16.787  0.0374 -0.1550  0.0586
  281TIP3    H225039   4.472   1.844  16.654 -0.2304 -1.3124  0.4732
  282TIP3   OH225040   5.944   3.643  16.392 -0.5026  0.4619 -0.4190
  282TIP3    H125041   6.002   3.704  16.439 -0.6628  0.3071 -0.0117
  282TIP3    H225042   5.862   3.691  16.383 -1.0153 -0.0891  0.9351
  283TIP3   OH225043   7.420   5.986  16.254  0.0142 -0.1305 -0.4744
  283TIP3    H125044   7.493   5.963  16.197  0.6442  1.2743 -0.2909
  283TIP3    H225045   7.412   6.081  16.245 -1.2252 -0.1535  0.1903
  284TIP3   OH225046   2.513   4.564  12.823  0.3268 -0.5290 -0.3628
  284TIP3    H125047   2.592   4.617  12.825 -0.5361  0.8407 -0.5462
  284TIP3    H225048   2.542   4.475  12.841  1.5982  0.2816  1.9973
  285TIP3   OH225049   6.571   1.470  10.338 -0.1757 -0.3520 -0.7369
  285TIP3    H125050   6.535   1.407  10.400  1.1924 -0.1957  0.2493
  285TIP3    H225051   6.666   1.464  10.348  0.0592  0.3534 -2.1499
  286TIP3   OH225052   1.188   7.559  10.971  0.1975  0.2515 -0.5931
  286TIP3    H125053   1.104   7.588  10.935  0.6973  0.3089 -1.7577
  286TIP3    H225054   1.192   7.466  10.948 -0.6646 -0.4018  1.6949
  287TIP3   OH225055   0.119   1.842  11.895  0.2168 -0.1780  0.8071
  287TIP3    H125056   0.077   1.781  11.956 -2.4687  1.3625  0.6454
  287TIP3    H225057   0.090   1.929  11.924  1.2965  0.8050 -0.8863
  288TIP3   OH225058   6.462   1.287  11.549  0.2286 -0.3979  0.2822
  288TIP3    H125059   6.446   1.235  11.628  0.7395  0.8606  1.2639
  288TIP3    H225060   6.554   1.313  11.556  0.8235 -1.7639 -1.6762
  289TIP3   OH225061   0.769   5.875  10.466 -0.2686 -0.0421 -0.1266
  289TIP3    H125062   0.683   5.849  10.434 -0.0288  1.1724 -1.8732
  289TIP3    H225063   0.784   5.820  10.543 -1.8043 -1.5462 -0.8573
  290TIP3   OH225064   4.980   0.511  12.682  0.1292  0.3287  0.2922
  290TIP3    H125065   5.002   0.505  12.589 -0.2119 -0.0548  0.2314
  290TIP3    H225066   5.029   0.587  12.714  0.3540  0.3812 -0.1693
  291TIP3   OH225067   5.731   2.576  10.780  0.4852 -0.0214 -0.2733
  291TIP3    H125068   5.671   2.632  10.828  0.6937 -0.3153  0.3322
  291TIP3    H225069   5.799   2.553  10.843  1.4074  0.5468 -1.0323
  292TIP3   OH225070   8.054   3.238  10.658  0.1361  0.8322  0.1250
  292TIP3    H125071   8.018   3.243  10.747  0.4343  0.2372  0.2866
  292TIP3    H225072   7.979   3.257  10.601 -0.4088 -0.1848  0.4618
  293TIP3   OH225073   3.450   8.368  11.496  0.0843 -0.4312 -1.1021
  293TIP3    H125074   3.467   8.461  11.482  3.6130 -0.3498  2.1295
  293TIP3    H225075   3.530   8.324  11.466 -1.2663 -2.4393 -1.9994
  294TIP3   OH225076   1.377   7.296  11.116 -0.5172 -0.0249  0.2304
  294TIP3    H125077   1.357   7.316  11.025 -2.8472 -0.2599  0.6497
  294TIP3    H225078   1.435   7.220  11.112  0.0571  0.4583 -1.0567
  295TIP3   OH225079   8.300   2.307  11.426  0.3020  0.1459 -0.1966
  295TIP3    H125080   8.349   2.316  11.507 -0.2503  1.1419  0.0431
  295TIP3    H225081   8.213   2.278  11.454  0.8630 -2.2149 -0.6569
  296TIP3   OH225082   5.906   4.429  12.016 -0.1048 -0.2862  0.4384
  296TIP3    H125083   5.913   4.516  11.977  0.2623 -0.9830 -1.1057
  296TIP3    H225084   5.951   4.437  12.100 -0.8942  1.2447  0.7413
  297TIP3   OH225085   3.609   4.010  11.447 -0.3740 -0.1263 -0.4421
  297TIP3    H125086   3.615   4.051  11.361  0.5301 -0.1569 -0.4020
  297TIP3    H225087   3.612   4.083  11.509  0.2001 -0.1773 -0.4039
  298TIP3   OH225088   6.407   3.475  11.478  0.3607  0.4650  0.0542
  298TIP3    H125089   6.421   3.499  11.570  0.7767  2.1779 -0.4317
  298TIP3    H225090   6.496   3.460  11.444  0.2414  0.3216 -0.1954
  299TIP3   OH225091   4.309   0.364  12.157 -0.6767  0.4128  0.6535
  299TIP3    H125092   4.315   0.297  12.225  1.5977 -0.3431 -0.2145
  299TIP3    H225093   4.236   0.335  12.101  0.8276 -1.9555 -0.2466
  300TIP3   OH225094   1.069   6.667  10.500 -0.5313 -0.3634 -0.5806
  300TIP3    H125095   1.071   6.656  10.595 -0.7184 -0.0237 -0.5371
  300TIP3    H225096   1.077   6.578  10.465 -0.5247 -0.4936 -0.2453
  301TIP3   OH225097   7.043   2.681  11.285  0.2054  0.2836 -0.1893
  301TIP3    H125098   7.119   2.704  11.339  1.2095 -0.2769 -1.3144
  301TIP3    H225099   6.968   2.712  11.335  1.0705 -0.3918  1.6172
  302TIP3   OH225100   6.589   7.768  10.874 -0.0019  0.0578 -0.4088
  302TIP3    H125101   6.665   7.826  10.879 -1.1573  1.6392 -0.6137
  302TIP3    H225102   6.596   7.712  10.951  1.2075  0.3699 -0.2771
  303TIP3   OH225103   5.165   4.782  12.368  0.2860  0.0260  0.0577
  303TIP3    H125104   5.181   4.874  12.347  1.4826  0.1312  1.2888
  303TIP3    H225105   5.085   4.782  12.420  0.4649  0.4157  0.3400
  304TIP3   OH225106   8.422   7.357  12.933 -0.7531 -0.1614  0.6059
  304TIP3    H125107   8.379   7.416  12.995 -0.3841 -1.2372  1.9409
  304TIP3    H225108   8.423   7.405  12.850  0.1125  1.9728  1.7758
  305TIP3   OH225109   5.862   5.488  10.616  0.4004 -0.0493  0.0506
  305TIP3    H125110   5.955   5.482  10.641  0.6007  2.6274  0.2008
  305TIP3    H225111   5.818   5.517  10.695 -0.4300 -0.3640 -0.2929
  306TIP3   OH225112   4.202   1.314  12.272  0.1676  0.4754 -0.4696
  306TIP3    H125113   4.147   1.368  12.329 -1.3082 -0.4670 -0.9497
  306TIP3    H225114   4.207   1.229  12.316  0.2073  0.1769 -1.0357
  307TIP3   OH225115   8.190   4.967  11.513 -0.3006  0.0962 -0.1770
  307TIP3    H125116   8.151   5.054  11.508 -0.8691 -0.1125  0.4831
  307TIP3    H225117   8.237   4.966  11.596 -3.2345 -1.3768  1.5922
  308TIP3   OH225118   7.107   4.863  12.257  0.0523  0.4906  0.0217
  308TIP3    H125119   7.053   4.859  12.178  0.6117  2.2369 -0.4996
  308TIP3    H225120   7.110   4.773  12.288 -3.0168  0.2691  0.0043
  309TIP3   OH225121   0.358   5.784  10.647  0.2004  0.5292 -0.3875
  309TIP3    H125122   0.304   5.782  10.726  0.4641  2.1268 -0.1449
  309TIP3    H225123   0.310   5.730  10.584 -0.4309 -0.0805  0.5872
  310TIP3   OH225124   0.274   6.332  12.025 -0.4696 -0.3558 -0.2047
  310TIP3    H125125   0.240   6.413  11.986 -1.6866 -0.4510  0.5907
  310TIP3    H225126   0.328   6.362  12.098 -1.9097 -0.2446  0.8592
  311TIP3   OH225127   6.791   3.266  10.316 -0.4950 -0.4277 -0.4155
  311TIP3    H125128   6.739   3.202  10.268 -1.1375 -0.4842  0.3454
  311TIP3    H225129   6.882   3.246  10.291 -0.7827 -0.7195 -1.2743
  312TIP3   OH225130   3.574   4.557  11.664 -0.4070  0.5420  0.4517
  312TIP3    H125131   3.623   4.476  11.676 -0.5779  0.5850  1.4998
  312TIP3    H225132   3.483   4.531  11.674 -0.5142  0.7202 -0.0470
  313TIP3   OH225133   7.234   6.315  10.634  0.6526 -0.1288  0.6194
  313TIP3    H125134   7.240   6.283  10.544 -1.6847 -1.0685  0.7291
  313TIP3    H225135   7.207   6.239  10.685 -1.7737  1.1862  1.4491
  314TIP3   OH225136   1.298   7.540  11.923  0.3254  0.7225  0.1967
  314TIP3    H125137   1.311   7.559  12.016 -0.8398  0.5339  0.4123
  314TIP3    H225138   1.203   7.529  11.913  0.4304  0.7020 -1.0088
  315TIP3   OH225139   8.310   4.391  10.985 -0.2665 -0.4381 -0.2670
  315TIP3    H125140   8.335   4.333  10.913  0.7415 -0.5024  0.1291
  315TIP3    H225141   8.344   4.477  10.959  1.7309 -0.8068  0.9385
  316TIP3   OH225142   7.138   3.156  10.385  0.4478 -0.6252 -0.3420
  316TIP3    H125143   7.209   3.094  10.398 -0.5568 -1.5941  0.8920
  316TIP3    H225144   7.139   3.210  10.464 -0.8407 -1.3838  0.2288
  317TIP3   OH225145   6.815   7.534  12.560 -0.1514  0.1352  0.4851
  317TIP3    H125146   6.867   7.454  12.555  0.7815  0.7783 -1.3374
  317TIP3    H225147   6.868   7.594  12.613  1.2215  0.8800 -1.5900
  318TIP3   OH225148   5.185   5.412  11.008 -0.1840 -0.5435  0.0696
  318TIP3    H125149   5.251   5.481  11.003 -0.4175  0.2619  4.0782
  318TIP3    H225150   5.217   5.344  10.949  3.2776  0.5391  0.4298
  319TIP3   OH225151   0.654   4.080  10.820  0.4202 -0.1825  0.0001
  319TIP3    H125152   0.613   4.158  10.781  0.5030 -0.7600 -1.2853
  319TIP3    H225153   0.617   4.007  10.772  1.3424 -0.8590  0.2857
  320TIP3   OH225154   5.182   4.400  11.266 -0.3065  0.1346 -0.2183
  320TIP3    H125155   5.133   4.480  11.285  0.1516  0.3005  0.3018
  320TIP3    H225156   5.266   4.413  11.310  0.3867  0.0627 -1.4841
  321TIP3   OH225157   3.977   2.332  11.528  0.0306 -0.2172  0.3111
  321TIP3    H125158   4.031   2.280  11.469 -0.3014 -0.0338 -0.1591
  321TIP3    H225159   3.888   2.301  11.513 -0.0929  0.0505  0.4852
  322TIP3   OH225160   1.844   5.672  10.888  0.2086  0.5734 -0.3617
  322TIP3    H125161   1.792   5.592  10.878  1.1589  0.0058 -0.9844
  322TIP3    H225162   1.834   5.695  10.980  0.5180 -0.7035  0.0129
  323TIP3   OH225163   3.754   5.417  17.047 -0.1782  0.3756 -0.5234
  323TIP3    H125164   3.721   5.443  17.133 -0.0082  0.4126 -0.4678
  323TIP3    H225165   3.721   5.329  17.034 -1.2161  0.8070 -0.9451
  324TIP3   OH225166   5.020   5.850  16.579  0.3294 -0.1076  0.5453
  324TIP3    H125167   4.969   5.869  16.658 -1.2972 -0.6198 -0.3387
  324TIP3    H225168   4.986   5.910  16.513  1.3174 -0.0342  0.0880
  325TIP3   OH225169   1.523   4.904  15.618 -0.4141  0.6181  0.1767
  325TIP3    H125170   1.564   4.854  15.547  1.6653  0.4717  1.4074
  325TIP3    H225171   1.438   4.929  15.583 -0.0108 -0.6039 -1.8587
  326TIP3   OH225172   7.709   6.840  18.157 -0.0313  0.6551 -0.4052
  326TIP3    H125173   7.624   6.796  18.163  0.2775 -0.1517 -1.6205
  326TIP3    H225174   7.700   6.918  18.212 -1.8325  1.0169 -1.1506
  327TIP3   OH225175   0.920   5.191  16.546  0.0003 -0.4956 -0.3357
  327TIP3    H125176   0.900   5.141  16.625 -1.7942  0.8006  0.0968
  327TIP3    H225177   0.844   5.248  16.534  1.6438  1.6568 -1.1590
  328TIP3   OH225178   6.109   5.231  17.827 -0.5178 -0.5919  0.1122
  328TIP3    H125179   6.166   5.300  17.859  1.2878 -0.7261 -2.4842
  328TIP3    H225180   6.026   5.275  17.808 -0.3009  0.2633  1.0960
  329TIP3   OH225181   6.170   5.207  17.508 -0.0837 -0.1436 -0.1512
  329TIP3    H125182   6.212   5.207  17.594  0.2639 -1.2286 -0.3051
  329TIP3    H225183   6.232   5.161  17.451 -1.6690 -2.3206 -0.2547
  330TIP3   OH225184   6.511   5.587  17.832 -0.3723  0.3551 -0.4984
  330TIP3    H125185   6.590   5.633  17.862 -0.0537  0.0475 -0.8635
  330TIP3    H225186   6.443   5.654  17.833 -0.2194  0.5169  0.2721
  331TIP3   OH225187   5.563   1.664  16.137  0.3283  0.2644 -0.2524
  331TIP3    H125188   5.588   1.625  16.221 -0.0103  1.4475  0.4227
  331TIP3    H225189   5.641   1.713  16.110  0.2441  0.3429 -0.3522
  332TIP3   OH225190   5.496   5.745  17.916 -0.0103 -0.2682 -0.0725
  332TIP3    H125191   5.449   5.734  17.999 -1.2175  1.4970 -0.4594
  332TIP3    H225192   5.536   5.832  17.922  0.1040 -0.2226 -1.2324
  333TIP3   OH225193   8.154   5.215  16.647  0.1576 -0.2395  0.3040
  333TIP3    H125194   8.224   5.163  16.608 -1.6546 -1.1136 -2.0143
  333TIP3    H225195   8.091   5.151  16.680 -1.3010  0.4151 -1.0629
  334TIP3   OH225196   4.291   6.284  16.651  0.6506  0.0863  0.0643
  334TIP3    H125197   4.335   6.266  16.734 -1.2989 -0.9873  0.9341
  334TIP3    H225198   4.287   6.199  16.607  0.6655  0.4313 -0.6125
  335TIP3   OH225199   7.602   1.192  16.940  0.3155 -0.1654 -0.0512
  335TIP3    H125200   7.691   1.215  16.911  0.4651 -0.6981 -0.0331
  335TIP3    H225201   7.587   1.248  17.016  1.1625 -1.0086  0.7639
  336TIP3   OH225202   5.171   6.146  27.063 -0.1297 -0.2136  0.6713
  336TIP3    H125203   5.108   6.186  27.123 -0.1111  1.2908 -0.2598
  336TIP3    H225204   5.118   6.096  27.001 -0.3415  0.1886  0.5237
  337TIP3   OH225205   4.300   2.248  16.074 -0.1622  0.6113  0.4395
  337TIP3    H125206   4.241   2.230  16.147  0.8285  0.1603  1.1612
  337TIP3    H225207   4.385   2.215  16.104 -0.1128 -1.4757 -1.6866
  338TIP3   OH225208   8.008   6.239  16.784 -0.0131 -0.1923  0.1785
  338TIP3    H125209   7.980   6.330  16.777  0.5138 -0.0923 -0.7913
  338TIP3    H225210   7.944   6.198  16.843 -1.1952  0.4219 -0.6532
  339TIP3   OH225211   2.705   6.737  16.135  0.2679 -0.1616 -0.1673
  339TIP3    H125212   2.722   6.776  16.221  3.5962 -0.4844 -0.5495
  339TIP3    H225213   2.645   6.798  16.093 -2.2920 -0.4779  2.6332
  340TIP3   OH225214   6.975   3.411  17.994 -0.3467 -0.2976 -0.2935
  340TIP3    H125215   6.917   3.409  17.918  0.1516 -0.9120 -0.6640
  340TIP3    H225216   7.035   3.337  17.981  0.3876  0.1964  0.1798
  341TIP3   OH225217   0.729   5.862  16.866  0.0937 -0.0209  0.1716
  341TIP3    H125218   0.774   5.780  16.843 -0.4424  0.0417 -1.2558
  341TIP3    H225219   0.714   5.856  16.960  2.2321 -0.4430  0.5301
  342TIP3   OH225220   5.628   6.408  16.549 -0.0475  0.5812  0.2886
  342TIP3    H125221   5.609   6.315  16.538  1.7655  0.2070  0.0391
  342TIP3    H225222   5.652   6.417  16.642 -1.2883  1.0328  0.5879
  343TIP3   OH225223   5.971   4.047  16.467  0.2808 -0.2456  0.3489
  343TIP3    H125224   5.962   4.133  16.428  2.3858  0.3723  1.0963
  343TIP3    H225225   5.931   3.987  16.403  1.9485  0.8986 -1.9220
  344TIP3   OH225226   7.333   6.564  15.837  0.1743 -0.0507 -0.6639
  344TIP3    H125227   7.270   6.576  15.907  1.3440  0.6044  0.3181
  344TIP3    H225228   7.384   6.645  15.835  0.8279 -0.4554 -1.5884
  345TIP3   OH225229   2.794   0.339  17.129  0.8586 -0.2458 -0.1568
  345TIP3    H125230   2.882   0.371  17.147  0.8216 -0.7778  1.0733
  345TIP3    H225231   2.740   0.378  17.197 -0.3579  2.0469 -2.2722
  346TIP3   OH225232   2.445   1.897  16.865  0.5025 -0.6292  0.5747
  346TIP3    H125233   2.448   1.822  16.804  0.4913 -0.2285  0.0714
  346TIP3    H225234   2.421   1.859  16.949 -0.3850 -1.0836  0.1299
  347TIP3   OH225235   4.104   3.661  16.800  0.3086 -0.2773  0.4216
  347TIP3    H125236   4.039   3.725  16.827  1.4778  1.1272  0.0058
  347TIP3    H225237   4.180   3.713  16.772  1.9403 -1.8575  1.6771
  348TIP3   OH225238   0.350   7.205  17.612 -0.2062 -0.8702 -0.2658
  348TIP3    H125239   0.256   7.203  17.626 -0.4472 -1.6093 -1.7580
  348TIP3    H225240   0.379   7.115  17.631  0.5210 -0.2112  1.9896
  349TIP3   OH225241   3.944   7.493  16.617  0.0674  0.2212  0.4077
  349TIP3    H125242   4.017   7.452  16.664 -0.8128 -1.8902  0.0748
  349TIP3    H225243   3.913   7.562  16.675  1.3405  0.1099  1.2525
  350TIP3   OH225244   6.337   3.840  17.507 -0.2661  0.5345  0.3145
  350TIP3    H125245   6.251   3.874  17.483 -0.6326 -1.0246 -0.8050
  350TIP3    H225246   6.390   3.852  17.428 -0.4537 -1.4986 -0.1774
  351TIP3   OH225247   2.997   6.123  17.120  0.1865 -0.0746  0.0339
  351TIP3    H125248   2.982   6.036  17.158  1.3971 -0.7871 -1.0356
  351TIP3    H225249   3.092   6.127  17.109 -0.0200  0.6374 -1.6461
  352TIP3   OH225250   5.100   4.587  16.689 -0.1658 -0.0404  0.8224
  352TIP3    H125251   5.018   4.556  16.728 -0.8751  0.9868  0.1757
  352TIP3    H225252   5.073   4.647  16.620  1.1236 -0.4047 -0.0255
  353TIP3   OH225253   6.755   0.649  15.910 -0.0224  0.1451  0.4115
  353TIP3    H125254   6.822   0.602  15.860  0.3322  1.9522 -0.9088
  353TIP3    H225255   6.801   0.724  15.947 -0.9566  0.4808  0.9145
  354TIP3   OH225256   3.186   7.214  17.364 -0.7116  0.3174 -0.2039
  354TIP3    H125257   3.161   7.122  17.374  0.8664 -0.1099  0.1209
  354TIP3    H225258   3.177   7.250  17.452  2.5140 -0.6202  0.6680
  355TIP3   OH225259   2.776   6.053  17.498 -0.5994  0.0619 -0.4336
  355TIP3    H125260   2.737   5.988  17.556 -1.1830 -0.1442 -1.0474
  355TIP3    H225261   2.706   6.077  17.438  0.2343 -0.3927 -1.6301
  356TIP3   OH225262   1.263   1.869  15.951  0.4585 -0.0635  0.0184
  356TIP3    H125263   1.351   1.891  15.981  0.5997 -0.1571 -0.3354
  356TIP3    H225264   1.210   1.945  15.975  1.2515  1.4360 -2.6751
  357TIP3   OH225265   0.037   2.888  15.891  0.0351  0.4192  0.3545
  357TIP3    H125266   0.122   2.898  15.933 -1.4790 -0.2615  3.9732
  357TIP3    H225267   0.025   2.969  15.841  2.7949  0.4641 -0.3721
  358TIP3   OH225268   7.960   2.063  16.214  0.2731 -0.5936 -0.3585
  358TIP3    H125269   8.017   2.086  16.140 -0.5272  1.1129 -0.4999
  358TIP3    H225270   7.896   2.134  16.218  0.9631  0.0057  2.6691
  359TIP3   OH225271   6.680   3.880  16.405  0.4996 -0.2772 -0.3108
  359TIP3    H125272   6.614   3.949  16.404 -0.8669 -1.4108  1.9145
  359TIP3    H225273   6.630   3.799  16.390  1.5397 -1.0579  0.2757
  360TIP3   OH225274   7.723   5.177  16.768 -0.1315 -0.0313 -0.1105
  360TIP3    H125275   7.705   5.269  16.784  0.1850  0.3815 -1.8444
  360TIP3    H225276   7.694   5.163  16.677  0.9345 -1.3227 -0.2800
  361TIP3   OH225277   3.132   7.400  16.204  0.2661  0.4823 -0.3870
  361TIP3    H125278   3.178   7.484  16.194 -1.2106  1.2736 -0.8785
  361TIP3    H225279   3.108   7.376  16.115 -0.0722 -0.0362 -0.1567
  362TIP3   OH225280   0.231   8.291  16.309 -0.6904  0.0470  0.2270
  362TIP3    H125281   0.148   8.331  16.284 -0.1334  1.2474  0.2592
  362TIP3    H225282   0.297   8.358  16.292  0.3137 -0.9472  0.0162
  363TIP3   OH225283   4.929   4.352  16.711 -0.3551  0.0255  0.3359
  363TIP3    H125284   4.939   4.373  16.618 -0.8618  1.6683  0.6156
  363TIP3    H225285   4.990   4.280  16.726 -0.0653 -0.0905 -1.2055
  364TIP3   OH225286   5.152   6.117  16.210  0.2635 -0.9209  0.0292
  364TIP3    H125287   5.059   6.111  16.193  0.1972  0.5682 -0.3407
  364TIP3    H225288   5.158   6.144  16.302  0.2791 -0.1110 -0.2005
  365TIP3   OH225289   2.818   7.787  17.491 -0.7167  0.9365 -1.0046
  365TIP3    H125290   2.802   7.722  17.422  3.1426 -0.4899 -0.7661
  365TIP3    H225291   2.879   7.745  17.550 -2.1346  2.9606  2.1637
  366TIP3   OH225292   8.373   4.367  17.661 -0.1610 -0.0228  0.1051
  366TIP3    H125293   8.334   4.280  17.675  0.8038 -0.3259  1.1200
  366TIP3    H225294   8.430   4.356  17.585 -0.1016 -0.2567  0.1827
  367TIP3   OH225295   5.575   7.388  16.135  0.0609  0.3534  0.8776
  367TIP3    H125296   5.629   7.467  16.143 -0.3564  0.5216  2.1420
  367TIP3    H225297   5.505   7.400  16.199 -0.7324 -0.4733  0.1848
  368TIP3   OH225298   5.724   0.196  17.890  0.4833  0.5025 -0.6047
  368TIP3    H125299   5.694   0.287  17.889  1.0634  0.8701  2.7214
  368TIP3    H225300   5.811   0.201  17.930 -0.0650 -1.6155  1.0073
  369TIP3   OH225301   4.235   0.738  17.667 -0.1304 -0.3984 -0.0475
  369TIP3    H125302   4.313   0.742  17.611 -0.5248  0.3165 -0.5554
  369TIP3    H225303   4.163   0.718  17.606 -0.3877 -0.7914  0.3810
  370TIP3   OH225304   3.666   5.534  16.599  0.4892  0.1673  0.2323
  370TIP3    H125305   3.680   5.617  16.554  0.1175 -0.2041 -0.5900
  370TIP3    H225306   3.658   5.558  16.691 -0.7245  1.1755 -0.1057
  371TIP3   OH225307   0.156   7.111  15.837 -0.1229 -0.1460  0.0278
  371TIP3    H125308   0.102   7.165  15.894 -0.8787 -1.3749  0.5007
  371TIP3    H225309   0.161   7.161  15.755 -0.2289  0.9447  0.6634
  372TIP3   OH225310   2.239   7.082  16.072  0.3099 -0.6747  0.4750
  372TIP3    H125311   2.284   7.006  16.110 -0.2107 -0.7140  1.0218
  372TIP3    H225312   2.258   7.154  16.132 -0.1310 -0.6308  0.5683
  373TIP3   OH225313   6.321   4.786  16.377  0.2987  0.2037  0.5394
  373TIP3    H125314   6.326   4.812  16.285  0.6255  2.6907  1.1873
  373TIP3    H225315   6.336   4.691  16.376  1.0775  0.2858 -1.8763
  374TIP3   OH225316   0.393   0.979  17.074  0.0987 -0.1374 -0.5165
  374TIP3    H125317   0.399   1.006  17.166 -0.6632 -1.1794 -0.1480
  374TIP3    H225318   0.359   1.056  17.029  0.2918  0.3206  0.0996
  375TIP3   OH225319   6.838   2.112  17.490  0.1735  0.0893  0.4018
  375TIP3    H125320   6.775   2.124  17.418  1.9482  2.8662 -0.8604
  375TIP3    H225321   6.801   2.163  17.562 -0.0490 -0.0480  0.3871
  376TIP3   OH225322   1.188   2.465  16.889  0.3248  0.3308 -0.0897
  376TIP3    H125323   1.274   2.475  16.848 -0.7604  0.0761 -2.6151
  376TIP3    H225324   1.172   2.371  16.889 -0.2570  0.4284 -0.2785
  377TIP3   OH225325   1.351   1.054  17.181 -0.2944  0.8118 -0.0625
  377TIP3    H125326   1.341   0.973  17.131  0.5282  0.9055 -0.4074
  377TIP3    H225327   1.262   1.083  17.198 -0.6115 -0.4375  0.5130
  378TIP3   OH225328   6.537   6.736  15.895 -0.2572  0.1983 -0.7274
  378TIP3    H125329   6.625   6.764  15.870 -0.2648  0.8488 -0.0814
  378TIP3    H225330   6.549   6.655  15.944  0.2706  1.5377  1.5304
  379TIP3   OH225331   7.340   7.331  17.592  0.0099 -0.9002  0.1569
  379TIP3    H125332   7.408   7.265  17.601  0.1657 -0.8163 -0.3675
  379TIP3    H225333   7.267   7.297  17.644 -0.2194 -1.9029 -0.7859
  380TIP3   OH225334   0.407   1.799  16.793  0.7092  0.5833 -0.5632
  380TIP3    H125335   0.371   1.866  16.852 -0.6355 -0.7109  0.1599
  380TIP3    H225336   0.340   1.790  16.725 -0.5927 -2.0385  0.9247
  381TIP3   OH225337   2.660   7.010  17.644  0.3778  0.4263  0.5106
  381TIP3    H125338   2.645   7.087  17.589  2.1563  0.2632 -0.2688
  381TIP3    H225339   2.586   6.952  17.625  1.2802  0.0456 -2.3611
  382TIP3   OH225340   1.060   4.260  16.841  0.5255  0.0809  0.4539
  382TIP3    H125341   0.968   4.267  16.865  0.1905  0.3973 -0.8264
  382TIP3    H225342   1.095   4.348  16.858  0.4731  0.0932  0.5011
  383TIP3   OH225343   0.749   2.763  16.663  0.1550 -0.0548  0.5937
  383TIP3    H125344   0.807   2.717  16.724 -0.0611  0.3044  1.0717
  383TIP3    H225345   0.677   2.794  16.717  0.7153  1.6042  0.4654
  384TIP3   OH225346   4.999   2.837  18.233 -0.6825 -0.4002  0.2613
  384TIP3    H125347   4.919   2.786  18.223 -0.2915 -0.8975 -0.5048
  384TIP3    H225348   5.067   2.771  18.248 -0.1812 -0.1172 -0.6527
  385TIP3   OH225349   1.556   3.190  17.811  0.1845  0.4466  0.2048
  385TIP3    H125350   1.634   3.234  17.845  0.6087 -0.0543 -0.1046
  385TIP3    H225351   1.590   3.126  17.749 -0.4466 -0.0643  0.3773
  386TIP3   OH225352   4.769   2.660  18.227  0.3383 -0.3834  0.4219
  386TIP3    H125353   4.760   2.623  18.139  0.6186 -0.2103  0.3153
  386TIP3    H225354   4.797   2.587  18.281  3.8791  0.2055 -0.3680
  387TIP3   OH225355   1.758   2.476  17.292 -0.3368  0.1425 -0.3067
  387TIP3    H125356   1.786   2.507  17.378  0.1669 -1.1541  0.0202
  387TIP3    H225357   1.694   2.407  17.311 -0.0091 -0.3509 -0.9631
  388TIP3   OH225358   5.670   2.935  16.494 -0.1291  0.6274 -0.6313
  388TIP3    H125359   5.756   2.956  16.530 -1.0891  0.7618  1.7064
  388TIP3    H225360   5.663   2.840  16.501 -0.1354  0.6072 -0.9038
  389TIP3   OH225361   0.080   1.378  16.706 -0.4852 -0.3947  0.1760
  389TIP3    H125362   0.011   1.324  16.746 -0.4003  0.4467  1.5410
  389TIP3    H225363   0.039   1.413  16.627 -1.8381  0.4235  1.1704
  390TIP3   OH225364   3.299   0.435  17.713  0.8817 -0.3173  0.1113
  390TIP3    H125365   3.378   0.408  17.667  0.3877 -0.0896 -0.8894
  390TIP3    H225366   3.267   0.354  17.755 -0.2568 -1.2433 -2.3677
  391TIP3   OH225367   8.270   3.520  17.256  0.2087  0.1652  0.3838
  391TIP3    H125368   8.338   3.581  17.284  0.2453  0.3453 -0.0911
  391TIP3    H225369   8.204   3.575  17.214 -0.0881 -0.0444  0.5649
  392TIP3   OH225370   0.655   5.889  15.560 -0.1416 -0.2904 -0.2223
  392TIP3    H125371   0.660   5.861  15.468 -0.6578 -1.7851  0.1728
  392TIP3    H225372   0.661   5.807  15.610  0.0650  0.4958  1.0787
  393TIP3   OH225373   0.431   2.723  17.865 -0.4836  0.1536 -0.0402
  393TIP3    H125374   0.438   2.803  17.917  0.7424 -0.0870  0.2000
  393TIP3    H225375   0.516   2.680  17.876 -1.2333 -1.3525  0.1120
  394TIP3   OH225376   6.946   4.920  15.635 -0.2676 -0.4626  0.3222
  394TIP3    H125377   6.904   5.005  15.642  1.9731  0.6230  1.6405
  394TIP3    H225378   6.896   4.863  15.694 -1.9565 -0.2201 -0.7952
  395TIP3   OH225379   6.703   4.201  15.854  0.2578  0.2588  0.1210
  395TIP3    H125380   6.749   4.230  15.933  0.7769 -2.0523  0.7685
  395TIP3    H225381   6.737   4.257  15.784  2.3337  0.1771  0.9853
  396TIP3   OH225382   7.395   6.567  17.932  0.2691  0.5966 -0.1724
  396TIP3    H125383   7.413   6.578  17.839 -0.3678 -0.7491 -0.4917
  396TIP3    H225384   7.306   6.532  17.935  0.4039  0.3031  0.9127
  397TIP3   OH225385   2.384   7.316  15.873 -1.1715  0.3538 -0.6110
  397TIP3    H125386   2.337   7.399  15.866 -2.0090 -0.0947 -0.4032
  397TIP3    H225387   2.317   7.252  15.897 -0.2913 -0.1377  0.6241
  398TIP3   OH225388   1.571   2.003  15.584  0.1394 -0.0532 -0.1530
  398TIP3    H125389   1.523   2.083  15.602  0.2198 -0.3511  1.5694
  398TIP3    H225390   1.503   1.936  15.574  0.1217 -0.0515 -0.0438
  399TIP3   OH225391   4.249   6.560  16.731 -0.6323 -0.0888 -0.2311
  399TIP3    H125392   4.224   6.467  16.733 -0.4734 -0.1145  0.8492
  399TIP3    H225393   4.211   6.593  16.650 -1.6703 -0.8324 -0.0626
  400TIP3   OH225394   3.439   6.702  16.744  0.7278  0.3918  0.2514
  400TIP3    H125395   3.477   6.715  16.656  1.5600  1.3523  0.7253
  400TIP3    H225396   3.508   6.733  16.803  0.2580 -0.4631  1.2532
  401TIP3   OH225397   2.611   7.369  16.289  0.3317 -0.1459 -0.5322
  401TIP3    H125398   2.640   7.287  16.249  0.9630 -0.5973  0.7889
  401TIP3    H225399   2.692   7.410  16.322 -0.2028 -0.1341  0.8495
  402TIP3   OH225400   2.472   3.806  15.759  0.8486  0.2621 -0.2868
  402TIP3    H125401   2.452   3.805  15.665 -0.2470  2.2362 -0.1150
  402TIP3    H225402   2.398   3.761  15.799  1.3288 -0.6026 -0.3445
  403TIP3   OH225403   0.676   0.292  16.319 -0.4811 -0.8124 -0.2395
  403TIP3    H125404   0.682   0.386  16.332  0.4889 -0.8919 -0.0099
  403TIP3    H225405   0.663   0.257  16.408  2.1038 -1.0734  0.1149
  404TIP3   OH225406   5.332   0.876  16.923  0.0313 -0.3222 -0.1711
  404TIP3    H125407   5.392   0.904  16.992  0.8204  0.6639 -1.1992
  404TIP3    H225408   5.260   0.833  16.968  0.7110 -0.0368  1.2218
  405TIP3   OH225409   4.505   6.707  17.675  0.1302  0.1391 -0.3309
  405TIP3    H125410   4.491   6.751  17.759 -2.6902 -0.9469 -0.1311
  405TIP3    H225411   4.529   6.777  17.615 -2.3740  1.7337  0.4007
  406TIP3   OH225412   2.951   5.152  16.673 -0.0172 -0.2335 -0.2240
  406TIP3    H125413   2.924   5.164  16.764 -0.5765  0.7446 -0.5071
  406TIP3    H225414   3.035   5.108  16.678  0.5899  0.9996  0.8002
  407TIP3   OH225415   6.033   5.232  16.264 -0.0049 -0.3437  0.0861
  407TIP3    H125416   6.072   5.152  16.298  0.4223 -0.3794 -0.4715
  407TIP3    H225417   6.054   5.299  16.328 -1.3382 -0.8887  1.1405
  408TIP3   OH225418   3.082   2.880  17.631  0.3844  0.2568  0.1768
  408TIP3    H125419   3.117   2.883  17.720 -0.3745  1.1531  0.4740
  408TIP3    H225420   2.991   2.851  17.643  0.0818  1.0114 -0.2218
  409TIP3   OH225421   3.842   8.115  17.578  0.0248  0.0020 -0.0777
  409TIP3    H125422   3.915   8.133  17.519 -1.2212  0.4798 -1.5411
  409TIP3    H225423   3.848   8.182  17.646  1.8095 -0.8901  0.7149
  410TIP3   OH225424   0.348   6.635  16.889 -0.3011 -0.1115 -0.3833
  410TIP3    H125425   0.272   6.647  16.831  0.1736  0.1422 -0.9649
  410TIP3    H225426   0.320   6.567  16.951 -1.0976  0.1771 -0.4172
  411TIP3   OH225427   5.094   2.093  17.861  0.0986 -0.4095  0.2544
  411TIP3    H125428   5.046   2.010  17.854 -0.9992  0.2941 -0.9665
  411TIP3    H225429   5.184   2.067  17.880 -0.5104 -1.8177  1.3579
  412TIP3   OH225430   7.461   1.616  16.514 -0.3961  0.2298  0.1421
  412TIP3    H125431   7.422   1.674  16.579  1.8965  1.8051  0.2259
  412TIP3    H225432   7.480   1.535  16.561  1.6730  1.5068  1.6758
  413TIP3   OH225433   5.083   2.292  16.392  0.2719 -0.6391 -0.2813
  413TIP3    H125434   5.112   2.331  16.309  1.9458  0.1770  0.6416
  413TIP3    H225435   5.062   2.367  16.448 -0.5379 -1.1763  0.1639
  414TIP3   OH225436   7.734   6.771  17.286 -0.3428  0.2727 -0.1288
  414TIP3    H125437   7.811   6.717  17.270  0.4350  1.2183  0.3247
  414TIP3    H225438   7.751   6.853  17.239 -0.8437  0.6820  0.3708
  415TIP3   OH225439   1.788   2.830  16.806  0.2114  0.5072  0.2619
  415TIP3    H125440   1.800   2.856  16.897  1.5131  2.8079 -0.4745
  415TIP3    H225441   1.784   2.912  16.758 -0.3040 -0.6424 -1.7930
  416TIP3   OH225442   1.616   7.518  16.351  0.3861  0.1668 -0.5778
  416TIP3    H125443   1.541   7.529  16.294  0.4571 -1.1224 -0.9459
  416TIP3    H225444   1.674   7.458  16.305  2.0921  1.7934 -0.7150
  417TIP3   OH225445   2.857   6.896  15.872  0.5424  0.3375 -0.0721
  417TIP3    H125446   2.765   6.869  15.883  0.8741 -1.4262 -1.2562
  417TIP3    H225447   2.853   6.976  15.822 -0.3591  0.2913 -0.0877
  418TIP3   OH225448   4.030   6.318  16.840  0.2610  0.0187  0.3535
  418TIP3    H125449   4.105   6.267  16.870  2.0296  2.6064  0.6518
  418TIP3    H225450   3.981   6.338  16.919  0.8037  0.5814  0.5608
  419TIP3   OH225451   0.787   6.901  16.213 -0.2185 -0.0881  0.1400
  419TIP3    H125452   0.733   6.886  16.290 -1.3603  0.8264 -0.4572
  419TIP3    H225453   0.737   6.962  16.159  1.0979  0.2515 -0.7640
  420TIP3   OH225454   3.347   2.349  16.857  0.1053  0.7852 -0.0866
  420TIP3    H125455   3.260   2.316  16.835  0.2923  0.4307 -0.2849
  420TIP3    H225456   3.345   2.441  16.828 -0.0620  0.6631 -0.4746
  421TIP3   OH225457   6.172   1.147  15.478 -0.2098  0.5262 -0.0234
  421TIP3    H125458   6.198   1.209  15.410  0.2488  0.6515  0.2601
  421TIP3    H225459   6.106   1.194  15.530  0.5993  1.0222  0.5768
  422TIP3   OH225460   2.219   0.004  15.959 -0.1815 -0.1527 -0.2435
  422TIP3    H125461   2.189   0.043  16.041 -1.7882  0.1033 -0.9234
  422TIP3    H225462   2.276   0.071  15.921  1.3653 -0.6488  1.0583
  423TIP3   OH225463   4.265   0.805  17.258 -0.0553  0.6758  0.3503
  423TIP3    H125464   4.346   0.757  17.277 -1.0821 -2.3334 -2.0375
  423TIP3    H225465   4.292   0.876  17.199  0.9405 -0.0735 -0.1247
  424TIP3   OH225466   2.811   6.431  16.696 -0.4451 -0.4062 -0.4705
  424TIP3    H125467   2.843   6.366  16.634  0.6921 -0.5634  0.2666
  424TIP3    H225468   2.795   6.509  16.642 -2.2937 -1.3883 -1.4501
  425TIP3   OH225469   5.939   2.867  17.738 -0.0294  0.3202  0.3313
  425TIP3    H125470   5.946   2.805  17.666 -2.1600 -0.4355  0.7024
  425TIP3    H225471   6.020   2.854  17.788 -0.3767 -2.1773  0.3802
  426TIP3   OH225472   8.011   6.107  16.113  0.2364  0.1506 -0.2805
  426TIP3    H125473   8.074   6.170  16.145 -0.4341  1.5228 -1.5557
  426TIP3    H225474   7.927   6.153  16.116 -0.6169 -1.3614  0.6448
  427TIP3   OH225475   4.542   3.957  16.440  0.2121 -0.0850 -0.2442
  427TIP3    H125476   4.584   4.031  16.396 -0.3015  0.5470  0.2971
  427TIP3    H225477   4.469   3.997  16.488 -0.9581 -1.1250 -1.0845
  428TIP3   OH225478   0.604   5.128  17.663  0.2473  0.1115 -0.9209
  428TIP3    H125479   0.615   5.218  17.631  0.8394  0.4215  0.1153
  428TIP3    H225480   0.522   5.099  17.624  0.3495  0.8889 -1.7571
  429TIP3   OH225481   1.965   4.548  17.355  0.1111  0.3778  0.2030
  429TIP3    H125482   1.892   4.611  17.355 -0.7794 -0.6253  0.3735
  429TIP3    H225483   1.929   4.470  17.396  1.5237  0.1009  0.9727
  430TIP3   OH225484   3.298   2.477  17.284 -0.1616  0.0625  0.2777
  430TIP3    H125485   3.338   2.423  17.351 -0.0948 -0.8932 -0.5053
  430TIP3    H225486   3.247   2.543  17.332  2.4932  1.5123  1.3457
  431TIP3   OH225487   4.960   3.640  16.524 -0.1342 -0.2876  0.3211
  431TIP3    H125488   5.017   3.564  16.534 -1.5238 -1.5316 -0.7790
  431TIP3    H225489   5.020   3.715  16.522  1.3845 -1.4609  0.0339
  432TIP3   OH225490   6.016   4.641  17.582  0.0862 -0.1429  0.0907
  432TIP3    H125491   6.025   4.610  17.491 -0.7858  0.3040 -0.1557
  432TIP3    H225492   6.004   4.561  17.633  1.2169 -0.4483 -0.0954
  433TIP3   OH225493   5.404   2.721  16.684  0.4529 -0.0321 -0.3971
  433TIP3    H125494   5.371   2.687  16.767 -0.5128  0.7206 -0.4448
  433TIP3    H225495   5.413   2.815  16.699  1.1626 -0.0199 -0.8671
  434TIP3   OH225496   8.363   7.899  16.195  0.1822 -0.0322 -0.6974
  434TIP3    H125497   8.391   7.966  16.258  0.6524 -0.2807 -0.6410
  434TIP3    H225498   8.434   7.835  16.195  0.5569  0.3581 -2.0539
  435TIP3   OH225499   3.042   7.877  17.075  0.4120  0.0976  0.2392
  435TIP3    H125500   3.046   7.973  17.070  0.3961  0.1840  1.5350
  435TIP3    H225501   3.133   7.849  17.079  0.4052  0.1091  0.5094
  436TIP3   OH225502   4.081   4.113  16.818  0.0841 -0.5281  0.5478
  436TIP3    H125503   4.005   4.160  16.853 -0.7414  0.2768 -2.0404
  436TIP3    H225504   4.155   4.142  16.872 -0.7970  1.9870  0.5197
  437TIP3   OH225505   6.959   3.830  16.369  0.3734 -0.0144  0.2782
  437TIP3    H125506   6.870   3.865  16.356  0.6424  1.2639  1.5851
  437TIP3    H225507   6.978   3.849  16.461  0.4493 -3.9300  1.2467
  438TIP3   OH225508   2.479   2.619  15.591 -0.2054 -0.0554 -0.2006
  438TIP3    H125509   2.392   2.619  15.551 -0.8943  0.5972  1.2637
  438TIP3    H225510   2.528   2.685  15.541 -0.8449  0.2800 -0.3946
  439TIP3   OH225511   1.383   0.450  16.403 -0.1725  0.3166 -0.4873
  439TIP3    H125512   1.298   0.485  16.376 -1.0611 -0.5267  1.0764
  439TIP3    H225513   1.443   0.478  16.335 -1.5495  1.6502 -1.2060
  440TIP3   OH225514   2.733   1.925  17.031 -0.1964  0.5179 -0.3787
  440TIP3    H125515   2.698   2.002  16.986  0.1471  1.4087  0.8215
  440TIP3    H225516   2.722   1.945  17.124  0.0340 -0.8310 -0.0440
  441TIP3   OH225517   4.148   7.076  17.625  0.5112  0.3859 -0.0871
  441TIP3    H125518   4.142   7.045  17.534  1.2012  0.8233 -0.2889
  441TIP3    H225519   4.239   7.061  17.650  1.2562  3.3543 -0.6286
  442TIP3   OH225520   5.658   6.677  16.519 -0.2839  0.1241 -0.3355
  442TIP3    H125521   5.646   6.583  16.510  1.1083 -0.1247  0.1902
  442TIP3    H225522   5.631   6.713  16.435 -1.2553 -0.6922 -0.3913
  443TIP3   OH225523   1.537   8.006  16.358  0.1639  0.1146  0.3642
  443TIP3    H125524   1.541   7.922  16.405  1.9021 -0.7262 -1.1256
  443TIP3    H225525   1.446   8.033  16.364 -0.2007 -1.2968  1.8828
  444TIP3   OH225526   7.575   4.788  17.878 -0.0270 -0.1220 -0.0060
  444TIP3    H125527   7.500   4.732  17.899  1.6821 -1.5624  2.9328
  444TIP3    H225528   7.537   4.872  17.854 -2.5895 -1.0008  0.6824
  445TIP3   OH225529   4.246   0.521  16.725 -0.1713 -0.2342 -0.6129
  445TIP3    H125530   4.172   0.535  16.783  1.4344 -1.1952  1.8018
  445TIP3    H225531   4.277   0.433  16.746  0.0399 -0.9700 -3.5305
  446TIP3   OH225532   7.454   2.195  16.006 -0.2820 -0.5769 -0.0705
  446TIP3    H125533   7.464   2.283  16.042  0.4974 -0.6413 -0.1129
  446TIP3    H225534   7.392   2.152  16.064  0.4721 -0.4750  0.8288
  447TIP3   OH225535   7.290   2.200  17.426 -0.0465  0.3396 -0.2026
  447TIP3    H125536   7.261   2.290  17.442 -0.9758  0.1609 -0.8237
  447TIP3    H225537   7.210   2.151  17.410  0.3147 -0.9645  1.7167
  448TIP3   OH225538   1.534   8.240  15.802 -0.0328  0.1171  0.0713
  448TIP3    H125539   1.612   8.246  15.748  1.1072 -0.9426  1.5079
  448TIP3    H225540   1.474   8.306  15.766  1.8546  1.6107 -0.5094
  449TIP3   OH225541   6.968   0.661  16.951 -0.2344  0.6436 -0.5221
  449TIP3    H125542   7.046   0.617  16.986 -0.8650 -0.1185 -0.0567
  449TIP3    H225543   6.935   0.713  17.024 -0.4539  0.5649 -0.5655
  450TIP3   OH225544   2.148   3.086  15.611  0.3671  0.1326 -0.0615
  450TIP3    H125545   2.092   3.158  15.640  2.3154  1.6818  0.0798
  450TIP3    H225546   2.134   3.016  15.675 -1.2107  0.5339  0.0708
  451TIP3   OH225547   7.735   1.158  17.242  0.1914 -0.2530 -0.0201
  451TIP3    H125548   7.815   1.205  17.219  0.4255 -0.9557 -0.7031
  451TIP3    H225549   7.665   1.223  17.233  0.3963 -0.2157 -1.7836
  452TIP3   OH225550   5.830   7.194  17.597 -0.3149  0.4602  0.8613
  452TIP3    H125551   5.876   7.213  17.515  0.0969  0.9303  1.1935
  452TIP3    H225552   5.776   7.117  17.577 -1.0548  1.2092 -0.1672
  453TIP3   OH225553   5.536   2.325  16.890  0.1733 -0.0971 -0.3495
  453TIP3    H125554   5.573   2.303  16.805 -1.9435 -1.0087 -1.0970
  453TIP3    H225555   5.553   2.249  16.945  0.2281 -0.1222 -0.4016
  454TIP3   OH225556   5.611   6.712  16.785 -0.2586  0.2751 -0.3700
  454TIP3    H125557   5.636   6.724  16.693  1.0698 -0.0426 -0.0746
  454TIP3    H225558   5.693   6.726  16.833 -0.2519 -2.4843  0.5516
  455TIP3   OH225559   8.365   0.251  17.237 -0.5807 -0.1261  0.4782
  455TIP3    H125560   8.316   0.170  17.230  1.8965 -1.5940 -1.3986
  455TIP3    H225561   8.370   0.268  17.332 -3.1261 -0.7802  0.8028
  456TIP3   OH225562   5.561   8.401  17.636  0.1515 -0.1412  0.0833
  456TIP3    H125563   5.543   8.443  17.719 -2.2735 -1.9476  0.5824
  456TIP3    H225564   5.628   8.335  17.657  0.1260 -0.0667  0.4087
  457TIP3   OH225565   8.097   8.031  17.279  0.1712  0.2446 -0.0388
  457TIP3    H125566   8.046   7.984  17.344  0.2615 -0.1526 -0.2460
  457TIP3    H225567   8.180   8.050  17.323  0.3208 -0.2270 -0.1069
  458TIP3   OH225568   5.705   6.951  17.505 -0.6214  0.0338  0.3494
  458TIP3    H125569   5.641   6.898  17.459 -2.3407  1.7178  0.6553
  458TIP3    H225570   5.769   6.888  17.538 -1.8352 -1.6822 -0.3945
  459TIP3   OH225571   2.678   4.702  17.241 -0.0134 -0.3551  0.3189
  459TIP3    H125572   2.597   4.752  17.253  0.9223  1.3453 -0.1255
  459TIP3    H225573   2.667   4.626  17.298 -1.3136  0.5845  1.4088
  460TIP3   OH225574   5.980   6.372  17.297 -0.1952 -0.1517 -0.0681
  460TIP3    H125575   5.912   6.402  17.237 -1.6214 -0.0987  1.5128
  460TIP3    H225576   6.059   6.369  17.243 -1.2945  0.4026 -1.8043
  461TIP3   OH225577   6.662   8.245  16.165 -0.5640 -0.2523 -0.5379
  461TIP3    H125578   6.586   8.190  16.185  0.4111 -0.4033  3.5298
  461TIP3    H225579   6.630   8.335  16.170 -0.7492 -0.3355 -0.2506
  462TIP3   OH225580   6.205   6.342  17.698 -0.6126  0.5290 -0.1495
  462TIP3    H125581   6.128   6.312  17.651 -0.0879 -1.1734  0.0032
  462TIP3    H225582   6.277   6.335  17.635 -0.0157 -1.1725  0.6571
  463TIP3   OH225583   0.486   1.648  17.264 -0.3160  0.0576 -0.1413
  463TIP3    H125584   0.558   1.624  17.205  0.6485  2.1966  0.0662
  463TIP3    H225585   0.416   1.677  17.205 -0.8170 -1.4445 -0.3220
  464TIP3   OH225586   2.611   5.944  17.682  0.4429 -0.5859  0.4246
  464TIP3    H125587   2.539   5.893  17.645  0.2750 -1.3819  1.7902
  464TIP3    H225588   2.639   5.894  17.758  1.5793  0.3886  0.6714
  465TIP3   OH225589   3.789   2.909  17.717 -0.1021  0.4721  0.3890
  465TIP3    H125590   3.728   2.923  17.644 -1.1307 -1.2101  0.8792
  465TIP3    H225591   3.854   2.979  17.707  0.7291 -0.5751 -3.0969
  466TIP3   OH225592   8.108   3.734  16.725 -0.8146 -0.1129 -0.0234
  466TIP3    H125593   8.158   3.727  16.644 -2.4777 -1.6009 -0.9982
  466TIP3    H225594   8.160   3.689  16.791 -1.2186 -2.5251 -1.2329
  467TIP3   OH225595   3.132   2.149  17.141  0.4937  0.1667 -0.0280
  467TIP3    H125596   3.120   2.138  17.046  1.3075 -1.2213 -0.0129
  467TIP3    H225597   3.091   2.233  17.161  0.5927  0.6524 -1.6656
  468TIP3   OH225598   2.146   1.909  16.309 -0.4481 -0.3278 -0.7612
  468TIP3    H125599   2.110   1.867  16.387  2.8465  0.9990  1.7062
  468TIP3    H225600   2.221   1.854  16.285 -0.3434  0.2919 -1.9294
  469TIP3   OH225601   1.982   0.510  17.049  0.2096 -0.5237  0.9621
  469TIP3    H125602   2.022   0.440  17.100  0.4937 -1.4202 -0.4568
  469TIP3    H225603   1.896   0.476  17.024  0.1152 -0.1283  0.7335
  470TIP3   OH225604   5.548   3.818  16.191  0.2103  0.7638 -0.3364
  470TIP3    H125605   5.602   3.752  16.148  0.2516  0.9540 -0.5769
  470TIP3    H225606   5.481   3.841  16.127 -1.9294 -1.4925  0.8838
  471TIP3   OH225607   7.398   3.278  17.230  0.0044 -0.3074 -0.3049
  471TIP3    H125608   7.409   3.334  17.154  1.6017  1.0290  0.8393
  471TIP3    H225609   7.487   3.247  17.250  0.0415  1.0939  2.2097
  472TIP3   OH225610   1.089   7.385  16.127 -0.0780  0.0810 -0.0617
  472TIP3    H125611   1.016   7.329  16.101  0.2491  0.2055 -1.2987
  472TIP3    H225612   1.050   7.472  16.138 -0.0298  0.2613 -1.2609
  473TIP3   OH225613   6.956   6.246  17.884  0.2623  0.6731 -0.2578
  473TIP3    H125614   7.046   6.241  17.852 -0.6190 -0.2938 -2.8352
  473TIP3    H225615   6.935   6.157  17.913  0.1236  0.8946  0.3476
  474TIP3   OH225616   7.884   5.152  17.286 -0.1072  0.1701  0.4942
  474TIP3    H125617   7.802   5.143  17.238 -0.7539  0.2521  1.5578
  474TIP3    H225618   7.951   5.129  17.222 -1.0532 -1.7204  0.1101
  475TIP3   OH225619   2.659   1.661  16.956 -0.0264 -0.2916  0.3026
  475TIP3    H125620   2.712   1.654  16.877 -1.3760  1.2497 -0.8162
  475TIP3    H225621   2.677   1.749  16.990 -0.5322 -0.4074  0.8977
  476TIP3   OH225622   0.297   1.701  17.054  0.1950  0.1391 -0.2386
  476TIP3    H125623   0.309   1.669  16.964  0.8274  2.2754 -0.9630
  476TIP3    H225624   0.270   1.792  17.044  0.2933  0.4236  1.7461
  477TIP3   OH225625   1.808   6.325  17.411  0.1247 -0.2833 -0.2729
  477TIP3    H125626   1.844   6.340  17.324 -0.2916  1.9511 -0.1413
  477TIP3    H225627   1.768   6.409  17.434 -1.9176 -1.5546  1.0858
  478TIP3   OH225628   0.700   2.290  17.792  0.1482  0.4108 -0.6850
  478TIP3    H125629   0.627   2.231  17.813  1.0510 -0.6019 -0.2774
  478TIP3    H225630   0.758   2.237  17.738  0.5611  1.2237 -1.0443
  479TIP3   OH225631   4.445   0.132  17.816  0.3085  0.2750 -0.5294
  479TIP3    H125632   4.430   0.152  17.724 -0.6898 -1.7809 -0.8626
  479TIP3    H225633   4.370   0.079  17.842  1.2268 -0.3068  1.0998
  480TIP3   OH225634   1.652   4.191  17.605  0.1659  0.4750 -0.5459
  480TIP3    H125635   1.584   4.231  17.551  0.2067  0.3278 -0.7044
  480TIP3    H225636   1.637   4.097  17.598  1.3585  0.3488 -1.8869
  481TIP3   OH225637   0.389   1.127  17.306  0.1405  0.4719  0.1921
  481TIP3    H125638   0.345   1.205  17.272 -0.3838 -0.0889 -0.4616
  481TIP3    H225639   0.427   1.155  17.389 -2.2515  0.7681  1.2883
  482TIP3   OH225640   5.055   2.037  15.449  0.4252 -0.2057  0.1459
  482TIP3    H125641   5.037   2.008  15.360 -0.1735 -0.3791  0.3170
  482TIP3    H225642   5.073   1.956  15.497 -0.3299 -0.2238  0.4190
  483TIP3   OH225643   1.743   1.388  16.279 -0.2530 -0.6217 -0.6964
  483TIP3    H125644   1.830   1.372  16.314  0.3738  2.8941 -0.2428
  483TIP3    H225645   1.685   1.337  16.336  1.1637  1.0078  2.5188
  484TIP3   OH225646   0.944   3.450  17.475  0.2639  0.3003 -0.7531
  484TIP3    H125647   0.886   3.526  17.477 -0.2365 -0.0936 -0.0572
  484TIP3    H225648   1.032   3.488  17.472 -0.0113  0.9004 -1.6907
  485TIP3   OH225649   1.910   8.376  17.117  0.0711 -0.2707  0.0567
  485TIP3    H125650   1.887   8.290  17.084  0.7066 -1.0388  1.5245
  485TIP3    H225651   1.998   8.392  17.083  0.2696 -0.5530  0.4380
  486TIP3   OH225652   1.686   6.087  17.334 -0.4496 -0.0917  0.2769
  486TIP3    H125653   1.724   6.173  17.350 -2.4545  0.9009  0.0017
  486TIP3    H225654   1.735   6.054  17.258  0.2308  0.8591  0.2700
  487TIP3   OH225655   4.254   5.645  17.265 -0.0293 -0.0316  0.0035
  487TIP3    H125656   4.237   5.585  17.338 -1.1206 -0.5237 -0.6343
  487TIP3    H225657   4.195   5.719  17.281  1.4853  1.0501  0.9207
  488TIP3   OH225658   4.532   1.908  17.066 -0.1411  0.8185 -0.5218
  488TIP3    H125659   4.540   1.813  17.058  0.2125  0.6773  1.1192
  488TIP3    H225660   4.442   1.923  17.094  0.8842  0.5327  3.5511
  489TIP3   OH225661   2.714   7.685  16.513  0.4294  0.2030 -0.3211
  489TIP3    H125662   2.765   7.680  16.595  2.1675  1.7213 -1.2219
  489TIP3    H225663   2.667   7.768  16.520 -1.5725 -0.9284  0.2466
  490TIP3   OH225664   5.236   7.036  17.155 -0.3592  0.2115 -0.3146
  490TIP3    H125665   5.303   7.091  17.114  0.7814 -0.6290  0.3466
  490TIP3    H225666   5.175   7.099  17.194  1.2378  1.0691  0.9458
  491TIP3   OH225667   7.342   7.481  16.242  0.1616 -0.5594  0.4126
  491TIP3    H125668   7.265   7.443  16.200 -0.1195  0.1431  0.2766
  491TIP3    H225669   7.325   7.575  16.241  1.3544 -0.3346 -0.2945
  492TIP3   OH225670   2.320   6.512  15.570  0.3725  0.1486 -0.6335
  492TIP3    H125671   2.386   6.572  15.535  1.1180 -0.5321 -0.4196
  492TIP3    H225672   2.237   6.545  15.535  0.9424  0.3312 -1.8727
  493TIP3   OH225673   4.634   1.732  15.909  0.5804  0.1081 -0.4864
  493TIP3    H125674   4.621   1.761  15.819  0.3633  1.5394 -0.0281
  493TIP3    H225675   4.638   1.637  15.904  1.3069  0.2032 -2.0851
  494TIP3   OH225676   7.928   0.569  17.050  0.5913 -0.3596  0.0964
  494TIP3    H125677   7.880   0.554  16.969  0.2338 -0.1864  0.2695
  494TIP3    H225678   8.020   0.556  17.027  0.5854  0.6260 -0.5649
  495TIP3   OH225679   1.437   5.035  18.010 -0.4813 -0.4822 -0.4403
  495TIP3    H125680   1.418   5.104  17.946 -0.3409  0.0327  0.0623
  495TIP3    H225681   1.366   5.041  18.074 -0.3867 -0.6984 -0.3161
  496TIP3   OH225682   2.823   7.115  15.684 -0.1416  0.0225 -0.0704
  496TIP3    H125683   2.754   7.181  15.699  0.3437  0.8223 -1.1837
  496TIP3    H225684   2.780   7.048  15.631 -0.7650 -0.8201  1.4515
  497TIP3   OH225685   4.108   4.526  16.796 -0.2606 -0.2737  0.5775
  497TIP3    H125686   4.155   4.478  16.864  0.4230  2.3221  2.0862
  497TIP3    H225687   4.164   4.519  16.719  0.7441 -0.3396  1.2920
  498TIP3   OH225688   5.296   4.849  16.028 -0.2231  0.1738 -0.0710
  498TIP3    H125689   5.217   4.890  15.993 -0.2114 -0.0951 -0.4164
  498TIP3    H225690   5.264   4.777  16.082 -0.3162  1.5461  1.8144
  499TIP3   OH225691   7.502   4.147  17.204 -0.5943  0.0376  0.2207
  499TIP3    H125692   7.436   4.205  17.242  0.7755  0.7640  1.5905
  499TIP3    H225693   7.460   4.111  17.126 -2.8412 -0.0576  1.4065
  500TIP3   OH225694   0.995   2.408  17.112  0.0131 -0.0886 -0.2434
  500TIP3    H125695   1.071   2.411  17.054 -1.5719  0.1567 -2.4080
  500TIP3    H225696   0.990   2.497  17.148  0.0949  0.2238 -0.9814
  501TIP3   OH225697   0.921   6.424  17.477 -0.1767 -0.3031 -0.4156
  501TIP3    H125698   0.912   6.479  17.400 -1.4658  0.9919  0.6047
  501TIP3    H225699   0.931   6.486  17.550 -0.2429 -1.4549  0.6126
  502TIP3   OH225700   3.877   6.739  16.341  0.3776 -0.5835 -0.5854
  502TIP3    H125701   3.822   6.810  16.376  0.4846 -0.4448 -0.6971
  502TIP3    H225702   3.952   6.784  16.302  1.0094 -0.8232  0.3372
  503TIP3   OH225703   6.999   2.537  15.868 -0.5554  0.2137  0.1980
  503TIP3    H125704   6.924   2.478  15.857 -1.5294  1.6807 -1.8785
  503TIP3    H225705   7.025   2.558  15.778  0.2407  2.2792  0.8592
  504TIP3   OH225706   6.216   1.445  15.494  0.9060 -0.4512  0.2842
  504TIP3    H125707   6.300   1.450  15.450  0.4770  0.4978 -0.4639
  504TIP3    H225708   6.237   1.439  15.587  1.8109 -1.9018  0.0218
  505TIP3   OH225709   2.750   6.009  15.237  0.1658 -0.2585  0.2619
  505TIP3    H125710   2.665   5.969  15.253 -0.4069  0.2392 -1.3339
  505TIP3    H225711   2.759   6.074  15.307 -0.2059 -1.1305  1.1477
  506TIP3   OH225712   8.411   6.008  17.202 -0.1479 -0.1837 -0.2930
  506TIP3    H125713   8.330   6.054  17.224 -0.4056 -0.4118 -0.7407
  506TIP3    H225714   8.470   6.025  17.276 -0.8382 -0.5902  0.3582
  507TIP3   OH225715   0.129   1.278  15.660 -0.3217  0.4044  0.1194
  507TIP3    H125716   0.087   1.323  15.586  1.6585  0.8171 -0.8315
  507TIP3    H225717   0.065   1.212  15.687 -0.8370 -0.3084 -2.4882
  508TIP3   OH225718   0.784   1.223  15.675  0.0638  0.1568 -0.2075
  508TIP3    H125719   0.878   1.203  15.678 -0.3536 -2.1159 -0.5234
  508TIP3    H225720   0.758   1.202  15.586 -0.7488  0.8656 -0.1496
  509TIP3   OH225721   6.621   6.811  16.345 -0.8578 -0.7118 -0.6214
  509TIP3    H125722   6.533   6.774  16.342 -1.9307  1.5863 -0.1233
  509TIP3    H225723   6.667   6.770  16.272 -1.8664 -3.0266 -0.0275
  510TIP3   OH225724   6.032   8.250  16.116 -0.6010 -0.5442  0.2443
  510TIP3    H125725   6.110   8.204  16.084  2.2064  2.9056  1.3811
  510TIP3    H225726   6.027   8.226  16.209  0.2191  0.4810  0.5781
  511TIP3   OH225727   1.462   0.523  17.347 -0.2931 -0.2256 -0.2762
  511TIP3    H125728   1.427   0.561  17.428 -0.7433  0.3216 -0.7179
  511TIP3    H225729   1.513   0.448  17.376 -2.1913 -1.3440  0.3743
  512TIP3   OH225730   6.691   5.099  17.816  0.0934 -0.4715  0.0558
  512TIP3    H125731   6.786   5.104  17.807  0.2340 -1.3743  0.8864
  512TIP3    H225732   6.659   5.180  17.777  1.0743 -0.9702 -1.9377
  513TIP3   OH225733   3.709   1.159  17.577  0.1997 -0.0404 -0.0056
  513TIP3    H125734   3.770   1.170  17.504  0.1463 -2.9460 -0.6379
  513TIP3    H225735   3.753   1.200  17.652  1.4191  0.7757 -1.1309
  514TIP3   OH225736   3.298   4.590  16.897 -0.2926  0.3535 -0.0109
  514TIP3    H125737   3.386   4.551  16.890  0.5019  2.0493  0.0330
  514TIP3    H225738   3.263   4.556  16.979  1.0424  0.9699  0.8521
  515TIP3   OH225739   7.465   0.164  17.482  0.4270 -0.0688 -0.0569
  515TIP3    H125740   7.405   0.094  17.458 -1.2997  1.7117 -1.2137
  515TIP3    H225741   7.469   0.220  17.404  3.1595  0.2217  0.1847
  516TIP3   OH225742   7.592   4.018  17.845  0.7278  0.2437 -0.1243
  516TIP3    H125743   7.542   4.097  17.867 -0.4052 -0.1425 -1.1660
  516TIP3    H225744   7.530   3.946  17.860  1.0596 -0.2767 -1.1683
  517TIP3   OH225745   0.703   1.911  16.441  0.2381 -0.0964  0.0749
  517TIP3    H125746   0.684   1.899  16.534  0.4411  1.2541  0.3186
  517TIP3    H225747   0.625   1.953  16.405 -0.2142 -1.4447 -0.5927
  518TIP3   OH225748   1.686   7.177  16.376 -0.0646  0.0100 -0.4317
  518TIP3    H125749   1.689   7.122  16.297 -0.5411  0.6535 -0.9077
  518TIP3    H225750   1.644   7.121  16.442 -1.9521  0.2936 -1.3303
  519TIP3   OH225751   4.131   4.914  16.358  0.4707  0.1229 -0.2041
  519TIP3    H125752   4.075   4.862  16.300  1.6328  0.6887 -1.8814
  519TIP3    H225753   4.188   4.963  16.300  0.9556  1.5680  1.4022
  520TIP3   OH225754   0.153   2.953  17.791 -0.1604 -0.4394  0.1417
  520TIP3    H125755   0.136   2.859  17.804 -1.5332 -0.1144  0.9192
  520TIP3    H225756   0.214   2.976  17.861 -2.2195 -0.1452  1.9441
  521TIP3   OH225757   4.203   4.843  17.419  0.6196 -0.1045 -0.0720
  521TIP3    H125758   4.241   4.755  17.413  2.1527  0.5653 -1.0526
  521TIP3    H225759   4.214   4.868  17.510 -1.1309 -1.4312  0.5577
  522TIP3   OH225760   1.178   8.043  16.164 -0.6353  0.0811 -0.4045
  522TIP3    H125761   1.189   8.110  16.097 -0.7984 -0.4438 -0.9762
  522TIP3    H225762   1.188   8.089  16.247 -1.1285  0.8848 -0.7750
  523TIP3   OH225763   6.940   1.375  17.092  0.3260 -0.3691 -0.1171
  523TIP3    H125764   6.929   1.410  17.181  2.4261 -1.3557  0.6009
  523TIP3    H225765   6.851   1.353  17.064 -0.6440  1.9967  0.8329
  524TIP3   OH225766   3.621   2.443  16.797 -0.3680 -0.0831  0.5319
  524TIP3    H125767   3.608   2.463  16.705 -0.9755 -1.0632  0.3838
  524TIP3    H225768   3.541   2.399  16.824  0.4962 -1.4210  1.0487
  525TIP3   OH225769   0.977   2.453  16.443  0.8561  0.1708  0.0344
  525TIP3    H125770   1.053   2.467  16.500  0.7146  0.2800  0.1992
  525TIP3    H225771   0.931   2.537  16.444  0.3607 -0.1006  0.4957
  526TIP3   OH225772   3.120   8.125  17.028 -0.0187  0.4987 -0.2140
  526TIP3    H125773   3.045   8.181  17.046  0.3360  0.7845  0.4157
  526TIP3    H225774   3.163   8.164  16.953 -0.1381  0.6995 -0.1767
  527TIP3   OH225775   6.461   8.126  16.596 -0.2681  0.1224  0.2060
  527TIP3    H125776   6.397   8.099  16.662  1.0855 -0.1998  1.4505
  527TIP3    H225777   6.476   8.047  16.544 -2.1010  0.6392 -1.2243
  528TIP3   OH225778   1.158   1.267  15.780 -0.6974 -0.0855 -0.4809
  528TIP3    H125779   1.118   1.183  15.759 -0.8572  0.2378 -1.5125
  528TIP3    H225780   1.230   1.276  15.718 -0.1847  0.1843  0.1440
  529TIP3   OH225781   0.901   7.300  16.783 -0.4544 -0.3556  0.1030
  529TIP3    H125782   0.933   7.273  16.869  0.9485 -1.1614 -0.6518
  529TIP3    H225783   0.823   7.352  16.803  2.1895  3.3039  2.1831
  530TIP3   OH225784   7.605   3.081  17.050  0.0478 -0.0356  0.1399
  530TIP3    H125785   7.513   3.106  17.061  0.1507  0.3202  0.2141
  530TIP3    H225786   7.649   3.117  17.128  0.0330 -1.3414  0.7685
  531TIP3   OH225787   1.867   6.509  16.768  0.1339  0.0349  0.4789
  531TIP3    H125788   1.830   6.548  16.689  1.3151  0.0975 -0.0636
  531TIP3    H225789   1.846   6.416  16.762 -0.5139  0.1766  0.5215
  532TIP3   OH225790   2.604   1.262  17.549 -0.4206 -0.2854  0.3277
  532TIP3    H125791   2.525   1.212  17.530 -0.2070 -0.1629 -0.9550
  532TIP3    H225792   2.666   1.237  17.481  0.5278 -0.1013  1.1005
  533TIP3   OH225793   7.578   2.260  16.707  0.4697  0.1335  0.1852
  533TIP3    H125794   7.627   2.329  16.661 -0.5265  0.0890 -1.0134
  533TIP3    H225795   7.489   2.269  16.674  0.4109 -2.0682 -0.4215
  534TIP3   OH225796   6.657   7.664  17.097 -0.0918 -0.1504  0.0166
  534TIP3    H125797   6.654   7.622  17.011  1.4658 -1.9084  0.7662
  534TIP3    H225798   6.723   7.733  17.088 -0.8435  0.5159 -0.5221
  535TIP3   OH225799   3.974   6.386  16.225  0.5796 -0.5048  0.1812
  535TIP3    H125800   3.904   6.436  16.183  0.8287 -0.3214 -0.0240
  535TIP3    H225801   3.958   6.397  16.319  0.5513 -0.1487  0.1388
  536TIP3   OH225802   7.596   5.076  17.447 -0.0867 -0.2738  0.0907
  536TIP3    H125803   7.513   5.043  17.481  1.1035 -2.3588  1.2112
  536TIP3    H225804   7.598   5.049  17.355 -0.2854 -0.9629  0.2896
  537TIP3   OH225805   3.321   7.878  17.146 -0.2285  0.2278  0.2778
  537TIP3    H125806   3.371   7.894  17.226  0.7134 -0.2662 -0.1854
  537TIP3    H225807   3.374   7.815  17.097 -2.0182 -1.4827  0.3995
  538TIP3   OH225808   1.894   2.213  16.382  0.0890 -0.3251 -0.0410
  538TIP3    H125809   1.935   2.240  16.299  0.4063  1.6980  0.7133
  538TIP3    H225810   1.802   2.236  16.372  0.2301  0.4414  0.3492
  539TIP3   OH225811   6.699   4.282  17.242  0.1747 -0.1818  0.1210
  539TIP3    H125812   6.720   4.196  17.280 -2.1106  0.4446  3.1627
  539TIP3    H225813   6.764   4.341  17.279 -0.0323 -0.1188  0.3827
  540TIP3   OH225814   0.068   0.845  17.234  0.1814  0.5174 -0.3685
  540TIP3    H125815  -0.006   0.809  17.282  1.5876  0.4502  1.8886
  540TIP3    H225816   0.053   0.939  17.231  0.4347  0.6082  0.9072
  541TIP3   OH225817   6.628   7.655  16.074  0.0735 -0.4862 -0.3426
  541TIP3    H125818   6.561   7.611  16.020 -0.5155 -1.8466  1.4077
  541TIP3    H225819   6.579   7.722  16.121  0.1323 -0.7893  0.1560
  542TIP3   OH225820   7.950   4.416  17.028 -0.8964  0.3306 -0.6400
  542TIP3    H125821   7.949   4.326  17.061 -2.7608 -0.1763 -1.8840
  542TIP3    H225822   8.013   4.414  16.956  0.8429  0.6652  0.8086
  543TIP3   OH225823   6.118   0.269  17.508 -0.3798  0.4616  0.0919
  543TIP3    H125824   6.097   0.333  17.440  1.0122  1.9442  0.9726
  543TIP3    H225825   6.158   0.321  17.578 -0.0073 -1.2728  1.2364
  544TIP3   OH225826   6.068   3.331  17.021  0.0414 -0.5541 -0.2183
  544TIP3    H125827   5.982   3.301  17.049 -0.1688 -0.9736 -1.2508
  544TIP3    H225828   6.125   3.318  17.097 -0.7547 -0.4917  0.3949
  545TIP3   OH225829   6.516   4.859  16.562 -0.0966  0.2685 -0.3367
  545TIP3    H125830   6.443   4.829  16.508  0.5416  0.6099 -1.4130
  545TIP3    H225831   6.557   4.929  16.512  2.0757 -1.0952 -0.6474
  546TIP3   OH225832   5.552   4.749  16.215  0.6261  0.3047  0.1907
  546TIP3    H125833   5.513   4.791  16.138 -1.1900  1.7333  1.7630
  546TIP3    H225834   5.641   4.785  16.220  0.6920  0.3600 -1.0892
  547TIP3   OH225835   0.075   2.782  16.957 -0.2197 -0.1437  0.0464
  547TIP3    H125836   0.138   2.836  17.005 -1.4135  0.2238  1.2402
  547TIP3    H225837   0.092   2.802  16.865 -0.2186  1.8069  0.4433
  548TIP3   OH225838   6.866   0.766  17.194  0.0443  0.0838  0.3990
  548TIP3    H125839   6.838   0.833  17.256 -1.5393 -1.4513  1.4582
  548TIP3    H225840   6.797   0.700  17.198  1.9854 -2.0812  0.1625
  549TIP3   OH225841   1.438   6.027  16.864  0.3505 -0.8795 -0.3050
  549TIP3    H125842   1.456   6.067  16.949 -0.5035 -1.3523  0.1150
  549TIP3    H225843   1.357   6.068  16.836 -0.2714 -1.9448 -0.0956
  550TIP3   OH225844   2.122   6.312  15.834 -0.3420 -0.0484  0.4693
  550TIP3    H125845   2.204   6.294  15.789  0.3328  3.7723 -0.1906
  550TIP3    H225846   2.053   6.287  15.772  0.5134  1.6983 -1.2831
  551TIP3   OH225847   2.744   7.025  17.888  0.8260 -0.8720  0.1819
  551TIP3    H125848   2.715   7.042  17.799  0.0426  0.5216  0.6731
  551TIP3    H225849   2.839   7.018  17.881  0.8685  0.3207 -0.6042
  552TIP3   OH225850   2.875   1.551  15.569 -0.1624  0.2524  0.9667
  552TIP3    H125851   2.883   1.647  15.573  1.3329  0.1545  0.9677
  552TIP3    H225852   2.780   1.535  15.568 -0.4427  1.7216  1.0658
  553TIP3   OH225853   8.408   6.361  16.004 -0.0933  0.2747  0.3797
  553TIP3    H125854   8.352   6.433  15.976 -0.0333  0.9056  1.7931
  553TIP3    H225855   8.466   6.345  15.930 -1.0172  0.7408 -0.4711
  554TIP3   OH225856   4.645   6.743  16.839 -0.1057  0.4007 -0.6220
  554TIP3    H125857   4.725   6.707  16.879  0.4156  0.6356 -1.4341
  554TIP3    H225858   4.575   6.685  16.869  0.3752  0.1340  0.0274
  555TIP3   OH225859   1.446   4.211  17.399 -0.4867 -0.8313  0.0094
  555TIP3    H125860   1.456   4.135  17.342  0.2212 -0.3184 -0.5625
  555TIP3    H225861   1.458   4.287  17.341  0.3529 -0.3029  0.8436
  556TIP3   OH225862   1.079   0.381  17.416 -0.1576  0.0967 -0.2706
  556TIP3    H125863   1.153   0.434  17.446 -0.6249  0.4887  0.2128
  556TIP3    H225864   1.041   0.345  17.497 -0.5643 -0.0043 -0.5052
  557TIP3   OH225865   4.788   4.594  16.538 -0.0577  0.1466  0.2240
  557TIP3    H125866   4.867   4.647  16.552 -0.6125  1.0523  0.0067
  557TIP3    H225867   4.811   4.535  16.466  0.3159  0.6205 -0.0462
  558TIP3   OH225868   6.902   3.786  17.692 -0.3496 -0.6481 -0.0028
  558TIP3    H125869   6.875   3.715  17.634 -1.0057  0.4791 -1.1263
  558TIP3    H225870   6.937   3.742  17.769  1.1735 -2.2368 -1.5080
  559TIP3   OH225871   2.274   0.856  15.483  0.0481  0.1474  0.0773
  559TIP3    H125872   2.247   0.764  15.483  0.8988 -0.1183  0.7325
  559TIP3    H225873   2.201   0.903  15.523  0.0854 -0.4078  0.8081
  560TIP3   OH225874   4.521   3.835  16.791 -1.0761  0.0992 -0.0252
  560TIP3    H125875   4.610   3.829  16.755 -0.6137  0.4104  1.0014
  560TIP3    H225876   4.465   3.853  16.716 -0.2057  0.3611 -0.6229
  561TIP3   OH225877   2.610   3.693  16.292  0.8425  0.3622 -0.1178
  561TIP3    H125878   2.563   3.741  16.361  1.8644  0.8317  0.2629
  561TIP3    H225879   2.557   3.707  16.214 -1.2118 -1.4691  0.8197
  562TIP3   OH225880   4.054   3.106  15.962  0.5173  0.0536 -0.5894
  562TIP3    H125881   4.059   3.180  15.901  1.3342  1.1898  0.7839
  562TIP3    H225882   4.145   3.090  15.987  0.2597 -0.8440 -0.1920
  563TIP3   OH225883   4.823   3.635  17.353 -0.0022  0.3224  0.9962
  563TIP3    H125884   4.892   3.597  17.300  0.4443  0.2258  1.6274
  563TIP3    H225885   4.853   3.622  17.443 -0.6879  0.5754  1.2658
  564TIP3   OH225886   6.048   3.748  16.886 -0.2168 -0.1003  0.3692
  564TIP3    H125887   6.121   3.777  16.832 -0.5093 -0.6868 -0.3580
  564TIP3    H225888   5.971   3.791  16.848 -0.0389  2.3742  2.5098
  565TIP3   OH225889   4.675   7.074  16.817 -0.0823  0.1132  0.3199
  565TIP3    H125890   4.756   7.113  16.848  0.4337 -0.9132  0.3093
  565TIP3    H225891   4.659   7.002  16.878 -0.8054  0.0994  0.1197
  566TIP3   OH225892   4.721   1.301  17.861 -0.0680  0.0999 -0.5726
  566TIP3    H125893   4.772   1.239  17.809 -2.4528 -1.7364 -0.9158
  566TIP3    H225894   4.712   1.257  17.946 -0.0047  0.9899 -0.1012
  567TIP3   OH225895   4.670   0.288  16.591  0.1538 -0.5092  0.1336
  567TIP3    H125896   4.665   0.274  16.497  1.1849  2.2659 -0.4160
  567TIP3    H225897   4.589   0.333  16.614  0.5879  0.1939  0.2938
  568TIP3   OH225898   5.642   3.509  16.747 -0.5744  0.7793 -0.3367
  568TIP3    H125899   5.687   3.531  16.828  0.5444  0.5642 -0.8787
  568TIP3    H225900   5.613   3.593  16.711 -1.1821  0.8642  0.3364
  569TIP3   OH225901   6.703   8.228  16.638 -0.6641 -0.4857  0.0076
  569TIP3    H125902   6.757   8.150  16.626 -0.1593 -0.2355  0.6150
  569TIP3    H225903   6.613   8.197  16.626 -0.5288 -1.3528  1.1674
  570TIP3   OH225904   1.273   4.941  15.517  0.2263 -0.1701 -0.5940
  570TIP3    H125905   1.184   4.923  15.486 -0.5438 -0.8910  1.7860
  570TIP3    H225906   1.261   4.975  15.606  2.3421 -2.0254  0.5144
  571TIP3   OH225907   4.301   3.279  17.345  0.5078  0.4382 -0.3517
  571TIP3    H125908   4.394   3.264  17.359  0.2825 -0.0511  0.6957
  571TIP3    H225909   4.259   3.195  17.366 -0.0087 -0.0137 -2.8404
  572TIP3   OH225910   7.944   5.764  17.956  0.0440 -0.7092  0.2397
  572TIP3    H125911   8.030   5.806  17.949  1.0948 -2.6700  0.6549
  572TIP3    H225912   7.930   5.751  18.049  0.2560 -2.2021  0.0912
  573TIP3   OH225913   4.794   2.979  17.027 -0.3812  0.1598  0.0019
  573TIP3    H125914   4.770   2.895  16.989 -1.0640 -1.6922  4.0024
  573TIP3    H225915   4.710   3.017  17.054  0.0561  1.3880 -0.3131
  574TIP3   OH225916   7.509   8.022  16.500 -0.7355  0.1911 -0.6346
  574TIP3    H125917   7.599   8.053  16.498 -0.3699 -0.8256 -0.4353
  574TIP3    H225918   7.460   8.092  16.543  0.4179 -0.3195  1.7160
  575TIP3   OH225919   2.003   4.317  15.934 -0.6355 -0.4835  0.8120
  575TIP3    H125920   2.058   4.370  15.876 -1.1108 -0.2026  0.6060
  575TIP3    H225921   1.914   4.332  15.902 -0.9284 -0.1782  1.7274
  576TIP3   OH225922   8.198   8.270  16.036  0.1426  0.7657 -0.2809
  576TIP3    H125923   8.206   8.360  16.006 -2.4658  0.9046 -0.7713
  576TIP3    H225924   8.161   8.277  16.124 -2.4917  0.2394 -1.2453
  577TIP3   OH225925   1.844   2.618  17.067 -0.1438  0.2895 -0.0230
  577TIP3    H125926   1.891   2.697  17.040  2.1357 -1.3707 -1.3227
  577TIP3    H225927   1.884   2.594  17.151  0.1402 -0.2188 -0.3027
  578TIP3   OH225928   5.667   1.728  17.794 -0.1488 -0.1789  0.1574
  578TIP3    H125929   5.685   1.679  17.714 -1.0619 -0.8423  0.3496
  578TIP3    H225930   5.591   1.685  17.832  0.1086  0.3007  1.2460
  579TIP3   OH225931   5.022   1.173  17.112 -0.3240  0.3088  0.3129
  579TIP3    H125932   5.062   1.086  17.124 -1.6100 -0.3209  0.1693
  579TIP3    H225933   5.095   1.234  17.123  0.2837 -0.6812  2.3284
  580TIP3   OH225934   4.080   2.086  17.978 -0.1797 -0.5087  0.2777
  580TIP3    H125935   4.156   2.089  18.035 -0.5386  0.5564  0.7392
  580TIP3    H225936   4.097   2.153  17.911  0.7041 -2.4247 -1.5456
  581TIP3   OH225937   4.541   7.043  16.380 -0.4304 -0.1439  0.1048
  581TIP3    H125938   4.521   6.973  16.443  3.0484  0.7629  2.5388
  581TIP3    H225939   4.612   7.007  16.326  0.6828  1.0395  0.7064
  582TIP3   OH225940   1.824   8.086  16.683  0.2841 -0.6294  0.0696
  582TIP3    H125941   1.905   8.130  16.657  1.4373 -1.5027  1.9784
  582TIP3    H225942   1.814   8.014  16.621  1.0028 -0.5246 -0.1760
  583TIP3   OH225943   1.957   3.788  16.534  0.0627 -0.4549  0.2701
  583TIP3    H125944   1.892   3.735  16.580  2.3237 -2.7504  1.0691
  583TIP3    H225945   2.027   3.726  16.511  1.7563  1.7590 -0.9792
  584TIP3   OH225946   0.065   3.219  16.568  0.1159 -0.8467  0.4878
  584TIP3    H125947   0.149   3.212  16.614 -0.5463  0.0384  1.8994
  584TIP3    H225948   0.087   3.210  16.475  2.0381  1.3160  0.6540
  585TIP3   OH225949   7.279   2.036  16.124  0.6635 -0.1116 -0.0120
  585TIP3    H125950   7.258   1.990  16.206  0.8695  0.7410  0.5349
  585TIP3    H225951   7.204   2.018  16.067  0.1060 -0.0152  0.6667
  586TIP3   OH225952   4.159   5.821  16.957  0.4607 -0.2459  0.7247
  586TIP3    H125953   4.244   5.790  16.925  1.0878 -0.1003  2.1525
  586TIP3    H225954   4.148   5.778  17.042  0.0603  1.2664  1.4795
  587TIP3   OH225955   3.535   7.217  16.786  0.2163  0.0361  0.8051
  587TIP3    H125956   3.526   7.179  16.874  0.6032 -0.2177  0.7426
  587TIP3    H225957   3.624   7.193  16.760  0.2324  0.4335  0.4951
  588TIP3   OH225958   1.311   3.029  18.102 -0.4341 -0.0706  0.0568
  588TIP3    H125959   1.343   3.056  18.016 -0.9149 -0.5320 -0.2707
  588TIP3    H225960   1.216   3.037  18.096 -0.4513  0.2888  0.6815
  589TIP3   OH225961   4.127   6.531  15.687  0.2442 -0.0233 -0.6627
  589TIP3    H125962   4.111   6.604  15.627  1.8131  0.5713 -0.4149
  589TIP3    H225963   4.054   6.534  15.749  0.7831  2.0233 -0.0464
  590TIP3   OH225964   8.003   5.187  17.639  0.1392 -0.1255  0.2310
  590TIP3    H125965   8.010   5.124  17.566  0.2476  0.7099 -0.4911
  590TIP3    H225966   7.944   5.144  17.701  0.4524 -1.0796 -0.1108
  591TIP3   OH225967   4.662   0.407  15.808 -0.0298  0.0298  0.0732
  591TIP3    H125968   4.693   0.332  15.757  2.7479 -0.1309  1.8050
  591TIP3    H225969   4.713   0.481  15.775 -2.1810  1.1105 -1.0754
  592TIP3   OH225970   7.879   7.284  16.197 -0.0263  0.1220 -0.1569
  592TIP3    H125971   7.946   7.303  16.263  0.2362 -0.7448 -0.1687
  592TIP3    H225972   7.888   7.191  16.179 -1.7224 -0.1749  0.3644
  593TIP3   OH225973   6.397   6.555  17.512 -0.1461 -0.4186  0.5318
  593TIP3    H125974   6.357   6.486  17.460  0.9142 -0.3253 -0.4550
  593TIP3    H225975   6.387   6.634  17.459 -0.6624  0.0347  1.2982
  594TIP3   OH225976   2.551   0.834  15.515 -0.2601  0.4687 -0.4723
  594TIP3    H125977   2.598   0.914  15.493  0.0304  0.3033 -0.4543
  594TIP3    H225978   2.481   0.829  15.449  0.8698 -0.2462 -1.6513
  595TIP3   OH225979   6.277   2.350  17.340  0.1890 -0.3907 -0.0598
  595TIP3    H125980   6.253   2.280  17.280 -0.8106 -0.0422 -0.0783
  595TIP3    H225981   6.234   2.428  17.305  0.3628  0.0075  0.5840
  596TIP3   OH225982   0.647   7.367  16.837  0.3224  0.6744  0.4602
  596TIP3    H125983   0.637   7.392  16.929 -2.4322 -0.3149  0.5179
  596TIP3    H225984   0.630   7.273  16.836  1.9437  0.3563 -0.8804
  597TIP3   OH225985   5.010   2.402  16.651  0.0062  0.4109  0.0153
  597TIP3    H125986   4.964   2.484  16.670 -0.0247  0.4104 -0.0571
  597TIP3    H225987   5.103   2.425  16.660  0.0369  0.6652 -0.8065
  598TIP3   OH225988   4.328   7.907  17.215 -0.3049  0.1712 -0.8396
  598TIP3    H125989   4.421   7.895  17.235 -0.4181  0.1887 -0.2624
  598TIP3    H225990   4.288   7.823  17.235 -0.5585  0.4478 -0.1221
  599TIP3   OH225991   0.381   5.257  17.001 -0.2142  0.4553  0.2077
  599TIP3    H125992   0.406   5.316  16.929 -1.5054  0.4059 -0.3036
  599TIP3    H225993   0.288   5.241  16.988 -0.4343  0.2834  1.8021
  600TIP3   OH225994   3.627   0.025  15.584 -0.1828  0.3289 -0.3139
  600TIP3    H125995   3.675  -0.004  15.507 -0.2618 -1.0669  0.1327
  600TIP3    H225996   3.535   0.020  15.559 -0.2661 -1.2407  0.2015
  601TIP3   OH225997   7.668   7.182  17.845  0.0894  0.3259  0.2931
  601TIP3    H125998   7.700   7.269  17.825 -1.4026  0.7627 -0.3012
  601TIP3    H225999   7.602   7.195  17.913 -0.8619 -0.2048 -0.4981
  602TIP3   OH226000   3.761   7.908  15.810 -0.6575  0.2264 -0.3381
  602TIP3    H126001   3.733   7.848  15.880 -1.6660  1.0256 -0.0356
  602TIP3    H226002   3.681   7.925  15.760 -1.1681  3.6896  1.3870
  603TIP3   OH226003   7.936   7.820  16.827  0.9366  0.7270 -0.0497
  603TIP3    H126004   7.953   7.730  16.853  1.4888  0.6876 -0.5288
  603TIP3    H226005   7.951   7.871  16.907 -1.2600  0.2271  0.7529
  604TIP3   OH226006   1.416   7.403  17.188 -0.1038 -0.0644 -0.2714
  604TIP3    H126007   1.360   7.461  17.137  1.4867  0.8988 -1.0067
  604TIP3    H226008   1.417   7.441  17.276  1.2292  1.2986 -0.8410
  605TIP3   OH226009   6.333   0.678  16.356 -0.5538 -0.0158 -0.4065
  605TIP3    H126010   6.286   0.692  16.274 -0.5371  0.4628 -0.3355
  605TIP3    H226011   6.292   0.738  16.419  0.2838  0.5645 -0.3976
  606TIP3   OH226012   0.358   8.179  15.712  0.3277 -0.1690  0.2026
  606TIP3    H126013   0.401   8.173  15.626 -0.1397  0.7170 -0.1076
  606TIP3    H226014   0.373   8.094  15.752  0.9791 -0.4285 -0.5608
  607TIP3   OH226015   6.932   0.190  17.496 -0.2570 -0.3491 -0.0426
  607TIP3    H126016   6.963   0.124  17.557 -0.2024  0.4399  0.7956
  607TIP3    H226017   6.880   0.250  17.549 -1.0193 -0.1861 -0.9461
  608TIP3   OH226018   3.301   7.504  17.597  0.2639 -0.4356 -0.3607
  608TIP3    H126019   3.246   7.425  17.600 -0.9904  0.4198 -0.1332
  608TIP3    H226020   3.302   7.530  17.505 -0.2616 -0.0951 -0.2767
  609TIP3   OH226021   2.439   3.731  17.900  0.0417  0.2899 -0.4875
  609TIP3    H126022   2.452   3.637  17.888 -1.9510 -0.0977  0.0320
  609TIP3    H226023   2.397   3.760  17.819  2.1819  1.1248 -1.3676
  610TIP3   OH226024   8.093   4.460  17.379  0.0321 -0.6437 -0.3005
  610TIP3    H126025   8.081   4.414  17.462  2.2164 -1.8815 -0.5829
  610TIP3    H226026   8.078   4.393  17.312 -0.2672 -0.0241 -0.8632
  611TIP3   OH226027   6.441   5.483  17.085 -0.0315  0.1959  0.2249
  611TIP3    H126028   6.383   5.554  17.112  0.6661  1.6299 -1.7674
  611TIP3    H226029   6.529   5.519  17.097  0.3559 -0.6867  0.0960
  612TIP3   OH226030   2.716   6.577  17.597 -0.3629  0.0726 -0.1402
  612TIP3    H126031   2.713   6.503  17.658  1.6226  0.7596  0.8852
  612TIP3    H226032   2.700   6.654  17.652 -0.3881  0.5684 -0.8304
  613TIP3   OH226033   5.287   1.480  16.239 -0.8799  0.4098 -0.1062
  613TIP3    H126034   5.267   1.392  16.207 -0.8274  0.2660  0.2553
  613TIP3    H226035   5.239   1.539  16.180  2.2777  0.3715 -3.0068
  614TIP3   OH226036   6.157   6.089  17.994 -0.1682 -0.2003  0.3129
  614TIP3    H126037   6.131   6.181  17.984  0.1765 -0.1130  0.2032
  614TIP3    H226038   6.252   6.089  17.979 -0.4649 -0.8808 -1.8901
  615TIP3   OH226039   1.019   6.048  16.974  0.1646 -0.1814  0.3165
  615TIP3    H126040   0.925   6.044  16.992 -0.1213  2.1982 -0.2489
  615TIP3    H226041   1.050   6.121  17.028  1.4592 -0.1828 -0.3949
  616TIP3   OH226042   8.325   0.180  16.809 -0.0350 -0.1702 -0.0996
  616TIP3    H126043   8.313   0.121  16.883  0.8538  0.3045  0.4397
  616TIP3    H226044   8.365   0.258  16.847 -1.1700  0.7906 -0.7986
  617TIP3   OH226045   5.368   1.670  17.819  0.0783  0.0801 -0.6796
  617TIP3    H126046   5.387   1.580  17.845 -1.9881 -0.2412 -0.0603
  617TIP3    H226047   5.272   1.674  17.817  0.1225  2.3052 -0.5669
  618TIP3   OH226048   3.849   3.363  16.669  0.3400  0.2250  0.3229
  618TIP3    H126049   3.854   3.304  16.745 -1.2746 -0.9693 -0.4301
  618TIP3    H226050   3.883   3.311  16.596  1.3632  1.1695  0.1031
  619TIP3   OH226051   4.081   8.308  16.474 -0.8541  0.3581 -0.3722
  619TIP3    H126052   3.985   8.304  16.467 -0.7532 -1.1373 -1.4927
  619TIP3    H226053   4.108   8.361  16.399 -0.7838  0.5107 -0.2394
  620TIP3   OH226054   7.936   1.927  16.802  0.5355  0.0554  0.1284
  620TIP3    H126055   8.001   1.901  16.737  0.7215 -0.3594  0.4727
  620TIP3    H226056   7.984   1.981  16.865  0.2591  0.8284 -0.3107
  621TIP3   OH226057   2.067   7.646  17.769 -0.3205 -0.8913 -0.2284
  621TIP3    H126058   2.073   7.582  17.839  0.3060  0.4618  1.0089
  621TIP3    H226059   1.977   7.637  17.736  0.1579 -3.3344 -1.0968
  622TIP3   OH226060   6.125   8.360  16.399 -0.6564  0.0337  0.1168
  622TIP3    H126061   6.130   8.406  16.315  1.8731  0.4863  0.4331
  622TIP3    H226062   6.031   8.353  16.416 -1.2468  3.3172 -0.9188
  623TIP3   OH226063   5.527   6.735  17.349  0.0990 -1.0268  0.2114
  623TIP3    H126064   5.518   6.682  17.428 -0.0628  1.1318  1.7279
  623TIP3    H226065   5.438   6.748  17.318 -0.1574  0.7354  1.5560
  624TIP3   OH226066   0.319   3.345  17.149 -0.3741  0.5118  0.3868
  624TIP3    H126067   0.352   3.257  17.168  3.5156  2.0582  1.5477
  624TIP3    H226068   0.315   3.388  17.235  2.1850  2.7825 -0.5290
  625TIP3   OH226069   3.829   4.440  17.575 -0.2557  0.0912 -0.6506
  625TIP3    H126070   3.806   4.396  17.656 -0.2841  0.2231 -0.5877
  625TIP3    H226071   3.924   4.434  17.570 -0.2826 -0.2763 -0.8115
  626TIP3   OH226072   0.158   4.998  17.385  0.1585 -0.2010  0.0974
  626TIP3    H126073   0.144   5.079  17.337  0.1830 -0.3461 -0.1548
  626TIP3    H226074   0.224   5.020  17.451 -1.8156  0.7535  1.9004
  627TIP3   OH226075   5.044   4.676  17.201 -0.5040 -0.0258 -0.4690
  627TIP3    H126076   5.084   4.739  17.141  0.7199 -0.7476 -0.4368
  627TIP3    H226077   4.956   4.711  17.216  0.4033  2.1294  0.2115
  628TIP3   OH226078   1.673   5.033  18.155 -0.1128 -0.3196  0.7215
  628TIP3    H126079   1.686   4.938  18.146 -2.5311 -0.6351 -0.3690
  628TIP3    H226080   1.586   5.048  18.117  1.1223  2.6804 -1.3025
  629TIP3   OH226081   6.396   4.661  16.754 -0.1138  0.0273  0.6659
  629TIP3    H126082   6.436   4.575  16.744  1.7636  0.5372  2.8580
  629TIP3    H226083   6.454   4.720  16.706  0.6266  0.4775  2.0429
  630TIP3   OH226084   4.584   2.947  17.653  0.1659  0.1662  0.6833
  630TIP3    H126085   4.537   2.918  17.731  0.9724 -3.0611  0.1171
  630TIP3    H226086   4.676   2.946  17.679  0.2856  1.7361  0.4108
  631TIP3   OH226087   0.018   1.932  17.181 -0.0305  0.0317 -0.3027
  631TIP3    H126088   0.057   1.924  17.094  0.1840  0.6114 -0.2622
  631TIP3    H226089  -0.018   2.020  17.183 -0.7798 -0.2760 -0.1068
  632TIP3   OH226090   3.804   0.275  16.972  0.3932  0.0626  0.3967
  632TIP3    H126091   3.844   0.348  17.020  0.8327  0.8344 -1.0732
  632TIP3    H226092   3.836   0.285  16.882 -0.7957 -1.0399 -0.1838
  633TIP3   OH226093   8.334   5.540  16.948 -0.8948 -0.4045 -0.0763
  633TIP3    H126094   8.362   5.623  16.988 -1.1232 -0.7400  0.8022
  633TIP3    H226095   8.375   5.540  16.862 -1.8508  1.1735 -0.5748
  634TIP3   OH226096   1.001   5.368  18.010 -0.0769  0.7056 -0.4959
  634TIP3    H126097   1.053   5.299  17.968 -1.3499 -0.3879 -0.3185
  634TIP3    H226098   0.928   5.383  17.950 -0.3534  1.1835 -0.0440
  635TIP3   OH226099   6.953   8.110  17.028  0.1152 -0.3476 -0.2268
  635TIP3    H126100   7.016   8.175  17.059 -0.1205  0.0790 -0.6426
  635TIP3    H226101   6.875   8.124  17.082  0.1949 -0.5403 -0.0578
  636TIP3   OH226102   6.972   2.040  16.466 -0.7531 -0.1955  0.2416
  636TIP3    H126103   6.900   2.017  16.524 -0.4151 -2.0802 -0.0077
  636TIP3    H226104   6.975   1.969  16.401  0.3433  0.6387 -0.6852
  637TIP3   OH226105   3.065   5.595  16.381  0.0357  0.1075  0.0845
  637TIP3    H126106   3.065   5.663  16.449  1.5742 -1.2158  1.5063
  637TIP3    H226107   3.060   5.513  16.430  2.4531 -0.9595 -1.2842
  638TIP3   OH226108   5.137   3.331  15.640 -0.2098  0.7464 -0.1413
  638TIP3    H126109   5.106   3.421  15.641 -1.3096  0.3770  1.2131
  638TIP3    H226110   5.178   3.319  15.726 -1.2088 -0.4008  0.1957
  639TIP3   OH226111   5.460   3.120  15.990 -0.3978 -0.5452  0.0570
  639TIP3    H126112   5.508   3.202  15.985  2.1768 -1.9374 -0.0575
  639TIP3    H226113   5.493   3.078  16.070 -0.4026 -2.1553 -0.7460
  640TIP3   OH226114   0.662   6.491  16.765  0.1787  0.5173  0.0462
  640TIP3    H126115   0.676   6.458  16.853  1.2011 -2.1498 -1.0217
  640TIP3    H226116   0.571   6.466  16.744  0.3492  0.0016 -0.0929
  641TIP3   OH226117   1.659   3.886  17.672  0.1855 -0.5900 -0.3659
  641TIP3    H126118   1.573   3.866  17.636 -0.8455 -1.1549  2.2100
  641TIP3    H226119   1.664   3.833  17.752  2.2461  0.7030  0.4220
  642TIP3   OH226120   0.635   2.718  17.381 -0.4692 -0.0147 -0.2792
  642TIP3    H126121   0.682   2.658  17.440  0.5135  0.9123 -0.0853
  642TIP3    H226122   0.559   2.746  17.430 -0.3461 -0.2515  0.0530
  643TIP3   OH226123   4.237   6.263  15.587 -0.0989  0.0572  0.0024
  643TIP3    H126124   4.210   6.350  15.616  1.4052  0.4287  0.3596
  643TIP3    H226125   4.159   6.209  15.601 -0.2161  0.7316  2.5069
  644TIP3   OH226126   7.029   1.633  16.928  0.0527  0.0735 -0.6351
  644TIP3    H126127   6.938   1.631  16.899  0.0013  0.1606 -0.4837
  644TIP3    H226128   7.036   1.558  16.987  0.6321 -1.1938 -2.2447
  645TIP3   OH226129   1.693   1.724  16.088 -0.0057 -0.1093  0.1470
  645TIP3    H126130   1.680   1.744  15.995  0.4950  0.2902  0.1583
  645TIP3    H226131   1.630   1.655  16.106 -0.1343 -0.1683 -0.4830
  646TIP3   OH226132   2.184   6.182  16.707 -0.3250 -0.4906  0.4498
  646TIP3    H126133   2.098   6.148  16.733 -0.0724  0.3016  2.5116
  646TIP3    H226134   2.247   6.119  16.742 -0.0274 -1.3951 -1.5785
  647TIP3   OH226135   1.871   6.313  17.152  0.2585 -0.3753  0.2185
  647TIP3    H126136   1.942   6.283  17.095  0.7514 -2.4022  1.7815
  647TIP3    H226137   1.794   6.317  17.094  1.0049 -1.0819 -0.8773
  648TIP3   OH226138   1.619   7.368  17.493 -0.2283 -0.0670  0.0605
  648TIP3    H126139   1.627   7.420  17.573 -1.7002  0.1537  0.1038
  648TIP3    H226140   1.536   7.397  17.455 -0.3609 -1.3587 -0.6718
  649TIP3   OH226141   1.740   6.917  15.290  0.2617  0.1059 -0.1717
  649TIP3    H126142   1.815   6.865  15.319 -0.6419 -0.6584  0.8962
  649TIP3    H226143   1.752   7.002  15.332  0.9452  0.2836 -0.6909
  650TIP3   OH226144   0.998   4.253  17.456  0.1053  0.4001 -0.2777
  650TIP3    H126145   0.938   4.246  17.529  0.2897 -0.4563 -0.1957
  650TIP3    H226146   1.077   4.207  17.485  0.2727  0.2706 -0.9195
  651TIP3   OH226147   6.601   1.985  17.189  0.0951  0.5897 -0.8280
  651TIP3    H126148   6.536   1.939  17.241 -0.2760 -1.0595 -2.6275
  651TIP3    H226149   6.561   2.071  17.171 -0.3128  0.6867  0.4530
  652TIP3   OH226150   5.877   6.392  17.022  0.6177 -0.4309  0.5890
  652TIP3    H126151   5.932   6.318  16.997  1.0684 -0.0432  0.4198
  652TIP3    H226152   5.928   6.469  16.998 -1.3539  0.0276 -2.7242
  653TIP3   OH226153   8.146   0.504  17.615 -0.1180 -0.3750  0.6469
  653TIP3    H126154   8.092   0.551  17.679 -1.0976  1.6450 -1.5173
  653TIP3    H226155   8.086   0.481  17.545  0.9075 -2.6523  0.4143
  654TIP3   OH226156   5.900   2.041  17.465 -0.2971 -0.0681 -0.2014
  654TIP3    H126157   5.975   2.017  17.411  1.4564  1.6967  1.2743
  654TIP3    H226158   5.901   1.978  17.537  0.1803  0.3185  0.1389
  655TIP3   OH226159   7.227   1.442  17.245 -0.2912  0.7030  0.1155
  655TIP3    H126160   7.226   1.529  17.204 -1.0419  0.5851 -0.1252
  655TIP3    H226161   7.137   1.426  17.272  0.1287  0.6394  1.5626
  656TIP3   OH226162   4.736   0.755  18.126 -0.0406  0.2005 -0.4713
  656TIP3    H126163   4.724   0.661  18.111  2.0956 -0.0090 -1.3164
  656TIP3    H226164   4.762   0.761  18.218  1.0762 -0.2240 -0.7366
  657TIP3   OH226165   7.247   4.444  17.550 -0.0104 -0.1123 -0.2075
  657TIP3    H126166   7.167   4.392  17.546 -0.8054  1.0023  0.7021
  657TIP3    H226167   7.283   4.425  17.637 -0.1121  0.5654 -0.0123
  658TIP3   OH226168   8.290   0.853  16.996  0.1029  0.0571  0.0146
  658TIP3    H126169   8.202   0.892  16.992 -0.1165 -0.0263  2.5988
  658TIP3    H226170   8.288   0.797  17.074  1.8155 -1.6619 -1.0942
  659TIP3   OH226171   5.596   6.119  16.489 -0.8140  0.3765  0.4803
  659TIP3    H126172   5.688   6.095  16.476 -0.4379  1.3528  1.2088
  659TIP3    H226173   5.557   6.112  16.402  0.3826  1.6994 -0.2070
  660TIP3   OH226174   0.411   0.674  15.606 -0.5564 -0.1429  0.4429
  660TIP3    H126175   0.363   0.673  15.689  0.1170  0.3036  0.8433
  660TIP3    H226176   0.474   0.602  15.614 -2.0384 -1.6284 -0.6303
  661TIP3   OH226177   1.067   6.978  15.598 -0.2049 -0.1544  0.1174
  661TIP3    H126178   1.039   7.069  15.592  0.7756  0.1666  0.3187
  661TIP3    H226179   0.986   6.928  15.587 -1.0143  0.7459  1.6050
  662TIP3   OH226180   3.846   2.197  17.810  0.0138 -0.4924  0.5377
  662TIP3    H126181   3.879   2.152  17.887  0.3306  0.4274  0.9485
  662TIP3    H226182   3.758   2.160  17.797  0.2579 -1.2119  0.8648
  663TIP3   OH226183   0.719   4.695  16.669 -1.1825  0.2119  0.0184
  663TIP3    H126184   0.705   4.680  16.762  1.1283  0.8948  0.5304
  663TIP3    H226185   0.778   4.770  16.665  0.1735 -0.8774 -1.9069
  664TIP3   OH226186   4.186   4.175  17.134  0.4325 -0.8420 -0.0010
  664TIP3    H126187   4.138   4.120  17.196 -0.1062  3.2714  3.6739
  664TIP3    H226188   4.275   4.179  17.169  0.7949 -0.3065 -0.9292
  665TIP3   OH226189   4.349   7.625  16.594  0.2016 -0.0459 -0.1766
  665TIP3    H126190   4.262   7.664  16.590  0.7919  1.2745 -0.6404
  665TIP3    H226191   4.360   7.581  16.510  0.0152 -0.1615 -0.1410
  666TIP3   OH226192   4.332   1.110  16.668  0.3274  0.6299  0.3479
  666TIP3    H126193   4.251   1.153  16.639  0.7562  1.3438  0.1998
  666TIP3    H226194   4.400   1.175  16.654  0.8208  0.3117  1.2062
  667TIP3   OH226195   7.970   5.042  16.742  0.3909 -0.2113 -0.4208
  667TIP3    H126196   7.897   5.104  16.748 -0.7472 -1.4135 -1.1370
  667TIP3    H226197   7.934   4.960  16.776  2.4761 -0.0700  2.5421
  668TIP3   OH226198   2.814   5.144  16.002  0.0865  0.2679  0.2755
  668TIP3    H126199   2.813   5.237  15.980  2.3655  0.4669  0.8122
  668TIP3    H226200   2.900   5.129  16.039 -0.7373 -1.7898  1.5077
  669TIP3   OH226201   2.801   8.059  17.495 -0.6110 -0.6237  0.4536
  669TIP3    H126202   2.787   7.967  17.469 -1.3042 -0.1555 -0.9259
  669TIP3    H226203   2.852   8.096  17.423 -1.2615  0.3380  0.4749
  670TIP3   OH226204   3.705   6.511  16.568  0.2410 -0.8179 -0.1620
  670TIP3    H126205   3.703   6.513  16.472  2.0126 -1.0592 -0.2390
  670TIP3    H226206   3.641   6.445  16.592 -0.7984 -0.1945 -1.1397
  671TIP3   OH226207   8.328   6.588  16.251  0.2384 -0.0785 -0.1769
  671TIP3    H126208   8.395   6.524  16.274  1.8350  1.6151  0.1829
  671TIP3    H226209   8.266   6.540  16.197  0.5021 -2.2905  1.3565
  672TIP3   OH226210   7.583   1.569  16.952 -0.4649  0.3819 -0.8219
  672TIP3    H126211   7.507   1.562  16.895  0.6049 -3.0509 -2.0559
  672TIP3    H226212   7.657   1.546  16.897  1.1036  0.7021  1.0407
  673TIP3   OH226213   7.212   2.907  16.975 -0.2434  0.3613  0.2637
  673TIP3    H126214   7.213   2.835  17.038  3.6611  1.1530  1.3892
  673TIP3    H226215   7.186   2.984  17.026 -2.7073  0.1606 -0.5491
  674TIP3   OH226216   4.334   3.526  17.425 -0.1124 -0.7412  0.7469
  674TIP3    H126217   4.426   3.513  17.402 -0.1003  0.3175  0.1404
  674TIP3    H226218   4.289   3.450  17.389  0.5925 -1.5770  1.5721
  675TIP3   OH226219   3.593   3.417  16.640 -0.6194 -0.5708  0.3259
  675TIP3    H126220   3.558   3.345  16.588 -1.7201 -1.0786  1.7071
  675TIP3    H226221   3.687   3.401  16.643 -0.5058 -0.4847 -1.5135
  676TIP3   OH226222   6.075   6.089  16.059  0.4975 -0.6180 -0.1665
  676TIP3    H126223   6.086   6.020  15.993 -1.2620 -1.7649  0.6546
  676TIP3    H226224   6.090   6.044  16.143  0.5665  0.3007  0.3236
  677TIP3   OH226225   1.493   5.281  16.044  0.2867  0.0134  0.7504
  677TIP3    H126226   1.418   5.340  16.044  0.2867  0.0365  1.7309
  677TIP3    H226227   1.467   5.209  16.102 -0.2918 -1.7552 -1.5744
  678TIP3   OH226228   0.824   5.820  17.632 -1.0551  0.3713  0.4062
  678TIP3    H126229   0.857   5.749  17.686  0.7115  1.9738  1.5327
  678TIP3    H226230   0.826   5.785  17.543  0.0058 -0.9158  0.9032
  679TIP3   OH226231   5.269   1.402  15.923  0.0729 -0.2519  0.6959
  679TIP3    H126232   5.177   1.386  15.945  0.1809 -1.9177  0.1105
  679TIP3    H226233   5.307   1.314  15.914  1.2862  0.3891 -0.8505
  680TIP3   OH226234   6.345   5.854  15.683  0.2094  0.1048  0.2177
  680TIP3    H126235   6.405   5.785  15.713 -0.0499 -1.2598 -2.1822
  680TIP3    H226236   6.401   5.917  15.638  0.0405 -0.4057 -0.7224
  681TIP3   OH226237   4.277   7.429  17.101  0.0605  0.3238  0.0330
  681TIP3    H126238   4.351   7.395  17.050 -1.0019 -1.0111 -0.7024
  681TIP3    H226239   4.280   7.380  17.183 -1.2367 -1.3696 -0.8682
  682TIP3   OH226240   1.944   2.878  17.030 -0.2818 -0.2173 -1.1674
  682TIP3    H126241   1.965   2.911  17.117  1.3462 -2.9084 -0.4053
  682TIP3    H226242   2.011   2.915  16.973  0.1582 -0.4150 -0.7810
  683TIP3   OH226243   0.094   5.178  16.129 -0.0331 -0.1949  0.5510
  683TIP3    H126244   0.125   5.161  16.040  0.5077  1.8011  0.3120
  683TIP3    H226245   0.055   5.265  16.124 -0.9651 -0.4978  2.0436
  684TIP3   OH226246   7.045   3.687  17.040 -0.1926 -0.3116 -0.6943
  684TIP3    H126247   7.089   3.669  17.123 -1.1596 -0.4306 -0.1919
  684TIP3    H226248   6.954   3.662  17.055 -0.6818  0.9821 -1.3497
  685TIP3   OH226249   2.747   0.709  17.432  0.3202  0.1367  0.5319
  685TIP3    H126250   2.814   0.766  17.470 -1.1194  1.3735  1.3549
  685TIP3    H226251   2.777   0.620  17.451  1.3295  0.6662  1.5817
  686TIP3   OH226252   1.711   6.179  17.721  0.5535 -0.2245 -0.3696
  686TIP3    H126253   1.711   6.171  17.816  1.5914  0.9123 -0.2419
  686TIP3    H226254   1.765   6.257  17.704 -1.1045  0.6950 -1.8006
  687TIP3   OH226255   3.118   1.856  17.258 -0.4301 -0.4124 -0.0084
  687TIP3    H126256   3.051   1.803  17.214 -1.0685  0.5201 -0.1904
  687TIP3    H226257   3.105   1.944  17.223  1.8727 -0.4620 -1.1752
  688TIP3   OH226258   0.385   8.341  15.435 -0.3904  0.2194  0.0359
  688TIP3    H126259   0.392   8.413  15.498 -1.5493  1.3237 -1.0417
  688TIP3    H226260   0.440   8.368  15.362 -2.2706  0.9433 -1.1778
  689TIP3   OH226261   3.946   5.925  16.809  0.8893  0.0872 -0.5098
  689TIP3    H126262   3.870   5.921  16.867  1.7812  3.6173  1.1252
  689TIP3    H226263   4.009   5.865  16.849  0.7029  0.8556  0.9997
  690TIP3   OH226264   0.854   1.471  15.476 -0.3926  0.9992  0.3205
  690TIP3    H126265   0.813   1.385  15.464  1.3485  0.0992  0.5116
  690TIP3    H226266   0.917   1.477  15.405 -1.3501  2.6966 -0.4342
  691TIP3   OH226267   6.953   5.067  17.770  0.0313 -0.9075 -0.0884
  691TIP3    H126268   6.966   5.050  17.677 -0.7788 -0.3235 -0.3273
  691TIP3    H226269   7.041   5.075  17.806  0.3585  0.0707 -1.0502
  692TIP3   OH226270   1.809   7.561  17.643  0.4179  0.1287  0.0721
  692TIP3    H126271   1.714   7.568  17.641  0.4835  1.6664  0.6808
  692TIP3    H226272   1.837   7.583  17.554  0.2308  0.1630  0.0223
  693TIP3   OH226273   7.754   1.685  18.001  0.2714 -0.3050  0.6203
  693TIP3    H126274   7.811   1.758  18.026  0.5214 -0.4706  0.5436
  693TIP3    H226275   7.687   1.724  17.945  1.2735 -0.3811 -0.6608
  694TIP3   OH226276   4.940   2.809  16.504 -0.0630 -0.5139  0.3712
  694TIP3    H126277   4.868   2.747  16.520  0.7082 -1.2738  0.9630
  694TIP3    H226278   4.993   2.804  16.583 -0.3515  1.4353  0.7201
  695TIP3   OH226279   4.349   3.165  17.621  0.5377  0.2571 -0.1570
  695TIP3    H126280   4.290   3.102  17.579  0.0519  1.2570 -1.0280
  695TIP3    H226281   4.291   3.232  17.657  1.0130 -0.0757  1.2967
  696TIP3   OH226282   2.558   5.656  17.706  0.6226 -0.9237 -0.2511
  696TIP3    H126283   2.573   5.562  17.710  3.4750 -0.6372 -1.9026
  696TIP3    H226284   2.627   5.694  17.762  2.7249  0.2746 -3.3927
  697TIP3   OH226285   2.210   7.943  17.385  0.8632  0.3386 -0.0108
  697TIP3    H126286   2.244   7.873  17.330 -0.7014  0.1644 -0.8042
  697TIP3    H226287   2.160   7.999  17.325  0.2455  0.8937  0.9945
  698TIP3   OH226288   6.352   3.836  15.955 -0.2165 -0.4796 -0.0149
  698TIP3    H126289   6.360   3.744  15.932  2.5453  0.0384 -1.5542
  698TIP3    H226290   6.270   3.864  15.915  0.7765 -1.4239 -2.9888
  699TIP3   OH226291   0.422   2.622  17.189  0.0063 -0.7366  0.2159
  699TIP3    H126292   0.492   2.585  17.135 -0.3768 -1.1405 -0.0053
  699TIP3    H226293   0.468   2.676  17.254  0.5865 -1.7382  0.6578
  700TIP3   OH226294   3.495   5.062  16.719 -0.0600  0.0344  0.2117
  700TIP3    H126295   3.505   4.971  16.690 -0.1293  0.0857  0.0259
  700TIP3    H226296   3.578   5.104  16.693 -0.1531  0.0991  0.0155
  701TIP3   OH226297   4.629   4.573  16.037 -0.4354 -0.5966 -0.0958
  701TIP3    H126298   4.627   4.641  15.971  0.1802 -0.2170  0.2716
  701TIP3    H226299   4.556   4.594  16.096  0.1868  0.1630  0.4203
  702TIP3   OH226300   4.412   6.252  16.890  0.4771 -0.0116 -0.0162
  702TIP3    H126301   4.449   6.340  16.891  0.9252 -0.1873  1.5271
  702TIP3    H226302   4.467   6.202  16.951  0.5032 -1.4844 -1.1782
  703TIP3   OH226303   7.960   0.892  15.825 -0.2440  0.2509  0.1502
  703TIP3    H126304   8.034   0.947  15.851  0.2888 -0.7445  0.8008
  703TIP3    H226305   7.983   0.805  15.857 -0.9735 -0.4014 -1.0376
  704TIP3   OH226306   7.021   5.519  17.746  0.6451 -0.2793 -0.6853
  704TIP3    H126307   6.961   5.584  17.710 -0.0514  0.5855  1.8435
  704TIP3    H226308   7.097   5.570  17.774  1.0792 -0.8978 -0.7235
  705TIP3   OH226309   4.255   7.695  17.035  0.5458 -0.0736  0.4127
  705TIP3    H126310   4.229   7.603  17.046  0.3551 -0.3842 -2.1063
  705TIP3    H226311   4.350   7.691  17.025  0.7797  0.2594  2.1464
  706TIP3   OH226312   7.458   8.179  17.507 -0.3570 -0.0992 -0.0621
  706TIP3    H126313   7.500   8.229  17.437  0.2376 -1.5379 -0.7739
  706TIP3    H226314   7.528   8.122  17.541 -1.2616 -1.2117 -0.0199
  707TIP3   OH226315   1.017   6.826  15.888 -0.2790  0.4240 -0.2857
  707TIP3    H126316   1.010   6.749  15.945  0.6990  2.2795  2.5007
  707TIP3    H226317   1.100   6.814  15.842 -0.5539 -0.5688 -0.5523
  708TIP3   OH226318   2.847   3.683  16.895  0.7037  0.1264 -0.5685
  708TIP3    H126319   2.940   3.705  16.887  0.6776  0.8526  0.8373
  708TIP3    H226320   2.825   3.706  16.986 -0.8272 -0.1156 -0.8594
  709TIP3   OH226321   1.245   1.589  15.968  0.2124 -0.1759 -0.0084
  709TIP3    H126322   1.310   1.596  16.037 -0.7943  0.8157  0.8883
  709TIP3    H226323   1.236   1.678  15.934  1.0148 -0.7222 -1.7627
  710TIP3   OH226324   1.714   3.259  15.995  0.2364 -0.6136 -0.0055
  710TIP3    H126325   1.714   3.208  16.076  0.9424 -1.4024 -0.4812
  710TIP3    H226326   1.757   3.201  15.931  2.3905  1.1210 -0.2328
  711TIP3   OH226327   2.361   0.888  17.465 -0.5955  0.2010  0.8746
  711TIP3    H126328   2.364   0.864  17.372 -0.4092  2.0050  0.3640
  711TIP3    H226329   2.415   0.823  17.509  2.3882  1.3488 -0.8111
  712TIP3   OH226330   7.377   5.365  16.755  0.2697 -0.0815 -0.5234
  712TIP3    H126331   7.371   5.399  16.666  1.1677  0.0998 -0.5287
  712TIP3    H226332   7.463   5.394  16.785 -0.0103 -0.1718  0.3907
  713TIP3   OH226333   0.393   8.179  17.806  0.0495  0.4547 -0.1547
  713TIP3    H126334   0.403   8.165  17.901  1.5012  2.2104 -0.0108
  713TIP3    H226335   0.467   8.132  17.767 -0.3763 -0.0104 -0.4248
  714TIP3   OH226336   8.444   1.579  17.681  0.2695  0.7277 -0.1770
  714TIP3    H126337   8.452   1.649  17.746 -2.6710  0.7983  0.2098
  714TIP3    H226338   8.419   1.624  17.600  0.7936  0.3300 -0.5698
  715TIP3   OH226339   0.470   0.960  15.578 -0.2824  0.7943 -0.0943
  715TIP3    H126340   0.566   0.957  15.584 -0.3758  0.5740  1.5466
  715TIP3    H226341   0.442   0.870  15.595 -0.7924  0.8840 -0.4399
  716TIP3   OH226342   5.287   6.358  17.382 -0.2372 -0.8715  0.6048
  716TIP3    H126343   5.257   6.274  17.348  0.2008 -1.7819  2.3776
  716TIP3    H226344   5.361   6.337  17.439 -1.0148  0.5461  2.2426
  717TIP3   OH226345   1.896   0.689  16.566 -0.4125 -0.0193  0.2660
  717TIP3    H126346   1.938   0.639  16.496 -0.8322  0.7650 -0.5761
  717TIP3    H226347   1.807   0.653  16.571 -1.3731  1.8271 -1.6841
  718TIP3   OH226348   2.177   5.549  17.331 -0.7054 -0.7910 -0.3207
  718TIP3    H126349   2.171   5.457  17.305  0.2586 -0.9697  0.0633
  718TIP3    H226350   2.219   5.548  17.417  2.2779  0.1273 -1.6317
  719TIP3   OH226351   2.520   2.097  15.811  0.2370  0.2160 -0.4502
  719TIP3    H126352   2.514   2.002  15.828  2.0277  0.2905  0.8731
  719TIP3    H226353   2.611   2.119  15.832 -0.1452  2.2318 -0.7825
  720TIP3   OH226354   0.024   3.343  17.132  0.2001 -0.5837  0.0126
  720TIP3    H126355  -0.034   3.386  17.195  1.8741 -1.6888  2.4799
  720TIP3    H226356   0.112   3.371  17.157  1.0173 -2.0344 -1.0839
  721TIP3   OH226357   2.963   3.388  16.813  0.1635  0.1433  0.0412
  721TIP3    H126358   2.901   3.370  16.883  0.9667 -1.9924  0.2935
  721TIP3    H226359   2.946   3.479  16.788 -3.0929 -0.3483  0.0200
  722TIP3   OH226360   1.377   7.700  17.764 -0.3491 -0.3708  0.0412
  722TIP3    H126361   1.292   7.736  17.787  0.4915  2.2975 -0.7453
  722TIP3    H226362   1.396   7.736  17.677  1.3301 -1.3847 -0.0572
  723TIP3   OH226363   3.566   4.791  16.688  0.1532  0.1891  0.1896
  723TIP3    H126364   3.507   4.715  16.696  1.5366 -0.8804  0.6904
  723TIP3    H226365   3.609   4.780  16.604 -2.0076  2.2601 -1.3049
  724TIP3   OH226366   7.589   1.012  16.685 -0.0779 -0.0417 -0.5263
  724TIP3    H126367   7.529   1.043  16.617  1.3513  0.0878 -1.7762
  724TIP3    H226368   7.579   1.075  16.756 -0.3105  0.8629 -1.3420
  725TIP3   OH226369   6.837   7.374  17.648 -0.0728  0.0643 -0.2903
  725TIP3    H126370   6.927   7.391  17.619  0.5606 -0.9754  0.9708
  725TIP3    H226371   6.819   7.284  17.618 -0.1424 -0.2716  0.7313
  726TIP3   OH226372   6.619   6.893  18.116  0.1464 -0.4830  0.0294
  726TIP3    H126373   6.701   6.873  18.071 -0.0712 -1.4689  0.0428
  726TIP3    H226374   6.611   6.824  18.182 -1.0883 -0.8984 -0.5180
  727TIP3   OH226375   5.022   7.655  17.296  0.3060  0.4174 -0.1297
  727TIP3    H126376   4.960   7.727  17.286  1.5382  1.2384 -2.8005
  727TIP3    H226377   5.091   7.689  17.353 -1.6221 -0.5540  2.9865
  728TIP3   OH226378   1.339   7.261  16.717  0.2910 -0.2050 -0.2081
  728TIP3    H126379   1.398   7.299  16.651  0.2186 -0.0726 -0.1977
  728TIP3    H226380   1.304   7.337  16.764 -1.2673 -0.1535 -1.3792
  729TIP3   OH226381   3.216   5.257  17.559  0.2845  0.2815  0.7113
  729TIP3    H126382   3.262   5.184  17.518 -1.2456 -0.1402 -0.3862
  729TIP3    H226383   3.274   5.332  17.548  0.6816 -0.2050 -0.7038
  730TIP3   OH226384   2.948   1.406  16.772  0.0990 -0.4353 -0.0893
  730TIP3    H126385   3.022   1.373  16.721  0.6580 -0.0435  0.4597
  730TIP3    H226386   2.985   1.426  16.858 -0.8990 -1.4599  0.6178
  731TIP3   OH226387   6.865   2.795  16.276 -0.6529  0.2364  0.3344
  731TIP3    H126388   6.954   2.770  16.251 -0.7420  0.8184 -0.6153
  731TIP3    H226389   6.848   2.746  16.356  0.6842  0.4516  0.7798
  732TIP3   OH226390   3.921   1.973  16.278  0.3024  0.0717  0.3559
  732TIP3    H126391   3.883   1.886  16.283  2.8215 -1.0836  0.7292
  732TIP3    H226392   3.861   2.028  16.330 -1.3571 -1.3821  0.0732
  733TIP3   OH226393   5.293   4.799  17.206 -0.7530 -0.4661  0.0746
  733TIP3    H126394   5.236   4.830  17.276 -0.6063  2.6525 -0.9907
  733TIP3    H226395   5.369   4.763  17.251 -1.1910  0.3205  1.5146
  734TIP3   OH226396   5.654   3.691  17.416  0.1184 -0.1162  0.3623
  734TIP3    H126397   5.734   3.744  17.424 -1.3167  2.2358  0.0554
  734TIP3    H226398   5.658   3.656  17.327  0.9224 -0.2395  0.4319
  735TIP3   OH226399   1.689   5.048  16.150 -0.4379 -0.2035 -0.0547
  735TIP3    H126400   1.723   5.100  16.076  0.2649  1.2057  1.1947
  735TIP3    H226401   1.653   4.970  16.109 -0.4297  0.7040 -1.9372
  736TIP3   OH226402   6.197   5.134  17.236 -0.1134  0.1698  0.0404
  736TIP3    H126403   6.281   5.178  17.221  0.5416 -0.4195  1.7570
  736TIP3    H226404   6.220   5.042  17.244 -1.3030 -0.3834 -2.1548
  737TIP3   OH226405   4.015   2.776  16.687  0.2510 -0.1155  0.2132
  737TIP3    H126406   3.967   2.785  16.604 -1.1272  0.1801  1.0122
  737TIP3    H226407   4.102   2.809  16.668 -0.8825  2.7658 -0.3812
  738TIP3   OH226408   6.885   0.002  16.740 -0.2155  0.1853  0.4139
  738TIP3    H126409   6.837  -0.059  16.796 -0.2949 -0.9934 -0.9009
  738TIP3    H226410   6.919  -0.051  16.669  0.1963  1.5892 -0.4842
  739TIP3   OH226411   3.089   0.389  17.438  0.1246 -0.7057 -0.1558
  739TIP3    H126412   3.076   0.404  17.532  1.7261 -0.1364 -0.0059
  739TIP3    H226413   3.070   0.296  17.426  0.1792 -0.8501  0.7806
  740TIP3   OH226414   7.989   3.863  16.305  0.1328  0.7715 -0.3976
  740TIP3    H126415   7.895   3.880  16.304  0.0572  0.4228  0.1794
  740TIP3    H226416   8.023   3.912  16.231 -0.5328  0.7326 -0.7358
  741TIP3   OH226417   7.281   5.843  16.937  0.4137  0.0325  0.3357
  741TIP3    H126418   7.286   5.813  17.028 -1.7371  1.7580  1.1327
  741TIP3    H226419   7.309   5.935  16.940 -1.2388  0.6042 -0.3782
  742TIP3   OH226420   6.566   6.498  16.030  0.5387  0.2947  0.3141
  742TIP3    H126421   6.598   6.412  16.058  2.3937  1.5970  2.5001
  742TIP3    H226422   6.512   6.528  16.104  0.0385  1.0988 -0.3640
  743TIP3   OH226423   3.997   6.441  16.536  0.0451 -0.3050 -0.0500
  743TIP3    H126424   3.928   6.506  16.533  0.3106  0.0014  0.3958
  743TIP3    H226425   3.984   6.394  16.618  0.5885  0.0092  0.2236
  744TIP3   OH226426   6.664   7.799  17.971 -0.1252 -0.3570  0.3002
  744TIP3    H126427   6.668   7.708  17.939 -2.1616 -1.2776  2.3852
  744TIP3    H226428   6.747   7.838  17.941  0.4099 -2.5861 -1.4681
  745TIP3   OH226429   6.482   5.458  17.578  0.4431  0.5985  0.2018
  745TIP3    H126430   6.524   5.520  17.638  1.6230 -0.1517  0.1766
  745TIP3    H226431   6.451   5.512  17.505  0.7725  1.2466  0.5331
  746TIP3   OH226432   4.795   3.282  17.234 -0.0846  0.1235  0.1667
  746TIP3    H126433   4.846   3.353  17.196 -0.8653  0.5284 -0.1552
  746TIP3    H226434   4.859   3.218  17.261  0.5676  0.4235 -0.6304
  747TIP3   OH226435   8.104   1.813  16.027 -0.4074  0.5507 -0.1440
  747TIP3    H126436   8.044   1.846  15.960  0.5525  3.3166  0.2377
  747TIP3    H226437   8.189   1.852  16.006  1.0928 -2.3771 -0.0306
  748TIP3   OH226438   1.062   0.187  16.259  0.2701  0.0169 -0.2425
  748TIP3    H126439   1.083   0.169  16.167 -0.9919  0.0508 -0.5565
  748TIP3    H226440   1.002   0.116  16.284  0.2275  0.2798  0.4071
  749TIP3   OH226441   1.628   4.634  15.838  0.2188  0.2554 -0.3376
  749TIP3    H126442   1.564   4.625  15.767 -0.7537  1.8146  0.2763
  749TIP3    H226443   1.675   4.551  15.838 -1.1984 -0.6159 -1.4114
  750TIP3   OH226444   4.448   7.458  16.348  0.1865 -0.3390 -0.4531
  750TIP3    H126445   4.445   7.399  16.273  3.0718  0.0569 -1.0102
  750TIP3    H226446   4.406   7.538  16.317  0.7119 -0.4297 -1.4427
  751TIP3   OH226447   3.431   3.471  16.885  0.3667 -0.1814 -0.1046
  751TIP3    H126448   3.418   3.439  16.974 -1.9504 -0.2890 -0.4135
  751TIP3    H226449   3.455   3.393  16.835  0.4550 -0.3525  0.2022
  752TIP3   OH226450   7.648   6.037  16.135  0.3093 -0.2400  0.1556
  752TIP3    H126451   7.717   6.103  16.142  0.1333  0.6565 -3.8769
  752TIP3    H226452   7.663   5.996  16.050 -2.7982 -1.5972  0.1146
  753TIP3   OH226453   6.896   2.302  16.721  0.5186  0.7722  0.4754
  753TIP3    H126454   6.917   2.339  16.635 -0.0956  3.4525  1.3759
  753TIP3    H226455   6.981   2.282  16.760  1.0032  2.6855  0.4833
  754TIP3   OH226456   5.965   7.094  15.965  0.5272 -0.3274  0.7942
  754TIP3    H126457   5.872   7.112  15.979  0.4396  1.0259 -1.0974
  754TIP3    H226458   5.973   6.999  15.970 -1.3041 -0.6113 -0.7494
  755TIP3   OH226459   0.203   2.467  17.109  0.2237  0.1981 -0.1749
  755TIP3    H126460   0.280   2.504  17.152 -0.3007  0.5457  0.4783
  755TIP3    H226461   0.165   2.540  17.060  0.3601  0.0018 -0.5797
  756TIP3   OH226462   1.520   5.583  16.056  0.0912  0.5231 -0.0400
  756TIP3    H126463   1.565   5.501  16.037 -0.8346  0.0120 -0.0625
  756TIP3    H226464   1.457   5.560  16.124 -2.0637  0.5878 -1.9206
  757TIP3   OH226465   1.945   3.306  16.652 -0.5758 -0.0525  0.6387
  757TIP3    H126466   1.989   3.366  16.713 -0.3310  0.6814 -0.2427
  757TIP3    H226467   1.971   3.337  16.565  0.5031 -2.1458  0.1568
  758TIP3   OH226468   6.227   0.330  17.176  0.1138 -0.3382  0.1122
  758TIP3    H126469   6.222   0.237  17.196 -1.5164 -0.1776  0.5907
  758TIP3    H226470   6.145   0.367  17.209  0.4498  1.1695 -0.6118
  759TIP3   OH226471   3.846   0.509  16.531 -0.7172  0.5474 -0.1146
  759TIP3    H126472   3.851   0.488  16.624 -1.2569 -2.1808 -0.6094
  759TIP3    H226473   3.925   0.560  16.513  1.3784 -1.9589  1.1820
  760TIP3   OH226474   7.540   4.428  17.423  0.1976 -0.5031  0.0969
  760TIP3    H126475   7.532   4.358  17.487  1.0109 -0.3173  0.4224
  760TIP3    H226476   7.504   4.392  17.342  1.5605 -1.6947 -0.0272
  761TIP3   OH226477   1.419   3.813  17.560  0.6187  0.2379 -0.2151
  761TIP3    H126478   1.401   3.836  17.469 -1.1150 -1.2209 -0.3128
  761TIP3    H226479   1.428   3.718  17.559 -2.0802 -0.1711  1.4335
  762TIP3   OH226480   0.137   4.343  17.394 -0.2846 -0.0830  0.8733
  762TIP3    H126481   0.212   4.299  17.354  0.2887  0.1004  1.7112
  762TIP3    H226482   0.060   4.300  17.356  0.2545 -1.4251  1.2490
  763TIP3   OH226483   0.657   1.634  17.052  0.1704 -0.2438  0.1576
  763TIP3    H126484   0.651   1.671  16.964  0.4444  0.8410  0.5794
  763TIP3    H226485   0.751   1.632  17.070  0.1868 -1.5452 -0.0101
  764TIP3   OH226486   6.744   2.137  16.145  0.0912 -0.5559  0.0183
  764TIP3    H126487   6.726   2.082  16.069  0.4411 -1.8470  0.8380
  764TIP3    H226488   6.697   2.095  16.217  1.1336 -0.3244  0.8596
  765TIP3   OH226489   1.067   4.232  16.529  0.4743  0.4963  0.1805
  765TIP3    H126490   1.127   4.161  16.507 -0.9888 -0.6341 -0.2776
  765TIP3    H226491   1.072   4.240  16.625  2.2521  1.2785  0.0603
  766TIP3   OH226492   1.431   5.531  16.575 -0.2822 -0.0621  0.1683
  766TIP3    H126493   1.456   5.622  16.560  2.4786 -0.7849 -0.1767
  766TIP3    H226494   1.501   5.495  16.629 -2.0460 -1.6485  1.5192
  767TIP3   OH226495   3.127   1.286  16.625  0.2657  0.3432 -0.2925
  767TIP3    H126496   3.086   1.200  16.634 -0.2133  0.7698  2.3086
  767TIP3    H226497   3.221   1.268  16.621  0.1685 -0.3099  0.2802
  768TIP3   OH226498   0.112   5.292  16.440 -0.1236  0.0968  0.4933
  768TIP3    H126499   0.208   5.299  16.442  0.0031 -0.0980 -2.2870
  768TIP3    H226500   0.082   5.378  16.412 -0.8405  0.3094  1.8291
  769TIP3   OH226501   3.498   1.108  17.771 -0.1711 -0.2656 -0.0445
  769TIP3    H126502   3.555   1.115  17.847 -0.2613  0.7140 -0.0493
  769TIP3    H226503   3.551   1.139  17.698 -0.5269  0.1615 -0.1323
  770TIP3   OH226504   4.080   4.157  17.786 -0.1980 -0.2639  0.4045
  770TIP3    H126505   4.100   4.232  17.731  1.9675 -0.3844  0.9322
  770TIP3    H226506   4.119   4.083  17.741 -1.6420 -0.9866  0.2847
  771TIP3   OH226507   5.083   3.643  17.003  0.3370 -0.9017  0.6294
  771TIP3    H126508   5.088   3.576  16.935 -0.6335 -1.4317  1.0703
  771TIP3    H226509   5.174   3.670  17.016  0.5082 -0.5411 -1.1044
  772TIP3   OH226510   4.560   3.190  17.377  0.4057 -0.0412 -0.4497
  772TIP3    H126511   4.559   3.100  17.345 -1.3484 -0.0757 -0.4308
  772TIP3    H226512   4.630   3.233  17.328  0.2779 -1.0563 -1.5629
  773TIP3   OH226513   8.188   7.326  15.864  0.1912  0.3827  0.0478
  773TIP3    H126514   8.191   7.342  15.959  1.9278 -0.1263  0.1183
  773TIP3    H226515   8.189   7.231  15.855  0.6007  0.4328 -0.4916
  774TIP3   OH226516   4.989   0.505  17.945  0.3836  0.1049 -0.0091
  774TIP3    H126517   4.902   0.534  17.971  0.6100  1.3379 -0.5377
  774TIP3    H226518   5.014   0.565  17.874  1.6470 -0.2314  0.1199
  775TIP3   OH226519   4.026   6.800  17.145 -0.0524 -0.1662  0.6889
  775TIP3    H126520   4.097   6.775  17.086  1.9402 -0.8508  3.2359
  775TIP3    H226521   4.006   6.721  17.194  0.4001  1.0380  2.9298
  776TIP3   OH226522   6.831   6.762  15.975  0.3193  0.1010  0.8881
  776TIP3    H126523   6.820   6.857  15.969 -1.3310 -0.1219 -4.0787
  776TIP3    H226524   6.925   6.748  15.964  0.3829  1.1593 -0.0974
  777TIP3   OH226525   0.985   4.233  17.734 -0.5751 -0.0909 -0.0532
  777TIP3    H126526   1.017   4.143  17.738 -1.5433 -0.5686 -2.0263
  777TIP3    H226527   1.065   4.287  17.732  0.0599 -0.6479  3.4269
  778TIP3   OH226528   1.342   2.055  16.862  0.4800 -0.4230  0.9385
  778TIP3    H126529   1.419   2.082  16.812  0.6419 -1.9983  0.2949
  778TIP3    H226530   1.278   2.124  16.847  1.5083  0.5530  0.8990
  779TIP3   OH226531   1.481   3.468  15.633  0.1115 -0.0815 -0.2777
  779TIP3    H126532   1.388   3.489  15.639 -0.0161  0.4994 -3.0903
  779TIP3    H226533   1.525   3.534  15.687 -0.9701  1.0781 -0.7773
  780TIP3   OH226534   4.478   2.075  15.567  0.0291  0.3673  0.6802
  780TIP3    H126535   4.536   2.118  15.631 -0.5583  0.2157  1.3241
  780TIP3    H226536   4.442   2.147  15.516 -1.4111  0.7326  2.1430
  781TIP3   OH226537   2.082   2.316  17.480 -0.3412  0.0297 -0.0213
  781TIP3    H126538   1.991   2.342  17.498 -0.3621  0.8970 -1.2205
  781TIP3    H226539   2.090   2.229  17.517 -0.8892  0.9192  2.4034
  782TIP3   OH226540   2.632   0.861  16.091 -0.3694  0.3810  0.7954
  782TIP3    H126541   2.581   0.922  16.038  0.1821  0.3791  0.2513
  782TIP3    H226542   2.723   0.877  16.065 -0.3137 -1.8493 -0.6388
  783TIP3   OH226543   7.579   3.062  16.317  0.1565 -0.3350 -0.0906
  783TIP3    H126544   7.666   3.098  16.298  0.1452 -1.4375 -2.6858
  783TIP3    H226545   7.529   3.136  16.350  1.3616  0.9850 -1.1037
  784TIP3   OH226546   7.751   3.559  17.028 -0.7588  0.0225 -0.2328
  784TIP3    H126547   7.846   3.559  17.012 -0.7414  1.2322 -0.2257
  784TIP3    H226548   7.738   3.629  17.092 -1.7436  0.3926 -0.8199
  785TIP3   OH226549   8.153   3.252  17.249  0.3188 -0.2298  0.2735
  785TIP3    H126550   8.072   3.267  17.200  1.1406 -0.7523 -1.3465
  785TIP3    H226551   8.205   3.330  17.233 -0.7273  1.2305  3.3272
  786TIP3   OH226552   5.451   7.156  17.024 -0.2610  0.1531  0.1226
  786TIP3    H126553   5.515   7.193  16.963  0.7327  0.1382  1.1218
  786TIP3    H226554   5.504   7.121  17.096 -1.2758 -1.5123  0.1187
  787TIP3   OH226555   0.885   2.899  16.424 -0.1987  0.6102  0.6687
  787TIP3    H126556   0.862   2.856  16.506 -0.5240  0.6847  0.6170
  787TIP3    H226557   0.801   2.913  16.379  0.0192  0.1516  0.1140
  788TIP3   OH226558   6.838   4.983  16.624 -1.0815  0.4041 -0.2260
  788TIP3    H126559   6.802   4.897  16.604 -0.1744 -0.1853  0.6281
  788TIP3    H226560   6.761   5.038  16.638 -1.6810 -0.6360  0.7575
  789TIP3   OH226561   6.940   2.959  17.934  0.4560 -0.3105  0.1310
  789TIP3    H126562   6.867   3.007  17.973  2.5903  0.9345  2.9689
  789TIP3    H226563   6.999   3.027  17.901  1.0102 -1.2195 -0.8249
  790TIP3   OH226564   5.436   0.369  17.063  0.1459 -0.4572  0.4230
  790TIP3    H126565   5.496   0.440  17.089  1.1820 -1.0817 -0.2031
  790TIP3    H226566   5.434   0.311  17.139  0.3379 -0.4320  0.4478
  791TIP3   OH226567   6.525   3.291  16.762  0.0570  0.2080 -0.3680
  791TIP3    H126568   6.551   3.311  16.852 -1.0617  0.0828 -0.0011
  791TIP3    H226569   6.548   3.198  16.751  0.7941  0.3925 -0.4420
  792TIP3   OH226570   4.263   4.988  17.653  0.4348  0.7403  0.4948
  792TIP3    H126571   4.243   4.951  17.739 -0.9708  0.0035 -0.1160
  792TIP3    H226572   4.357   5.006  17.656  0.8131 -1.0941  1.5115
  793TIP3   OH226573   1.078   7.455  16.970 -0.1015  0.2326 -0.0302
  793TIP3    H126574   1.089   7.506  17.050  0.5312  1.5461 -0.9143
  793TIP3    H226575   1.081   7.364  16.998  0.0003  0.6701  1.4394
  794TIP3   OH226576   3.839   4.521  16.652 -0.8090 -0.3299  0.0265
  794TIP3    H126577   3.922   4.545  16.694  0.1303  0.0610 -1.9633
  794TIP3    H226578   3.816   4.597  16.599 -2.5314 -0.3871  0.6385
  795TIP3   OH226579   4.110   6.779  16.580  0.0537 -0.1330 -0.8485
  795TIP3    H126580   4.034   6.794  16.524 -1.0851  1.3434  0.9800
  795TIP3    H226581   4.171   6.848  16.557 -0.4666  0.5486 -0.2206
  796TIP3   OH226582   3.638   5.388  16.175 -0.6067 -0.4005 -0.1476
  796TIP3    H126583   3.619   5.360  16.085 -0.6024  0.3453 -0.3852
  796TIP3    H226584   3.719   5.439  16.168 -0.3583 -0.7214  0.3522
  797TIP3   OH226585   4.099   0.340  16.409  0.3646  0.3409  0.8309
  797TIP3    H126586   4.065   0.421  16.447  0.5901  0.4770  0.7415
  797TIP3    H226587   4.154   0.369  16.336  0.4955  0.1098  0.8378
  798TIP3   OH226588   7.701   0.586  17.234 -0.5596 -0.2228 -0.1114
  798TIP3    H126589   7.629   0.645  17.212 -0.1251 -0.1231 -1.3391
  798TIP3    H226590   7.723   0.543  17.151  0.6724 -0.3719  0.2688
  799TIP3   OH226591   8.171   4.614  16.299 -0.2287 -0.4294  1.1319
  799TIP3    H126592   8.264   4.593  16.291 -0.9334 -3.8280  0.5030
  799TIP3    H226593   8.158   4.633  16.392  0.9532 -0.6304  1.3539
  800TIP3   OH226594   6.819   5.704  17.492  0.1972  0.4398  0.0816
  800TIP3    H126595   6.873   5.629  17.468  0.0135  0.3281  0.0156
  800TIP3    H226596   6.815   5.757  17.412 -1.4428 -0.5505 -0.5433
  801TIP3   OH226597   8.035   7.384  16.443  0.0901  0.5525 -0.3610
  801TIP3    H126598   8.096   7.342  16.504 -0.7309 -1.2385 -0.7127
  801TIP3    H226599   8.023   7.472  16.479  0.1484 -0.2141  1.7007
  802TIP3   OH226600   3.673   6.673  17.672  0.4080  0.0691 -0.3442
  802TIP3    H126601   3.706   6.743  17.728 -2.6938  0.2161  1.4836
  802TIP3    H226602   3.693   6.703  17.583  0.8970  2.3027  0.4581
  803TIP3   OH226603   1.464   1.033  15.504 -0.2813 -0.2551  0.1942
  803TIP3    H126604   1.550   0.996  15.484 -0.9263 -1.0012 -1.3666
  803TIP3    H226605   1.403   0.962  15.488 -1.4878  1.1491 -2.1188
  804TIP3   OH226606   2.563   3.704  16.030  0.0304 -0.5943 -0.6347
  804TIP3    H126607   2.656   3.727  16.027 -0.1205  0.4135  1.0665
  804TIP3    H226608   2.528   3.733  15.945  0.9268  0.6570 -0.6029
  805TIP3   OH226609   1.308   3.150  17.442  0.4457 -0.0264  0.1819
  805TIP3    H126610   1.357   3.084  17.393 -1.2152 -1.3066  0.1489
  805TIP3    H226611   1.318   3.230  17.391  2.9061 -0.0638  0.4628
  806TIP3   OH226612   4.935   2.806  16.196  0.1438  0.0773 -0.6405
  806TIP3    H126613   4.868   2.792  16.129  0.5326  0.0243 -1.0299
  806TIP3    H226614   5.003   2.856  16.151  0.8586 -0.7955 -0.5718
  807TIP3   OH226615   0.376   4.243  17.291  0.7406 -0.5471  0.2416
  807TIP3    H126616   0.442   4.214  17.354  0.8389 -1.0843 -0.1005
  807TIP3    H226617   0.417   4.228  17.205 -0.4058 -2.3732 -0.0339
  808TIP3   OH226618   2.225   2.543  17.396  0.2332 -0.0791 -0.5118
  808TIP3    H126619   2.283   2.553  17.472  1.1736  0.6395 -1.2875
  808TIP3    H226620   2.188   2.455  17.405 -0.1494  0.2005  1.0851
  809TIP3   OH226621   5.539   6.835  17.057  0.0721 -0.2938  0.2289
  809TIP3    H126622   5.468   6.805  17.115 -1.3759  0.1066 -1.2414
  809TIP3    H226623   5.505   6.820  16.968  0.6331  2.5470 -0.5600
  810TIP3   OH226624   7.056   2.044  17.271  0.0416 -0.6355  0.1045
  810TIP3    H126625   7.043   2.138  17.255  0.2110 -0.6852 -0.3397
  810TIP3    H226626   6.969   2.006  17.262  0.0503 -0.5876 -0.1759
  811TIP3   OH226627   4.203   7.363  16.495  0.0370  0.5215 -0.2844
  811TIP3    H126628   4.188   7.338  16.586 -1.2929 -1.5936 -1.0133
  811TIP3    H226629   4.299   7.368  16.487  0.1856  0.2997  1.0890
  812TIP3   OH226630   0.469   1.100  16.453  0.1026 -0.0164  0.1303
  812TIP3    H126631   0.405   1.030  16.448  0.4472 -0.4802  1.6932
  812TIP3    H226632   0.449   1.157  16.378 -1.5899 -0.5856  0.1196
  813TIP3   OH226633   0.210   3.118  17.471  0.5120 -0.0980 -0.8750
  813TIP3    H126634   0.281   3.180  17.456  0.1998  0.8740  1.3764
  813TIP3    H226635   0.253   3.039  17.504  0.6113  0.2998 -0.0357
  814TIP3   OH226636   7.037   3.829  16.644  0.0935 -0.0751 -0.1210
  814TIP3    H126637   7.129   3.849  16.658  0.3672 -1.0721 -0.4001
  814TIP3    H226638   7.032   3.734  16.650 -0.4406 -0.2814 -2.7480
  815TIP3   OH226639   1.895   2.511  17.882 -0.0687 -0.1506 -0.2888
  815TIP3    H126640   1.933   2.463  17.956 -2.7396  0.2457  1.4914
  815TIP3    H226641   1.854   2.443  17.828  1.5084 -0.3975 -1.2221
  816TIP3   OH226642   5.132   0.182  17.211 -0.3255  0.5514  0.0664
  816TIP3    H126643   5.136   0.128  17.131 -0.5492  0.2067  0.2859
  816TIP3    H226644   5.216   0.166  17.254 -0.3102  0.5354  0.0322
  817TIP3   OH226645   5.821   1.885  16.655  0.2886  0.0980 -0.4275
  817TIP3    H126646   5.839   1.954  16.591  0.2863  1.5773  1.1013
  817TIP3    H226647   5.728   1.865  16.643  0.3207  0.2421 -0.9681
  818TIP3   OH226648   2.512   3.368  16.294 -0.0025 -0.3184 -0.0372
  818TIP3    H126649   2.442   3.430  16.275  0.0744 -0.4057 -0.6363
  818TIP3    H226650   2.516   3.364  16.389  0.2388  0.8800  0.0208
  819TIP3   OH226651   1.313   1.172  17.738 -0.4851  0.2481  1.0355
  819TIP3    H126652   1.386   1.200  17.795 -0.3825  2.7282 -0.1792
  819TIP3    H226653   1.301   1.245  17.677 -2.3959 -1.1587 -0.3887
  820TIP3   OH226654   6.984   4.106  17.947 -0.0637  0.8720  0.5874
  820TIP3    H126655   6.982   4.047  18.022  1.8024  1.6451  1.3028
  820TIP3    H226656   6.921   4.069  17.885 -1.1372 -0.1677  2.2407
  821TIP3   OH226657   7.787   3.058  17.456 -0.0268  0.0403 -0.6390
  821TIP3    H126658   7.731   2.988  17.491 -1.0377  0.4154 -1.4555
  821TIP3    H226659   7.833   3.093  17.533 -0.4844 -0.6571 -0.0340
  822TIP3   OH226660   3.373   2.939  17.507  0.3960  0.2070  0.3405
  822TIP3    H126661   3.424   2.859  17.521  0.0563 -0.3002 -1.1746
  822TIP3    H226662   3.292   2.924  17.555  0.0528 -0.6653 -0.4841
  823TIP3   OH226663   0.819   5.610  16.931  0.0004 -0.0618 -0.1493
  823TIP3    H126664   0.771   5.596  17.012 -1.1170 -2.1605 -1.1083
  823TIP3    H226665   0.906   5.574  16.947  0.1368  0.5074  0.4359
  824TIP3   OH226666   4.051   5.539  16.734 -0.9137 -0.6120 -0.0330
  824TIP3    H126667   3.997   5.503  16.664 -3.0966  2.7512 -0.3445
  824TIP3    H226668   3.990   5.556  16.806  0.3233  0.3660  0.8406
  825TIP3   OH226669   3.514   0.275  17.640 -0.2147 -0.0811  0.1719
  825TIP3    H126670   3.534   0.186  17.669  0.1132 -0.5356 -1.3181
  825TIP3    H226671   3.594   0.304  17.596  0.1764  1.5086  1.8121
  826TIP3   OH226672   3.036   5.961  16.276  0.2291 -0.1085 -0.3736
  826TIP3    H126673   3.055   5.962  16.370  1.7266 -0.1129 -0.6505
  826TIP3    H226674   2.982   5.883  16.264 -0.9374  0.5064  0.6369
  827TIP3   OH226675   7.734   5.326  17.472  0.1638 -0.1243 -0.0604
  827TIP3    H126676   7.783   5.263  17.420  0.2329 -1.4984  1.5570
  827TIP3    H226677   7.652   5.280  17.494  0.1574  0.3833  1.0431
  828TIP3   OH226678   5.997   0.354  16.783  0.3538 -0.1988  0.4421
  828TIP3    H126679   6.085   0.342  16.746  0.3258  0.3812  0.1724
  828TIP3    H226680   5.939   0.311  16.720  0.2798  1.0261 -0.3761
  829TIP3   OH226681   5.432   0.559  17.634 -0.4220 -0.2144  0.1393
  829TIP3    H126682   5.397   0.643  17.663 -0.0132  0.5521 -1.4943
  829TIP3    H226683   5.521   0.578  17.605 -1.0683 -0.6944 -2.4118
  830TIP3   OH226684   8.258   5.236  17.329  0.1099 -0.0376  0.3568
  830TIP3    H126685   8.341   5.223  17.375 -0.2350  0.9381  1.3151
  830TIP3    H226686   8.234   5.327  17.349  0.5628  0.9230 -2.8113
  831TIP3   OH226687   1.211   4.791  17.632 -0.3194  0.1874 -0.6647
  831TIP3    H126688   1.152   4.778  17.706 -0.0527  0.7321 -0.3534
  831TIP3    H226689   1.184   4.874  17.593 -1.2942 -0.6842 -1.9724
  832TIP3   OH226690   4.428   3.966  17.594  0.0473  0.2163  0.2534
  832TIP3    H126691   4.368   3.987  17.666 -0.4189 -0.7649  0.1786
  832TIP3    H226692   4.371   3.927  17.527  0.7478 -0.6582  0.1489
  833TIP3   OH226693   1.615   0.965  16.385  0.4807  0.7364 -0.3878
  833TIP3    H126694   1.674   0.958  16.460  1.2465  0.2751 -1.0154
  833TIP3    H226695   1.659   0.917  16.315 -0.2586  1.0868 -1.1163
  834TIP3   OH226696   3.106   1.961  15.715 -0.1357 -0.0107 -0.3090
  834TIP3    H126697   3.166   2.020  15.671  0.1182 -0.3968 -0.4892
  834TIP3    H226698   3.049   2.018  15.767  1.8586  0.2503  1.7429
  835TIP3   OH226699   6.626   6.465  17.341 -0.2257  0.4011  0.0853
  835TIP3    H126700   6.567   6.492  17.411  1.0898 -0.0627  1.4477
  835TIP3    H226701   6.711   6.453  17.385 -0.0192 -3.0098 -0.9230
  836TIP3   OH226702   5.249   2.691  18.219  0.0819  0.3937  0.4826
  836TIP3    H126703   5.313   2.683  18.289  0.5686 -0.8206 -0.0789
  836TIP3    H226704   5.284   2.637  18.148 -0.2378  1.8073 -0.8231
  837TIP3   OH226705   1.866   4.844  16.267 -0.3905 -0.0113 -0.3760
  837TIP3    H126706   1.840   4.802  16.185 -0.8390 -0.0647 -0.2144
  837TIP3    H226707   1.785   4.846  16.319 -0.1138  0.0304  0.0570
  838TIP3   OH226708   6.333   2.075  16.383 -0.1759 -0.2110  0.0051
  838TIP3    H126709   6.284   2.141  16.334  0.2155 -0.8797 -1.3350
  838TIP3    H226710   6.282   1.995  16.374 -0.0476 -0.3649  0.6223
  839TIP3   OH226711   8.422   5.642  16.679 -0.0440 -0.1861 -0.3345
  839TIP3    H126712   8.453   5.628  16.589  0.3055  1.1593 -0.4532
  839TIP3    H226713   8.493   5.692  16.720 -0.5631 -0.0838  0.4462
  840TIP3   OH226714   7.562   4.886  16.222  0.0850 -0.7440  0.0403
  840TIP3    H126715   7.650   4.847  16.227  0.6548  0.3065 -1.1627
  840TIP3    H226716   7.572   4.960  16.163 -1.5233 -0.2867  0.2859
  841TIP3   OH226717   7.662   2.858  17.638 -0.5140  0.1567 -0.2043
  841TIP3    H126718   7.571   2.842  17.612 -0.8261  1.5379 -0.0279
  841TIP3    H226719   7.656   2.890  17.728  0.3577 -1.9895  0.6878
  842TIP3   OH226720   5.470   2.495  17.466  0.2355 -0.3530  0.2144
  842TIP3    H126721   5.546   2.476  17.522  0.8993 -1.0324 -0.8813
  842TIP3    H226722   5.394   2.473  17.520  0.8471 -0.5534  1.0043
  843TIP3   OH226723   8.037   4.391  15.916  0.4920  0.2838  0.1848
  843TIP3    H126724   7.946   4.398  15.888  0.4116  1.2543  0.6535
  843TIP3    H226725   8.072   4.317  15.866 -0.5772 -0.1629  0.0764
  844TIP3   OH226726   4.545   4.771  17.486  0.4824 -0.3167  0.2981
  844TIP3    H126727   4.617   4.711  17.503  0.4312 -0.5459 -0.2872
  844TIP3    H226728   4.470   4.731  17.531 -0.1721 -2.0532 -2.1505
  845TIP3   OH226729   1.876   8.111  17.469 -0.3356 -0.2700  0.0389
  845TIP3    H126730   1.916   8.084  17.386 -1.1306 -0.6462 -0.2298
  845TIP3    H226731   1.859   8.029  17.515 -0.5241 -0.0943  0.2802
  846TIP3   OH226732   6.293   7.042  15.769  0.1767  0.8562  0.2255
  846TIP3    H126733   6.216   7.099  15.766 -1.3221 -1.0706 -1.0112
  846TIP3    H226734   6.347   7.070  15.695  0.0632  1.4195  0.3533
  847TIP3   OH226735   0.138   8.174  16.016 -0.1054  0.2760  0.3152
  847TIP3    H126736   0.160   8.266  16.005 -1.5290  0.5202 -0.8365
  847TIP3    H226737   0.218   8.134  16.049 -0.0094  2.2352  2.6922
  848TIP3   OH226738   8.209   2.157  17.375 -0.2639 -0.0208 -0.1355
  848TIP3    H126739   8.143   2.165  17.443 -0.7896  1.0520 -0.7441
  848TIP3    H226740   8.196   2.234  17.319  1.4749  0.2030 -0.2949
  849TIP3   OH226741   2.191   1.539  16.161  0.3768  0.2145  0.0822
  849TIP3    H126742   2.248   1.566  16.089  0.8596 -0.5781  0.1581
  849TIP3    H226743   2.102   1.551  16.127  0.5998  0.0875 -0.5538
  850TIP3   OH226744   0.481   3.276  17.955  0.3694 -0.2377  0.1352
  850TIP3    H126745   0.479   3.346  17.889 -1.9465 -1.1679 -0.8831
  850TIP3    H226746   0.526   3.315  18.029  0.8348  1.6999 -1.0832
  851TIP3   OH226747   6.710   0.814  17.685  0.0139  0.3185 -0.0825
  851TIP3    H126748   6.708   0.744  17.619  1.5019  0.3978 -0.2418
  851TIP3    H226749   6.636   0.794  17.743  0.1473 -1.1550 -0.3702
  852TIP3   OH226750   8.064   6.863  17.753 -0.1970  0.1708  0.0494
  852TIP3    H126751   7.989   6.912  17.786  0.4615  0.6370  0.8980
  852TIP3    H226752   8.060   6.778  17.797  0.8802  0.9166  1.6838
  853TIP3   OH226753   7.891   3.598  16.385  0.3530 -1.0835  0.6051
  853TIP3    H126754   7.813   3.603  16.329  1.2353 -0.5396 -0.6248
  853TIP3    H226755   7.938   3.680  16.368  0.1320 -0.3715  2.9868
  854TIP3   OH226756   5.876   3.940  16.716  0.0216 -0.3442 -0.1170
  854TIP3    H126757   5.844   4.031  16.719 -0.2816 -0.4212 -0.7501
  854TIP3    H226758   5.909   3.930  16.627 -0.9661 -1.1938 -0.4065
  855TIP3   OH226759   4.084   0.615  17.444 -0.1520  0.3994  0.6640
  855TIP3    H126760   4.154   0.645  17.386  0.5335 -0.4526  1.0264
  855TIP3    H226761   4.003   0.640  17.399  0.3779  0.8502 -0.0591
  856TIP3   OH226762   0.146   5.149  17.693 -0.6055 -0.6186 -0.0152
  856TIP3    H126763   0.132   5.199  17.774 -0.1734 -0.6895  0.1046
  856TIP3    H226764   0.083   5.078  17.698 -0.7088 -0.5157  0.1709
  857TIP3   OH226765   7.193   3.589  17.286 -0.2244  0.6303 -0.1716
  857TIP3    H126766   7.231   3.523  17.228  0.9185  1.0747  0.0481
  857TIP3    H226767   7.268   3.641  17.316 -0.6277 -0.0924  2.3657
  858TIP3   OH226768   7.902   1.370  17.148  0.0029  0.0225  0.5616
  858TIP3    H126769   7.909   1.416  17.232  2.8309 -0.3227  0.6230
  858TIP3    H226770   7.898   1.440  17.083 -1.9757  0.2920  0.9164
  859TIP3   OH226771   4.040   0.559  15.640 -0.2848  0.5139  0.6750
  859TIP3    H126772   4.041   0.483  15.698 -0.1266 -0.3523 -0.4257
  859TIP3    H226773   4.120   0.607  15.662 -0.3730  0.3550  1.3576
  860TIP3   OH226774   3.639   7.322  15.812 -0.3001 -0.2544  0.1904
  860TIP3    H126775   3.705   7.255  15.829 -1.0368 -0.8598  0.7639
  860TIP3    H226776   3.660   7.392  15.874 -0.0148 -0.3127  0.1594
  861TIP3   OH226777   3.511   0.726  17.369 -0.3935  0.1676  0.2568
  861TIP3    H126778   3.533   0.818  17.385 -1.3314  0.2575  1.1398
  861TIP3    H226779   3.415   0.725  17.364 -0.5526 -1.0378  2.3721
  862TIP3   OH226780   3.860   5.839  16.552 -0.2282  0.0778 -0.0577
  862TIP3    H126781   3.882   5.883  16.635  1.3449 -1.5746  0.4735
  862TIP3    H226782   3.944   5.807  16.520 -1.1411 -1.3245 -1.1246
  863TIP3   OH226783   3.818   8.167  15.748  0.2534 -0.8794 -0.3439
  863TIP3    H126784   3.774   8.085  15.773 -0.5068 -0.6414 -0.8668
  863TIP3    H226785   3.855   8.149  15.662 -0.7181 -0.3862 -0.8739
  864TIP3   OH226786   0.913   3.181  17.247  0.0373  0.0738 -0.1559
  864TIP3    H126787   0.874   3.268  17.246  0.4781  0.2811 -1.5381
  864TIP3    H226788   0.973   3.182  17.322 -0.3265  0.7750  0.1346
  865TIP3   OH226789   3.113   3.681  16.857 -0.2807  0.4416  0.0764
  865TIP3    H126790   3.177   3.654  16.792 -0.3881 -0.9066  0.4977
  865TIP3    H226791   3.165   3.698  16.936 -0.3331  0.3567  0.1308
  866TIP3   OH226792   0.450   0.504  16.641 -0.9960 -0.3011  0.8932
  866TIP3    H126793   0.535   0.548  16.633 -0.4128 -1.4999  0.2431
  866TIP3    H226794   0.398   0.563  16.696  0.2564  0.4409  1.3356
  867TIP3   OH226795   3.514   2.114  18.035 -0.2717 -0.7349  0.5498
  867TIP3    H126796   3.599   2.146  18.065 -0.4118  1.2769 -1.0140
  867TIP3    H226797   3.534   2.033  17.987  0.7813 -0.1700  0.0209
  868TIP3   OH226798   6.300   1.072  16.631 -0.0953 -0.0694 -0.2684
  868TIP3    H126799   6.285   1.142  16.568 -0.8055  1.5292  1.5778
  868TIP3    H226800   6.386   1.036  16.607  0.4586  1.6778 -1.0607
  869TIP3   OH226801   4.107   0.604  16.512  0.2963  0.1612 -0.4007
  869TIP3    H126802   4.111   0.694  16.479  0.6040 -0.2931 -1.6561
  869TIP3    H226803   4.168   0.603  16.586 -1.1932  1.4652  0.9076
  870TIP3   OH226804   1.090   7.604  17.216 -0.3275 -0.4531 -0.0243
  870TIP3    H126805   1.097   7.653  17.298  0.2126 -0.5342 -0.0183
  870TIP3    H226806   1.021   7.649  17.168 -0.5142 -0.2858  0.3917
  871TIP3   OH226807   3.227   1.481  17.735 -0.4138  0.6532 -0.0086
  871TIP3    H126808   3.270   1.448  17.814  0.6786  0.9998 -0.4487
  871TIP3    H226809   3.298   1.495  17.672 -1.4562 -1.8812 -1.9351
  872TIP3   OH226810   7.438   7.275  15.607  0.2766  0.3951 -0.2675
  872TIP3    H126811   7.523   7.237  15.629  0.2022  0.3525 -0.0575
  872TIP3    H226812   7.458   7.363  15.578  0.2054  1.1564  1.8229
  873TIP3   OH226813   3.562   8.150  16.119  1.2092 -0.2959  0.2750
  873TIP3    H126814   3.560   8.055  16.105  0.4907 -0.2228 -0.1639
  873TIP3    H226815   3.631   8.182  16.061  2.3137 -0.6771  1.3275
  874TIP3   OH226816   0.638   4.212  16.685  0.4310 -0.1384  0.3788
  874TIP3    H126817   0.623   4.131  16.732 -3.5641 -0.1914 -0.6805
  874TIP3    H226818   0.707   4.256  16.735  1.2081 -3.1448  2.2073
  875TIP3   OH226819   5.342   2.532  16.499  0.7968 -0.1746  0.2617
  875TIP3    H126820   5.355   2.617  16.541  0.1735 -0.1509  0.4212
  875TIP3    H226821   5.268   2.546  16.440  0.2526 -0.7705  0.7823
  876TIP3   OH226822   8.417   0.015  18.365 -0.0372 -0.0546  0.3172
  876TIP3    H126823   8.461   0.099  18.371 -0.7175  0.2375  3.5855
  876TIP3    H226824   8.342   0.030  18.307 -0.8192  2.0237  1.7328
  877TIP3   OH226825   2.079   1.281  17.628 -0.2037  0.1336 -0.2238
  877TIP3    H126826   2.009   1.217  17.618  1.2009 -1.2342 -2.3520
  877TIP3    H226827   2.065   1.344  17.557  1.6266 -1.2002 -1.8972
  878TIP3   OH226828   7.421   6.792  18.135  0.3247 -0.6545  0.5763
  878TIP3    H126829   7.352   6.847  18.172  1.2369  0.1343  1.1666
  878TIP3    H226830   7.376   6.713  18.106 -0.4403 -1.5798  3.8269
  879TIP3   OH226831   1.187   8.257  16.001  0.5224  0.4261 -0.0944
  879TIP3    H126832   1.108   8.300  16.033 -0.5359 -0.3904 -1.4699
  879TIP3    H226833   1.188   8.275  15.907  1.4799 -0.3345 -0.2489
  880TIP3   OH226834   2.882   1.825  15.605  0.2260  0.1890  0.0506
  880TIP3    H126835   2.959   1.866  15.646 -0.9588  4.3307 -1.4317
  880TIP3    H226836   2.812   1.836  15.669 -0.5445  2.4231 -1.0955
  881TIP3   OH226837   5.936   2.969  16.605  0.0811  0.2355  0.3035
  881TIP3    H126838   5.990   3.025  16.661 -0.5001 -0.7167  1.9004
  881TIP3    H226839   5.928   2.887  16.655 -0.1773 -0.7895 -1.3609
  882TIP3   OH226840   1.396   3.680  15.459  0.1678  0.0176  0.7319
  882TIP3    H126841   1.479   3.720  15.482 -0.0042 -0.1042  1.6055
  882TIP3    H226842   1.415   3.586  15.453  0.2768  0.0827  0.0752
  883TIP3   OH226843   2.138   7.416  16.812  0.1842 -0.4103  0.0348
  883TIP3    H126844   2.123   7.330  16.851 -0.4037  0.5716  2.1334
  883TIP3    H226845   2.126   7.477  16.884 -0.8032  1.5513 -1.6882
  884TIP3   OH226846   0.119   5.555  17.426 -0.2611  0.1756 -0.2521
  884TIP3    H126847   0.060   5.535  17.499 -1.9938  0.9466 -1.3684
  884TIP3    H226848   0.190   5.605  17.466 -1.1201  0.5041  0.9323
  885TIP3   OH226849   1.651   3.289  16.325  0.3876  0.0889 -0.1632
  885TIP3    H126850   1.604   3.281  16.408 -0.1730 -0.2104 -0.5023
  885TIP3    H226851   1.594   3.344  16.271 -1.0735 -2.6699 -1.6107
  886TIP3   OH226852   5.149   1.420  16.897 -0.0644  0.1114  0.0487
  886TIP3    H126853   5.127   1.370  16.818 -2.7150  0.6914  0.3425
  886TIP3    H226854   5.165   1.509  16.865  2.9991 -0.4179 -0.2545
  887TIP3   OH226855   1.904   1.822  16.998 -0.0235  0.0657 -0.5262
  887TIP3    H126856   1.939   1.744  16.955 -0.3351 -0.6619  0.5007
  887TIP3    H226857   1.825   1.844  16.948 -0.8427 -1.2567  0.0982
  888TIP3   OH226858   4.443   6.043  17.088 -0.2019 -0.0219  0.0519
  888TIP3    H126859   4.385   6.083  17.153 -0.2887  0.7906 -0.5085
  888TIP3    H226860   4.523   6.023  17.137 -0.6505 -0.4040  0.6452
  889TIP3   OH226861   0.370   6.379  15.812  0.2164 -0.2057 -0.1487
  889TIP3    H126862   0.282   6.353  15.784 -0.9043  2.7724  0.2459
  889TIP3    H226863   0.355   6.438  15.886  2.5177  0.7728 -0.3722
  890TIP3   OH226864   7.118   8.207  17.948  0.3324 -0.1883  0.3012
  890TIP3    H126865   7.188   8.272  17.940 -1.0047  1.3267  0.4529
  890TIP3    H226866   7.139   8.141  17.882  1.4985  0.6167 -0.1632
  891TIP3   OH226867   0.476   3.873  17.237  0.2617 -0.4896  0.0086
  891TIP3    H126868   0.447   3.815  17.168  0.3253 -2.3405  1.4630
  891TIP3    H226869   0.397   3.894  17.286  0.2836  0.4626 -0.3346
  892TIP3   OH226870   7.698   5.898  16.384 -0.2873 -0.2317  0.2040
  892TIP3    H126871   7.642   5.937  16.317 -1.2223 -0.8839  0.5987
  892TIP3    H226872   7.756   5.840  16.335  0.2989  0.7036 -0.2448
  893TIP3   OH226873   1.995   4.367  15.612 -0.0936  0.1403  0.2796
  893TIP3    H126874   2.034   4.441  15.659 -0.1172 -0.3932  1.1580
  893TIP3    H226875   1.910   4.400  15.582  0.3973  0.8453 -0.3860
  894TIP3   OH226876   0.756   8.076  16.966 -0.5113 -0.5484  0.0051
  894TIP3    H126877   0.710   8.152  16.931  3.4264  1.9991 -0.2706
  894TIP3    H226878   0.777   8.101  17.056  0.5483 -1.4356  0.0249
  895TIP3   OH226879   6.301   5.057  16.967  0.7240  0.1866 -0.0729
  895TIP3    H126880   6.213   5.071  16.931  0.9584 -1.1735 -1.3079
  895TIP3    H226881   6.353   5.129  16.932  0.2573  0.6074  0.0876
  896TIP3   OH226882   4.676   0.250  17.347  0.1144  0.9028  0.4875
  896TIP3    H126883   4.731   0.252  17.425  2.1413  0.5618 -0.8649
  896TIP3    H226884   4.626   0.169  17.354  0.2328  0.9008  1.4374
  897TIP3   OH226885   7.837   6.456  17.217 -0.0925  0.0120 -0.1537
  897TIP3    H126886   7.863   6.507  17.140 -0.4360  2.0369  1.0023
  897TIP3    H226887   7.899   6.383  17.219  2.1389  1.7834 -0.4781
  898TIP3   OH226888   5.589   1.994  17.424 -0.5878 -0.8785 -0.2316
  898TIP3    H126889   5.678   2.028  17.410 -0.7099 -1.0799 -1.5807
  898TIP3    H226890   5.573   2.010  17.517  1.1209 -1.4784  0.2082
  899TIP3   OH226891   6.211   3.152  18.135  0.0517  0.4209  0.2954
  899TIP3    H126892   6.185   3.120  18.221  0.7743 -0.5697  0.1572
  899TIP3    H226893   6.296   3.111  18.118 -0.9487 -0.9993 -1.7160
  900TIP3   OH226894   4.583   7.012  17.064  0.1796 -0.0554  0.1758
  900TIP3    H126895   4.631   6.930  17.079  0.5824  0.0011 -0.7855
  900TIP3    H226896   4.627   7.075  17.122  2.1705  0.3173 -1.6038
  901TIP3   OH226897   5.738   4.179  16.732 -0.3638 -0.0797 -0.0805
  901TIP3    H126898   5.754   4.225  16.815  0.2705  0.2502 -0.3780
  901TIP3    H226899   5.643   4.169  16.728 -0.3644 -0.6933  1.0094
  902TIP3   OH226900   7.169   7.622  16.490 -0.7745  0.0646  0.0806
  902TIP3    H126901   7.166   7.543  16.544  0.1546 -0.4860 -0.6488
  902TIP3    H226902   7.258   7.655  16.499  0.8087 -2.2391 -4.0574
  903TIP3   OH226903   7.168   7.839  15.778  0.1726  0.1631 -0.5438
  903TIP3    H126904   7.263   7.836  15.774  0.2410  1.4057 -0.2408
  903TIP3    H226905   7.139   7.774  15.713  1.1768 -2.1860  1.2163
  904TIP3   OH226906   4.478   8.336  17.064 -0.1884 -0.0342  0.1997
  904TIP3    H126907   4.437   8.352  16.979 -0.9970 -0.0464  0.5824
  904TIP3    H226908   4.572   8.332  17.045 -0.3877 -0.4698 -0.7605
  905TIP3   OH226909   4.473   6.159  17.501  0.4441  0.2657 -0.2507
  905TIP3    H126910   4.467   6.207  17.583  1.8315  0.0413  0.0020
  905TIP3    H226911   4.549   6.196  17.456  0.6152 -0.6482 -0.7405
  906TIP3   OH226912   1.345   7.725  17.489 -0.4835  0.1773 -0.1965
  906TIP3    H126913   1.252   7.741  17.506 -0.1883  1.1852  0.5908
  906TIP3    H226914   1.371   7.796  17.431 -0.3067 -0.3832 -0.8114
  907TIP3   OH226915   5.625   0.226  17.511 -0.5377  0.0346  0.3365
  907TIP3    H126916   5.624   0.293  17.579  1.1868 -0.5189  0.9534
  907TIP3    H226917   5.594   0.147  17.555  0.9707 -0.4220  0.6375
  908TIP3   OH226918   6.648   3.645  16.155  0.8542  0.6798 -0.5832
  908TIP3    H126919   6.714   3.620  16.091  1.2287 -0.5113  0.2385
  908TIP3    H226920   6.673   3.733  16.183  2.6335 -0.0807  0.3588
  909TIP3   OH226921   8.285   6.645  17.735 -0.0451 -0.2269 -0.0517
  909TIP3    H126922   8.192   6.621  17.738 -0.0615 -0.5854 -2.0937
  909TIP3    H226923   8.330   6.565  17.709  0.5285  0.5523 -1.5783
  910TIP3   OH226924   3.629   8.403  17.337 -0.3406  0.1117 -0.3570
  910TIP3    H126925   3.551   8.376  17.288  1.2981 -0.8413 -2.6066
  910TIP3    H226926   3.698   8.410  17.271  1.4985  0.9775  1.5369
  911TIP3   OH226927   0.541   2.172  16.722  0.0879  0.4472 -0.0878
  911TIP3    H126928   0.497   2.230  16.784 -0.7562 -0.8829  0.6287
  911TIP3    H226929   0.577   2.102  16.776  0.0915 -0.2931 -1.0096
  912TIP3   OH226930   8.285   1.263  17.077  0.0928  0.0139 -0.1570
  912TIP3    H126931   8.208   1.221  17.040  0.4390 -2.0513  1.2859
  912TIP3    H226932   8.279   1.355  17.049 -1.6725 -0.5896 -1.9125
  913TIP3   OH226933   7.750   5.375  17.043  0.5562  0.6028 -0.4029
  913TIP3    H126934   7.833   5.419  17.060  0.9433 -0.0617 -0.5449
  913TIP3    H226935   7.771   5.282  17.046 -0.5592  0.3675  1.5104
  914TIP3   OH226936   2.178   1.214  15.491 -0.3285 -0.1114 -0.5310
  914TIP3    H126937   2.142   1.228  15.403 -2.4173 -0.7689  0.1457
  914TIP3    H226938   2.161   1.121  15.508  1.4658 -0.3693  0.0040
  915TIP3   OH226939   0.236   3.991  17.382  0.2071 -0.6948 -0.0007
  915TIP3    H126940   0.271   4.074  17.348  0.7164 -0.8816  0.0628
  915TIP3    H226941   0.146   3.988  17.349  0.6860 -0.8681 -1.3404
  916TIP3   OH226942   1.611   7.841  15.891  0.7113  0.9924 -0.4593
  916TIP3    H126943   1.647   7.873  15.974 -0.9192  0.4366  0.5034
  916TIP3    H226944   1.629   7.747  15.892 -1.2166  0.5885  0.3327
  917TIP3   OH226945   2.845   2.275  17.374  0.0746  0.0953  0.0195
  917TIP3    H126946   2.804   2.224  17.304  0.0252 -0.7265  0.6334
  917TIP3    H226947   2.910   2.330  17.329 -0.2198 -0.1501 -0.7073
  918TIP3   OH226948   4.493   4.245  17.168 -0.2936 -0.4614 -0.2087
  918TIP3    H126949   4.577   4.292  17.162 -1.5479  1.9885  0.3465
  918TIP3    H226950   4.497   4.181  17.097  1.0864  1.2501 -1.7985
  919TIP3   OH226951   3.159   5.424  15.965 -0.6768  0.0750 -0.0496
  919TIP3    H126952   3.178   5.357  16.031  1.8875  2.4018  1.8061
  919TIP3    H226953   3.228   5.412  15.899  0.4773  1.4674  0.8504
  920TIP3   OH226954   8.334   6.905  17.897 -0.2572  0.3532  0.1010
  920TIP3    H126955   8.294   6.837  17.843  0.5012 -0.2579  0.2966
  920TIP3    H226956   8.425   6.908  17.870 -0.7548  3.0766 -1.7170
  921TIP3   OH226957   2.056   2.285  16.153  0.0251  0.1558 -0.2057
  921TIP3    H126958   2.056   2.253  16.063 -1.5087  3.0727 -1.3699
  921TIP3    H226959   2.065   2.380  16.145 -1.3191  0.6301  2.6259
  922TIP3   OH226960   2.206   2.150  15.534 -0.1364 -0.7871  0.5100
  922TIP3    H126961   2.299   2.169  15.527 -0.1160 -1.1833 -0.4639
  922TIP3    H226962   2.192   2.075  15.476 -1.0045 -0.9310  0.8815
  923TIP3   OH226963   1.314   5.796  17.904 -0.2299 -0.1998  0.2282
  923TIP3    H126964   1.292   5.878  17.948  0.9056  0.5166 -0.5049
  923TIP3    H226965   1.303   5.814  17.811 -0.3406 -0.9961  0.0769
  924TIP3   OH226966   2.944   4.234  17.367  0.1980  0.2005  0.7112
  924TIP3    H126967   2.987   4.169  17.423  1.0364  0.5312  0.4782
  924TIP3    H226968   2.881   4.277  17.424  1.0952  0.5839  1.4460
  925TIP3   OH226969   8.172   1.459  17.348  0.4123 -0.4531 -0.3296
  925TIP3    H126970   8.214   1.414  17.421  1.6277 -1.2971 -1.5077
  925TIP3    H226971   8.230   1.443  17.273 -0.8895  0.2323 -1.5284
  926TIP3   OH226972   7.110   5.873  17.622  0.4813 -0.4283  0.1623
  926TIP3    H126973   7.100   5.958  17.579 -0.2842 -0.7381 -0.3019
  926TIP3    H226974   7.166   5.823  17.562  0.0230 -0.6139 -0.1151
  927TIP3   OH226975   1.932   3.706  16.834 -0.0562  0.6590 -0.5951
  927TIP3    H126976   1.999   3.760  16.877  0.2215  2.4072 -2.9884
  927TIP3    H226977   1.857   3.709  16.893  0.7334  1.7970  0.4003
  928TIP3   OH226978   0.633   5.389  16.923 -0.2284 -0.6599 -0.0584
  928TIP3    H126979   0.600   5.301  16.907  0.3395 -0.6570 -1.3945
  928TIP3    H226980   0.575   5.446  16.872  0.1989 -0.3949 -0.2528
  929TIP3   OH226981   7.572   8.332  17.297  0.4934  0.3235  0.1435
  929TIP3    H126982   7.624   8.409  17.273  1.7703 -0.1194  1.3665
  929TIP3    H226983   7.495   8.337  17.240  1.5659  1.3316 -1.3081
  930TIP3   OH226984   0.443   4.436  16.654 -0.5716 -0.2894  0.4727
  930TIP3    H126985   0.441   4.461  16.746  1.0529  4.8038 -0.5012
  930TIP3    H226986   0.533   4.408  16.639 -0.0750  1.3547  0.1021
  931TIP3   OH226987   6.938   2.347  16.133 -0.5196 -0.1903 -0.2410
  931TIP3    H126988   6.884   2.268  16.141  0.7377 -0.9578  1.0408
  931TIP3    H226989   7.022   2.315  16.101  0.4753  0.4117  1.6703
  932TIP3   OH226990   1.479   7.348  16.515  0.6947 -0.2231 -0.7057
  932TIP3    H126991   1.538   7.277  16.490  0.4465 -0.1556 -1.5012
  932TIP3    H226992   1.522   7.428  16.485 -0.1782 -0.2334 -2.1031
  933TIP3   OH226993   7.673   2.486  16.587  0.4159 -0.2834  0.4296
  933TIP3    H126994   7.597   2.537  16.559  0.2762 -0.3816  0.6280
  933TIP3    H226995   7.723   2.545  16.643 -0.7793 -0.9846  2.3150
  934TIP3   OH226996   3.868   7.570  16.354  0.7577 -0.0823  0.3813
  934TIP3    H126997   3.903   7.517  16.426  0.4047 -0.4162  0.3114
  934TIP3    H226998   3.944   7.587  16.298  1.5122  1.9805  1.8938
  935TIP3   OH226999   3.614   8.126  16.626 -0.1241 -0.4018 -0.3381
  935TIP3    H127000   3.638   8.218  16.614  2.5284 -1.0699 -0.8640
  935TIP3    H227001   3.548   8.108  16.559 -0.7746  1.1131 -0.1402
  936TIP3   OH227002   1.545   7.563  16.004 -0.0410 -0.6679  0.1874
  936TIP3    H127003   1.490   7.543  15.928 -0.6302  2.0906 -0.2072
  936TIP3    H227004   1.491   7.537  16.079 -0.8429 -0.3650 -0.2671
  937TIP3   OH227005   3.838   8.336  17.736 -0.3671  0.3397 -0.7135
  937TIP3    H127006   3.858   8.362  17.826 -0.7593  0.0064 -0.5294
  937TIP3    H227007   3.920   8.349  17.689  0.4051 -1.2737  0.0919
  938TIP3   OH227008   7.775   4.055  17.495 -0.2380 -0.4492 -0.3530
  938TIP3    H127009   7.686   4.066  17.530 -0.8610 -1.6279 -1.4552
  938TIP3    H227010   7.796   4.140  17.456 -1.5936 -0.6270 -1.5586
  939TIP3   OH227011   3.629   5.101  17.282  0.4245 -0.5776 -0.1106
  939TIP3    H127012   3.598   5.011  17.271 -1.3881  0.0598 -0.5532
  939TIP3    H227013   3.631   5.137  17.194  0.2481  0.0989  0.1575
  940TIP3   OH227014   7.813   8.048  16.045  0.2588 -0.0269 -0.0043
  940TIP3    H127015   7.835   7.974  16.102  0.3368  0.2642  0.3447
  940TIP3    H227016   7.777   8.114  16.104  0.2171  0.2275 -0.3088
  941TIP3   OH227017   1.905   0.167  15.783 -0.2276 -0.2501  0.0814
  941TIP3    H127018   1.937   0.187  15.695 -0.3363  0.7790  0.2630
  941TIP3    H227019   1.951   0.229  15.840 -1.3812  0.2024  0.5376
  942TIP3   OH227020   6.806   0.370  16.971 -0.3146 -1.0564  0.6304
  942TIP3    H127021   6.855   0.296  17.008  2.7207  0.7687  0.5605
  942TIP3    H227022   6.823   0.365  16.877 -1.1105 -0.9472  0.4767
  943TIP3   OH227023   7.533   1.741  17.203  0.1404 -0.5169 -0.7531
  943TIP3    H127024   7.568   1.686  17.133  1.4465 -0.9824  0.2136
  943TIP3    H227025   7.547   1.690  17.282 -1.9087 -0.2874 -0.1757
  944TIP3   OH227026   6.135   6.760  16.712 -0.0812  0.5212  0.0874
  944TIP3    H127027   6.200   6.747  16.781  1.1677  1.0772 -0.9476
  944TIP3    H227028   6.181   6.740  16.631 -0.5956  2.8401 -0.8607
  945TIP3   OH227029   5.651   5.495  17.369 -0.3786  0.1504 -0.4054
  945TIP3    H127030   5.612   5.480  17.283 -3.2637 -0.2184  0.8499
  945TIP3    H227031   5.659   5.590  17.375  1.5172  0.1162 -1.7025
  946TIP3   OH227032   2.435   3.239  17.224  0.0996  0.4373  0.1586
  946TIP3    H127033   2.424   3.332  17.204  0.5920  0.2132 -1.2528
  946TIP3    H227034   2.363   3.196  17.176 -0.8850  0.1753  1.7960
  947TIP3   OH227035   3.423   1.477  17.038  0.1831  0.1569 -0.1037
  947TIP3    H127036   3.384   1.488  17.124  2.0915  0.0956  0.8236
  947TIP3    H227037   3.426   1.382  17.025  0.2598  0.1524 -0.0535
  948TIP3   OH227038   5.880   3.244  17.703  0.1140 -0.6249 -0.0022
  948TIP3    H127039   5.968   3.210  17.688 -0.5827 -1.5916 -2.1766
  948TIP3    H227040   5.889   3.339  17.689  0.6915 -0.7925 -0.8513
  949TIP3   OH227041   6.496   0.803  15.930 -0.0148 -0.1597 -0.1434
  949TIP3    H127042   6.552   0.740  15.885 -1.2889 -1.1943 -0.3403
  949TIP3    H227043   6.514   0.790  16.023  1.1531  0.5852 -0.2415
  950TIP3   OH227044   3.044   8.262  16.657 -0.2743  0.5043 -0.2035
  950TIP3    H127045   3.128   8.255  16.701 -0.3615 -0.5472 -0.1986
  950TIP3    H227046   3.063   8.242  16.565 -0.3285  1.3860 -0.4212
  951TIP3   OH227047   6.717   2.930  17.541 -0.4909  0.2887  0.2408
  951TIP3    H127048   6.649   2.966  17.597  0.1725 -0.6096  1.6988
  951TIP3    H227049   6.795   2.982  17.562 -0.1550 -0.2810  0.4397
  952TIP3   OH227050   0.643   0.549  15.683 -0.4590 -0.1230  0.2151
  952TIP3    H127051   0.624   0.601  15.761  0.2940 -0.5552  0.6978
  952TIP3    H227052   0.726   0.585  15.650 -0.0324 -0.8848  0.4429
  953TIP3   OH227053   8.284   8.284  15.644  0.2375 -0.1179  0.5192
  953TIP3    H127054   8.380   8.288  15.651  0.2101 -1.4458  2.3646
  953TIP3    H227055   8.255   8.373  15.663  1.0616  0.0184  1.2297
  954TIP3   OH227056   1.235   0.824  16.799  0.3336  0.5830 -0.0406
  954TIP3    H127057   1.282   0.743  16.778  0.0787  0.5708 -0.5841
  954TIP3    H227058   1.204   0.811  16.888  0.3936  0.1207 -0.0837
  955TIP3   OH227059   7.915   2.293  17.304  0.7666 -0.0391  0.8563
  955TIP3    H127060   7.988   2.354  17.293 -0.3561  1.8817  3.0165
  955TIP3    H227061   7.837   2.349  17.305 -0.7733 -1.9786 -1.0052
  956TIP3   OH227062   5.045   6.208  17.285 -0.3315 -0.2463 -0.2284
  956TIP3    H127063   5.032   6.114  17.297  0.2083 -0.3029 -0.0636
  956TIP3    H227064   4.960   6.247  17.309 -0.1495 -0.5916  1.0587
  957TIP3   OH227065   3.303   1.797  17.558  0.2047 -0.0306  0.3725
  957TIP3    H127066   3.377   1.844  17.596  1.0051 -1.1204  0.2143
  957TIP3    H227067   3.313   1.809  17.464 -0.6074  0.9418  0.3905
  958TIP3   OH227068   5.495   0.326  16.462 -0.4335  0.4204 -0.0577
  958TIP3    H127069   5.509   0.237  16.430 -0.0665  0.6805 -0.6317
  958TIP3    H227070   5.466   0.315  16.553  0.0375 -0.2608  0.0107
  959TIP3   OH227071   7.712   1.189  16.387  0.3231 -0.1485  0.1584
  959TIP3    H127072   7.719   1.183  16.292  0.5161  1.0853  0.0877
  959TIP3    H227073   7.784   1.135  16.420  0.1073 -0.7767 -0.3828
  960TIP3   OH227074   6.794   2.733  15.699  0.1471  0.8503 -0.0362
  960TIP3    H127075   6.787   2.647  15.657  2.1359  1.3002 -1.4328
  960TIP3    H227076   6.812   2.713  15.791  0.9971 -0.2620 -0.4237
  961TIP3   OH227077   8.424   2.922  18.062  0.4321  0.6418  0.1504
  961TIP3    H127078   8.460   2.847  18.015 -0.2179  0.7022 -0.4455
  961TIP3    H227079   8.351   2.952  18.009  0.2686  1.2907  0.7225
  962TIP3   OH227080   7.373   6.050  15.942  0.1446  0.3603 -0.2602
  962TIP3    H127081   7.452   6.092  15.976 -0.9978  1.7441  0.8175
  962TIP3    H227082   7.342   6.110  15.873  0.7156 -0.8434 -1.6266
  963TIP3   OH227083   5.566   5.980  17.114 -1.2597  0.0618 -0.2439
  963TIP3    H127084   5.633   5.946  17.054  0.7471  1.0536  1.3317
  963TIP3    H227085   5.529   5.903  17.155  0.4950 -0.4608  0.4458
  964TIP3   OH227086   2.664   2.960  15.854 -0.2833  0.0106 -0.2419
  964TIP3    H127087   2.685   3.044  15.894  0.1417 -0.6877  1.0417
  964TIP3    H227088   2.676   2.896  15.924 -1.1727 -1.0622 -1.0323
  965TIP3   OH227089   0.909   0.346  17.192 -0.4544  0.8335 -0.0907
  965TIP3    H127090   0.822   0.361  17.228 -0.2614  0.8593  0.3690
  965TIP3    H227091   0.967   0.348  17.268 -0.2305 -0.6394 -0.1924
  966TIP3   OH227092   7.352   2.992  16.530 -0.0892  0.1588  0.1441
  966TIP3    H127093   7.313   2.965  16.447  0.5572 -2.4738  0.6093
  966TIP3    H227094   7.288   2.967  16.596  1.1125 -1.5959  0.7012
  967TIP3   OH227095   7.508   5.418  17.282  0.5979 -0.5239 -0.5318
  967TIP3    H127096   7.554   5.457  17.208 -2.7515  3.8555 -0.7406
  967TIP3    H227097   7.561   5.440  17.358  0.0937  2.5158 -0.9499
  968TIP3   OH227098   1.272   5.764  16.826  0.0562  0.1575 -0.0838
  968TIP3    H127099   1.261   5.709  16.749 -1.9961  0.5411 -0.1201
  968TIP3    H227100   1.365   5.757  16.848 -0.0218 -2.9332 -0.3614
  969TIP3   OH227101   2.989   4.848  16.521 -0.4328  0.7614  0.1951
  969TIP3    H127102   3.031   4.837  16.606  1.1563 -0.1741 -0.6618
  969TIP3    H227103   2.908   4.797  16.527 -0.4622  0.9160  1.2161
  970TIP3   OH227104   5.400   3.896  15.978 -0.1831  0.1728 -0.0863
  970TIP3    H127105   5.346   3.973  15.959  0.6993  0.8633  0.1808
  970TIP3    H227106   5.461   3.891  15.904  0.5271  0.4149  0.4843
  971TIP3   OH227107   1.296   1.801  16.874 -0.7255  0.0478 -0.3615
  971TIP3    H127108   1.316   1.894  16.868 -1.1451  0.1339 -0.3947
  971TIP3    H227109   1.257   1.789  16.960 -1.3814  0.0372 -0.6534
  972TIP3   OH227110   1.812   2.120  16.735  0.2384 -0.1379 -0.2729
  972TIP3    H127111   1.873   2.176  16.783  0.0256 -1.1544  1.2338
  972TIP3    H227112   1.863   2.042  16.713 -0.4421 -0.9739  0.9524
  973TIP3   OH227113   7.371   7.737  17.858 -0.7253  0.4349 -0.3498
  973TIP3    H127114   7.461   7.719  17.885 -1.3665 -1.1970  0.8863
  973TIP3    H227115   7.366   7.704  17.768 -0.6547 -1.6505  0.3613
  974TIP3   OH227116   2.277   3.827  16.171  0.7335 -0.1150 -0.0184
  974TIP3    H127117   2.282   3.794  16.082  2.3896 -1.9204  0.6750
  974TIP3    H227118   2.360   3.874  16.184  0.0825  0.9854  0.2755
  975TIP3   OH227119   5.082   4.291  17.031 -0.2713 -0.2268  0.1679
  975TIP3    H127120   5.148   4.232  17.068  1.0482  1.4614  0.6765
  975TIP3    H227121   5.133   4.360  16.988 -1.7650 -0.1713 -1.6244
  976TIP3   OH227122   0.631   5.739  17.926  0.5201  1.0610 -0.3758
  976TIP3    H127123   0.694   5.748  17.998 -0.7699  0.2126  0.9048
  976TIP3    H227124   0.686   5.733  17.848  2.0903 -0.1292  0.7398
  977TIP3   OH227125   6.008   0.443  17.309 -0.0346 -0.3508  0.0788
  977TIP3    H127126   6.014   0.538  17.309 -0.7322 -0.3002 -0.1502
  977TIP3    H227127   5.921   0.424  17.273  0.1327 -1.0751  0.0304
  978TIP3   OH227128   2.887   0.286  15.376  0.0996 -0.0727  0.4265
  978TIP3    H127129   2.821   0.307  15.442  1.2006  0.6455  1.3462
  978TIP3    H227130   2.865   0.342  15.301  0.0950  0.7032  1.0004
  979TIP3   OH227131   1.605   8.225  17.411  0.3122 -0.1581 -0.1503
  979TIP3    H127132   1.670   8.171  17.455  0.3253 -1.0599 -1.2212
  979TIP3    H227133   1.652   8.305  17.388  0.5960 -0.1363  0.4800
  980TIP3   OH227134   2.013   2.066  17.004 -0.0421  0.1354 -0.4614
  980TIP3    H127135   2.056   2.059  16.919  0.9394  0.0028  0.0275
  980TIP3    H227136   1.972   1.980  17.018 -1.2218  0.5382 -1.3083
  981TIP3   OH227137   6.997   0.227  16.406  0.6713  0.9135 -0.1071
  981TIP3    H127138   6.904   0.246  16.417  0.3561 -0.4077 -0.3334
  981TIP3    H227139   7.023   0.274  16.327  0.1868  1.2500 -0.0667
  982TIP3   OH227140   4.354   4.994  16.857 -0.2293 -0.4120  0.6926
  982TIP3    H127141   4.312   4.973  16.941 -2.6792 -0.1004 -0.3685
  982TIP3    H227142   4.333   4.920  16.800  1.2055 -0.5139  0.2663
  983TIP3   OH227143   4.223   2.106  16.874  0.2401  0.1501  0.2804
  983TIP3    H127144   4.228   2.042  16.946 -2.9302  1.2357  1.6623
  983TIP3    H227145   4.304   2.156  16.881  0.7666 -0.8545  2.0353
  984TIP3   OH227146   5.079   6.225  17.636 -0.2213  0.1892 -0.2690
  984TIP3    H127147   5.080   6.310  17.681 -0.1582 -0.3140  0.7126
  984TIP3    H227148   5.157   6.226  17.581  1.1093 -0.1222  1.5055
  985TIP3   OH227149   6.336   2.351  16.909 -0.5834  0.2940  0.7118
  985TIP3    H127150   6.385   2.273  16.884 -0.5973  0.2578  0.7973
  985TIP3    H227151   6.246   2.321  16.920 -0.3441  0.0230  2.1345
  986TIP3   OH227152   8.025   0.122  16.463 -0.5918  0.2359 -0.3242
  986TIP3    H127153   7.989   0.164  16.385 -2.3824 -1.8882 -0.7675
  986TIP3    H227154   8.007   0.029  16.450  0.5268 -0.3637  1.8929
  987TIP3   OH227155   6.074   6.978  18.083  0.2826 -0.3141 -0.5577
  987TIP3    H127156   6.165   6.984  18.055 -0.2652 -1.0546 -2.6475
  987TIP3    H227157   6.033   7.056  18.045 -0.6778 -1.8277 -2.8282
  988TIP3   OH227158   6.802   6.701  17.701  0.0870 -0.1734  0.4629
  988TIP3    H127159   6.821   6.715  17.608  1.2326 -0.2198  0.6818
  988TIP3    H227160   6.841   6.616  17.721 -0.9768 -0.6140  0.7787
  989TIP3   OH227161   7.360   4.641  16.559  0.4334  1.0643 -0.2533
  989TIP3    H127162   7.386   4.724  16.521 -1.0944  1.8129  0.2454
  989TIP3    H227163   7.347   4.660  16.652  2.2397 -0.2829  0.3364
  990TIP3   OH227164   5.772   4.707  15.862 -0.1419  0.6378  0.7169
  990TIP3    H127165   5.749   4.620  15.830  0.5179  0.6023  0.3222
  990TIP3    H227166   5.688   4.747  15.886 -0.3329 -0.6419  2.2987
  991TIP3   OH227167   1.591   4.287  16.600  0.2476 -0.6174 -0.4365
  991TIP3    H127168   1.670   4.271  16.548  0.0416  0.7632 -1.2368
  991TIP3    H227169   1.583   4.383  16.600 -1.9185 -0.7566 -1.1349
  992TIP3   OH227170   1.760   3.165  17.243 -0.4845  0.0547  0.0683
  992TIP3    H127171   1.683   3.124  17.204  0.2571  0.0882 -1.4961
  992TIP3    H227172   1.769   3.249  17.198 -0.0653  0.4826  0.9043
  993TIP3   OH227173   4.350   2.794  17.472 -0.2461 -0.3629 -0.2891
  993TIP3    H127174   4.306   2.856  17.530  0.5261 -0.0553 -0.0118
  993TIP3    H227175   4.432   2.838  17.449 -0.0815 -0.9218 -0.7854
  994TIP3   OH227176   7.394   2.895  17.309  0.7198 -0.2499  0.7385
  994TIP3    H127177   7.309   2.852  17.314  0.2358  0.6572  0.5072
  994TIP3    H227178   7.449   2.834  17.261  0.4371 -1.2061  1.5808
  995TIP3   OH227179   1.256   4.358  17.725  0.4371  0.3651  0.1501
  995TIP3    H127180   1.333   4.360  17.783 -0.6760  1.3450  1.6682
  995TIP3    H227181   1.268   4.433  17.667 -0.3610  1.8607  1.8126
  996TIP3   OH227182   0.627   2.873  16.312 -0.6861 -0.1736 -0.5043
  996TIP3    H127183   0.634   2.798  16.253  0.8261 -0.9537  0.5970
  996TIP3    H227184   0.554   2.852  16.369  1.4861 -2.3071  1.7037
  997TIP3   OH227185   7.244   8.098  17.315  0.2609  0.1633  0.2279
  997TIP3    H127186   7.192   8.156  17.260  0.8920  0.9172  0.4028
  997TIP3    H227187   7.320   8.151  17.340  1.2520 -0.9997 -0.2555
  998TIP3   OH227188   5.477   3.973  17.235  0.3143 -0.4158 -0.4165
  998TIP3    H127189   5.511   3.925  17.310 -1.9496 -1.4972  0.0093
  998TIP3    H227190   5.540   3.955  17.164 -0.1147 -3.6932 -0.1529
  999TIP3   OH227191   3.115   2.905  17.247 -0.4854 -0.0434 -0.4450
  999TIP3    H127192   3.072   2.847  17.309 -0.7091 -0.4467 -0.9743
  999TIP3    H227193   3.131   2.851  17.170  0.5164  0.2358 -0.4489
 1000TIP3   OH227194   7.918   1.951  17.991  0.3194 -0.5245 -0.1231
 1000TIP3    H127195   7.983   1.966  17.922  1.3380 -2.3386  0.3676
 1000TIP3    H227196   7.969   1.915  18.064 -1.1265 -1.2586  0.5653
 1001TIP3   OH227197   1.163   3.505  17.084  0.1170 -0.5280  0.2327
 1001TIP3    H127198   1.111   3.441  17.036  0.3714 -0.6830  0.1623
 1001TIP3    H227199   1.099   3.566  17.120  0.0560  1.4445 -2.8710
 1002TIP3   OH227200   0.484   8.366  15.889  0.1102  0.5845 -0.3425
 1002TIP3    H127201   0.405   8.412  15.917  1.1107  2.3799 -0.3803
 1002TIP3    H227202   0.452   8.304  15.823 -1.2965  1.1108 -0.1941
 1003TIP3   OH227203   1.752   1.617  17.476  0.3461  0.3646  0.5506
 1003TIP3    H127204   1.677   1.676  17.467  0.0566  0.1476  1.4352
 1003TIP3    H227205   1.765   1.582  17.388 -1.1569 -0.2616  0.5417
 1004TIP3   OH227206   5.324   5.722  17.687 -0.0935  0.2472  0.2242
 1004TIP3    H127207   5.357   5.633  17.673  0.1559  0.3969 -0.1413
 1004TIP3    H227208   5.367   5.751  17.767 -2.3677 -1.0261  2.0614
 1005TIP3   OH227209   8.436   4.880  16.534 -0.1942  0.0021  0.1190
 1005TIP3    H127210   8.508   4.851  16.591  0.0135 -0.0450 -0.1623
 1005TIP3    H227211   8.397   4.954  16.580  0.7045  0.6977 -0.2181
 1006TIP3   OH227212   0.101   5.284  17.354  0.6192 -0.3724  0.0411
 1006TIP3    H127213   0.084   5.297  17.261 -2.3051 -1.3919  0.3560
 1006TIP3    H227214   0.118   5.372  17.388  2.6855 -0.0776 -1.5318
 1007TIP3   OH227215   4.356   2.528  16.247  0.0942  0.0710 -0.1493
 1007TIP3    H127216   4.391   2.559  16.331 -0.4074  0.3380 -0.0284
 1007TIP3    H227217   4.430   2.489  16.202  0.5961  0.8413 -0.0039
 1008TIP3   OH227218   3.017   3.170  17.233 -0.0189 -0.3263  0.1664
 1008TIP3    H127219   3.063   3.087  17.221  0.2804 -0.1526  0.0931
 1008TIP3    H227220   3.010   3.180  17.328  0.5338 -0.1234  0.1950
 1009TIP3   OH227221   2.140   4.237  16.444  0.4348  0.7720 -0.2480
 1009TIP3    H127222   2.090   4.162  16.413  0.8197  1.2490 -2.1763
 1009TIP3    H227223   2.182   4.207  16.524 -0.6510 -0.5460 -0.1438
 1010TIP3   OH227224   1.718   1.331  17.164  0.0066  0.0416 -0.2735
 1010TIP3    H127225   1.718   1.267  17.093  0.9304  0.2987 -0.5246
 1010TIP3    H227226   1.725   1.278  17.244 -1.8525 -0.2988 -0.2830
 1011TIP3   OH227227   1.026   2.451  15.679  0.2317 -0.1651 -0.2666
 1011TIP3    H127228   0.971   2.528  15.692  0.5987 -0.0146  0.4441
 1011TIP3    H227229   1.114   2.486  15.666  0.2324 -0.4223 -1.0479
 1012TIP3   OH227230   2.082   3.961  17.219 -0.0386  0.0973 -0.2184
 1012TIP3    H127231   2.128   4.018  17.157  0.4718 -0.7250 -0.6044
 1012TIP3    H227232   2.135   3.966  17.299  0.1921 -0.1004 -0.3585
 1013TIP3   OH227233   4.774   2.737  17.259 -0.1687  0.2752  0.2438
 1013TIP3    H127234   4.744   2.721  17.170  0.3136  1.2585 -0.1116
 1013TIP3    H227235   4.823   2.659  17.283 -2.0667 -0.9249  0.4503
 1014TIP3   OH227236   1.289   6.645  17.567  0.1146 -0.0652 -0.3104
 1014TIP3    H127237   1.336   6.566  17.593  1.2138  0.9007  0.7753
 1014TIP3    H227238   1.265   6.631  17.475 -1.8030 -2.6295  0.4557
 1015TIP3   OH227239   7.495   4.434  16.999  0.2252  0.3020 -0.3060
 1015TIP3    H127240   7.552   4.416  16.925  0.4453 -3.5967  0.6329
 1015TIP3    H227241   7.555   4.449  17.072  0.1186 -1.9036  0.2804
 1016TIP3   OH227242   5.575   0.771  16.147 -0.4001 -0.0995  0.6812
 1016TIP3    H127243   5.484   0.745  16.161 -0.7802  0.4059 -0.6506
 1016TIP3    H227244   5.612   0.776  16.235 -1.7754  0.1110  1.2858
 1017TIP3   OH227245   6.658   1.515  15.729  0.4936  0.0330  0.1115
 1017TIP3    H127246   6.630   1.456  15.799  0.0708 -0.5008 -0.5070
 1017TIP3    H227247   6.640   1.603  15.764 -1.5306 -0.2668 -0.0766
 1018TIP3   OH227248   6.365   4.230  17.262 -0.0305 -0.2531 -0.0233
 1018TIP3    H127249   6.345   4.323  17.249  0.1670 -0.3154 -0.8167
 1018TIP3    H227250   6.461   4.227  17.268  0.0425 -0.5159 -1.0615
 1019TIP3   OH227251   2.991   7.620  17.221  0.4218  0.0481  0.0210
 1019TIP3    H127252   3.028   7.707  17.204  0.2051 -0.2629 -2.3129
 1019TIP3    H227253   2.896   7.634  17.218  0.3573 -0.5507 -2.3768
 1020TIP3   OH227254   6.374   8.325  16.171  0.8172  0.0488  0.1930
 1020TIP3    H127255   6.446   8.387  16.164 -0.6445  2.3834  3.6903
 1020TIP3    H227256   6.316   8.348  16.099  1.8714  0.4234 -0.5652
 1021TIP3   OH227257   4.271   2.106  15.752  0.3535  0.2622  0.5678
 1021TIP3    H127258   4.328   2.051  15.699  0.1687  1.5005 -0.9725
 1021TIP3    H227259   4.306   2.194  15.743 -1.7326  1.0732 -0.4152
 1022TIP3   OH227260   4.335   4.838  16.590 -0.3161  0.0634 -0.1296
 1022TIP3    H127261   4.407   4.781  16.562 -0.1019  0.3583 -0.1962
 1022TIP3    H227262   4.281   4.850  16.512 -0.2274  0.1437 -0.1791
 1023TIP3   OH227263   1.979   7.261  17.583  0.0231  0.1587 -0.8453
 1023TIP3    H127264   2.062   7.305  17.567 -0.4308  0.7750 -1.5799
 1023TIP3    H227265   1.937   7.313  17.652  1.1222 -1.3603  1.0745
 1024TIP3   OH227266   2.356   2.724  17.772  0.1580  0.3991 -0.0116
 1024TIP3    H127267   2.370   2.715  17.678  0.8935 -0.2380  0.1511
 1024TIP3    H227268   2.290   2.793  17.779 -1.2712 -0.7950 -1.0608
 1025TIP3   OH227269   5.773   6.638  17.344 -0.5007 -0.0739  0.5327
 1025TIP3    H127270   5.686   6.676  17.343 -0.0869  0.9045  0.0600
 1025TIP3    H227271   5.763   6.553  17.302 -1.4699 -0.5846  1.7254
 1026TIP3   OH227272   7.299   7.998  17.805 -0.0130  0.1303  0.3706
 1026TIP3    H127273   7.298   7.902  17.810  0.3454  0.1252  0.3496
 1026TIP3    H227274   7.391   8.022  17.814 -0.0816  0.4664  0.2010
 1027TIP3   OH227275   2.374   5.808  17.581 -0.1363  0.2442  0.4070
 1027TIP3    H127276   2.404   5.719  17.565 -0.7381  0.2293 -0.7755
 1027TIP3    H227277   2.311   5.801  17.653 -0.0520 -0.2554  0.4291
 1028TIP3   OH227278   7.981   8.348  16.982 -0.1703 -0.2101  0.4118
 1028TIP3    H127279   7.972   8.324  17.075 -3.2623 -1.4147 -0.0839
 1028TIP3    H227280   8.038   8.281  16.946 -0.0649 -0.5500  1.1748
 1029TIP3   OH227281   0.960   6.300  16.735 -0.1464  0.7455 -0.3154
 1029TIP3    H127282   0.974   6.386  16.775 -0.6080 -0.0172  1.5625
 1029TIP3    H227283   0.868   6.280  16.753  0.5857 -1.2550  1.6576
 1030TIP3   OH227284   7.704   1.860  17.516  0.2456 -0.0099  0.0519
 1030TIP3    H127285   7.622   1.908  17.533 -0.4473 -1.5396  1.3357
 1030TIP3    H227286   7.731   1.888  17.429 -2.6749 -0.7905 -1.2330
 1031TIP3   OH227287   3.614   1.918  17.390  0.0121  0.2318  0.2641
 1031TIP3    H127288   3.639   2.007  17.363 -2.4192  0.6163 -1.0098
 1031TIP3    H227289   3.581   1.928  17.479  0.8403  0.3821  0.5585
 1032TIP3   OH227290   8.247   2.726  17.068  0.3375  0.5822  0.3658
 1032TIP3    H127291   8.241   2.784  17.144 -0.9435 -0.9545  1.4786
 1032TIP3    H227292   8.329   2.752  17.026  0.0979  2.8128  1.1110
 1033TIP3   OH227293   6.864   5.078  16.285  0.3103  0.8703 -0.0039
 1033TIP3    H127294   6.885   5.101  16.194 -2.0686  2.8545 -0.1683
 1033TIP3    H227295   6.903   5.148  16.337 -0.7873  1.3862  0.1744
 1034TIP3   OH227296   7.282   1.266  17.710 -0.4464  0.7846 -0.2893
 1034TIP3    H127297   7.320   1.284  17.624 -0.5131  0.7403 -0.3295
 1034TIP3    H227298   7.324   1.328  17.769  0.4276  0.0788 -0.1430
 1035TIP3   OH227299   3.204   2.872  17.858  0.1586  0.1510  0.0225
 1035TIP3    H127300   3.188   2.840  17.946  0.5571  0.9900  0.4081
 1035TIP3    H227301   3.281   2.822  17.828 -0.1783 -0.3674  0.0195
 1036TIP3   OH227302   6.326   1.747  15.528  0.4864  0.1605  0.2948
 1036TIP3    H127303   6.241   1.710  15.503  0.8642 -0.3290 -0.2717
 1036TIP3    H227304   6.333   1.828  15.477  0.0247  0.6069  0.9227
 1037TIP3   OH227305   2.319   2.097  16.412 -0.2925  0.2559 -0.0502
 1037TIP3    H127306   2.397   2.057  16.451  1.3679  0.6174 -2.8021
 1037TIP3    H227307   2.260   2.023  16.396  0.6317 -0.4085 -0.4615
 1038TIP3   OH227308   3.131   2.140  16.857  0.8852 -0.2380  0.2598
 1038TIP3    H127309   3.079   2.175  16.785  4.0987  1.6878 -1.3915
 1038TIP3    H227310   3.094   2.054  16.875 -2.5530  0.8459 -0.8823
 1039TIP3   OH227311   6.810   3.093  17.167 -0.2111  0.1535  0.0819
 1039TIP3    H127312   6.763   3.034  17.108 -1.6434  1.2310  0.0932
 1039TIP3    H227313   6.872   3.139  17.110  0.7334 -1.1219  0.0273
 1040TIP3   OH227314   2.952   2.568  16.981 -0.1600  0.4336 -0.2347
 1040TIP3    H127315   2.949   2.558  16.886  2.8908  0.3082 -0.4099
 1040TIP3    H227316   2.860   2.564  17.008 -1.0111 -1.6521 -2.9342
 1041TIP3   OH227317   1.704   7.835  15.635 -0.1242  0.0797  0.1043
 1041TIP3    H127318   1.630   7.842  15.696 -0.9467 -0.3773 -0.8036
 1041TIP3    H227319   1.759   7.910  15.655 -0.7599  0.3440  0.9173
 1042TIP3   OH227320   1.828   0.965  16.596  0.6667  0.2225 -0.3928
 1042TIP3    H127321   1.768   0.943  16.668  1.4630  0.2346  0.2960
 1042TIP3    H227322   1.869   0.882  16.572  2.3840  0.5994  1.0235
 1043TIP3   OH227323   4.312   5.790  16.263 -0.4589 -0.4548  0.1914
 1043TIP3    H127324   4.381   5.727  16.284 -1.6154 -1.3269  1.6716
 1043TIP3    H227325   4.344   5.837  16.186  0.8146 -2.3127 -0.4892
 1044TIP3   OH227326   4.883   8.386  16.307  0.4962 -0.3857  0.0720
 1044TIP3    H127327   4.930   8.366  16.226  0.3994  0.7074 -0.2605
 1044TIP3    H227328   4.924   8.465  16.341 -1.0775  0.6131 -0.2381
 1045TIP3   OH227329   2.656   4.149  17.384 -0.3379  0.2204 -0.3021
 1045TIP3    H127330   2.669   4.092  17.308 -1.3385  0.9564 -1.0409
 1045TIP3    H227331   2.597   4.217  17.354  1.4192  2.1301  0.3211
 1046TIP3   OH227332   7.185   5.298  17.810  0.1784 -0.1789 -0.2987
 1046TIP3    H127333   7.102   5.343  17.799  0.2417 -0.0795 -0.3734
 1046TIP3    H227334   7.212   5.275  17.722  1.4251  1.9590 -0.5663
 1047TIP3   OH227335   0.542   8.029  17.273 -0.2455  0.3312 -0.2647
 1047TIP3    H127336   0.457   8.040  17.314  0.7781  0.9380  1.8601
 1047TIP3    H227337   0.527   8.047  17.180 -2.1382  1.9187  0.2910
 1048TIP3   OH227338   6.467   4.865  17.081  0.1357 -0.8573  0.2273
 1048TIP3    H127339   6.428   4.947  17.050 -0.7733 -1.4291 -0.1517
 1048TIP3    H227340   6.436   4.856  17.171 -0.5527 -1.2722 -0.0487
 1049TIP3   OH227341   6.014   0.154  17.884 -0.1315 -0.8062  0.2597
 1049TIP3    H127342   6.109   0.154  17.867 -0.2490 -0.4569 -0.4558
 1049TIP3    H227343   5.998   0.070  17.927  0.3152 -1.4840 -0.8233
 1050TIP3   OH227344   5.775   5.325  16.473 -0.4697  0.2002 -0.0411
 1050TIP3    H127345   5.779   5.419  16.488  0.3809  0.1848 -0.1340
 1050TIP3    H227346   5.780   5.316  16.377  0.9878  0.0028  0.0346
 1051TIP3   OH227347   7.465   6.568  17.160  0.1018  1.1315  0.8135
 1051TIP3    H127348   7.442   6.632  17.228 -0.3365  0.1988  1.5666
 1051TIP3    H227349   7.382   6.526  17.138  0.2312  1.4670 -0.3653
 1052TIP3   OH227350   0.872   6.705  17.395  0.1655 -0.3292 -0.7370
 1052TIP3    H127351   0.924   6.692  17.474 -0.0725 -1.5767 -0.7687
 1052TIP3    H227352   0.799   6.644  17.404 -1.4362  1.5038 -0.6014
 1053TIP3   OH227353   0.902   0.856  17.486 -0.0034  0.1001 -0.8245
 1053TIP3    H127354   0.877   0.893  17.402 -0.1906  2.4479  0.1692
 1053TIP3    H227355   0.955   0.925  17.527 -2.0534  0.1626  2.0037
 1054TIP3   OH227356   4.998   7.419  16.230  0.2543 -0.3239 -0.3418
 1054TIP3    H127357   4.944   7.498  16.232 -0.2655 -0.6844  1.5350
 1054TIP3    H227358   4.939   7.348  16.255  0.9357 -1.1738 -1.0824
 1055TIP3   OH227359   4.569   0.532  17.585  0.2084  0.3072 -0.0678
 1055TIP3    H127360   4.528   0.502  17.504 -1.5344  0.4215  0.7319
 1055TIP3    H227361   4.543   0.624  17.592  1.0252  0.5305  0.2346
 1056TIP3   OH227362   3.563   5.688  17.386 -0.2424  0.6651 -0.0422
 1056TIP3    H127363   3.561   5.745  17.463  0.7080  0.4397  0.1622
 1056TIP3    H227364   3.519   5.739  17.317  0.4573  1.5830  0.1769
 1057TIP3   OH227365   2.875   5.426  16.078 -0.5654 -0.4171 -0.3708
 1057TIP3    H127366   2.873   5.347  16.133 -1.8043 -1.6033 -2.0372
 1057TIP3    H227367   2.933   5.403  16.006  0.1789  0.7387 -0.1642
 1058TIP3   OH227368   3.010   7.926  16.513  0.2091  0.5384  0.4219
 1058TIP3    H127369   3.016   7.831  16.498  0.8961  0.5087  0.8381
 1058TIP3    H227370   3.085   7.962  16.466 -0.3990  0.9412 -0.2415
 1059TIP3   OH227371   4.607   2.062  16.435  0.6086  0.1685 -0.4073
 1059TIP3    H127372   4.665   2.135  16.414  1.7920 -0.2875  1.1840
 1059TIP3    H227373   4.519   2.101  16.431  1.1557  1.4740 -0.4295
 1060TIP3   OH227374   7.618   0.197  15.549  0.6587 -0.2330 -0.3289
 1060TIP3    H127375   7.672   0.213  15.472  0.6562  1.7852  0.0275
 1060TIP3    H227376   7.651   0.258  15.615 -1.0373 -0.0441  0.4043
 1061TIP3   OH227377   1.504   5.815  16.568  0.0862  0.3120  0.1142
 1061TIP3    H127378   1.434   5.878  16.586  0.9451  1.1413  0.6555
 1061TIP3    H227379   1.575   5.840  16.628  0.3383 -1.3749  0.5690
 1062TIP3   OH227380   2.323   3.543  16.202  0.1531  0.3409 -0.2236
 1062TIP3    H127381   2.245   3.545  16.145 -1.6210  1.7428  2.0647
 1062TIP3    H227382   2.351   3.634  16.208  0.9914  0.0620  0.2785
 1063TIP3   OH227383   5.942   6.518  16.724  0.2491 -0.1008 -0.0736
 1063TIP3    H127384   6.001   6.486  16.793  0.5756 -0.0668 -0.3358
 1063TIP3    H227385   5.971   6.607  16.708  2.1704 -1.0246 -2.3668
 1064TIP3   OH227386   5.580   7.146  17.284  0.0717  0.5527 -0.2679
 1064TIP3    H127387   5.624   7.089  17.348  0.6096  1.4759  0.2142
 1064TIP3    H227388   5.651   7.179  17.229 -0.3867 -0.2003 -1.3303
 1065TIP3   OH227389   4.380   4.355  17.998 -0.2764 -0.3517  0.1506
 1065TIP3    H127390   4.345   4.435  17.959  0.3459 -0.7039 -1.1525
 1065TIP3    H227391   4.363   4.366  18.092 -1.3871  0.7115 -0.1393
 1066TIP3   OH227392   1.377   5.066  16.712  0.0440  0.1397 -0.2210
 1066TIP3    H127393   1.335   5.113  16.640  0.9882  1.4531  0.0348
 1066TIP3    H227394   1.339   5.105  16.791  0.0487 -0.2931 -0.0035
 1067TIP3   OH227395   0.804   8.156  17.710  0.1092 -0.4262  0.3843
 1067TIP3    H127396   0.744   8.135  17.781 -1.5048 -0.7978 -1.0176
 1067TIP3    H227397   0.778   8.098  17.638 -0.1664  1.8143 -1.4235
 1068TIP3   OH227398   1.136   2.045  15.588  0.1165  0.4886 -0.1318
 1068TIP3    H127399   1.205   1.980  15.578 -0.4656 -0.4161  1.3757
 1068TIP3    H227400   1.094   2.050  15.502  0.4977 -0.7597 -0.4048
 1069TIP3   OH227401   0.438   6.994  15.502 -0.4688  0.1663 -0.2122
 1069TIP3    H127402   0.450   7.009  15.596 -0.5302 -0.8586 -0.0261
 1069TIP3    H227403   0.525   7.001  15.465 -0.3689  0.0923  0.0051
 1070TIP3   OH227404   2.251   0.283  16.385  0.2066 -0.0510  0.5394
 1070TIP3    H127405   2.300   0.200  16.384 -0.1184 -0.2563 -1.1450
 1070TIP3    H227406   2.201   0.282  16.304  1.1882  2.3875 -0.1811
 1071TIP3   OH227407   1.230   8.366  16.991 -0.0316 -0.1629 -0.4899
 1071TIP3    H127408   1.319   8.332  17.005 -0.0978 -0.6145 -1.1296
 1071TIP3    H227409   1.238   8.460  17.006  0.0591 -0.4758  1.8019
 1072TIP3   OH227410   2.359   3.002  16.951  0.5584  0.6089  0.1484
 1072TIP3    H127411   2.275   3.016  16.995  0.5271  0.0585  0.2671
 1072TIP3    H227412   2.420   2.982  17.021  0.4766 -0.4162 -0.0630
 1073TIP3   OH227413   5.606   3.019  16.191 -0.1380  0.3418  0.4570
 1073TIP3    H127414   5.610   2.955  16.262  0.7343  0.9726  0.9971
 1073TIP3    H227415   5.694   3.056  16.187 -0.5582  1.3328 -0.0124
 1074TIP3   OH227416   3.822   2.458  17.673 -0.1737 -0.1570 -0.4446
 1074TIP3    H127417   3.788   2.381  17.718 -0.7868 -0.1257 -0.8397
 1074TIP3    H227418   3.745   2.511  17.655  0.4732  1.7657  1.9984
 1075TIP3   OH227419   4.853   4.120  17.039 -0.3700 -0.1282 -0.0548
 1075TIP3    H127420   4.861   4.048  16.976  1.0921 -0.7020  0.7272
 1075TIP3    H227421   4.930   4.175  17.022  1.0799 -1.2705  2.3752
 1076TIP3   OH227422   3.100   7.781  16.765  0.2291  0.1861 -0.4250
 1076TIP3    H127423   3.130   7.850  16.705 -0.1246 -0.2271 -1.0965
 1076TIP3    H227424   3.082   7.827  16.847 -0.0620  0.9115 -0.8784
 1077TIP3   OH227425   5.352   7.883  15.753 -0.0854 -0.8253  0.0548
 1077TIP3    H127426   5.359   7.870  15.659 -1.0951  0.7205 -0.2777
 1077TIP3    H227427   5.383   7.801  15.791  0.0440 -1.5996 -1.6183
 1078TIP3   OH227428   6.115   4.821  16.753  0.7276 -0.5465 -0.0304
 1078TIP3    H127429   6.141   4.897  16.804  1.9986 -0.2308 -1.0983
 1078TIP3    H227430   6.194   4.767  16.747  0.3379 -1.0557 -0.8112
 1079TIP3   OH227431   7.081   6.765  15.889 -0.1943  0.8141  0.2004
 1079TIP3    H127432   7.119   6.849  15.917  0.7875  0.9016 -1.2901
 1079TIP3    H227433   7.154   6.719  15.849 -1.1167 -0.0879 -0.4746
 1080TIP3   OH227434   5.322   2.932  17.138 -0.4412 -0.3233 -0.6945
 1080TIP3    H127435   5.362   2.899  17.219  1.4393  2.1552 -0.4714
 1080TIP3    H227436   5.290   3.019  17.161 -3.5423 -1.0794 -1.6827
 1081TIP3   OH227437   6.624   5.300  17.392 -0.4939  0.4614  0.7638
 1081TIP3    H127438   6.680   5.233  17.431  1.8528  1.8891  0.0376
 1081TIP3    H227439   6.614   5.365  17.461 -0.6069  0.5879  0.6272
 1082TIP3   OH227440   2.965   4.337  16.455 -0.4433 -0.3092  0.6556
 1082TIP3    H127441   2.993   4.428  16.453 -1.0682 -0.1189 -0.5093
 1082TIP3    H227442   2.983   4.308  16.545  2.4296  0.0717  0.2652
 1083TIP3   OH227443   6.472   2.192  17.104  0.3465  0.0961 -0.1510
 1083TIP3    H127444   6.421   2.271  17.085 -1.4500 -0.6734  1.2564
 1083TIP3    H227445   6.407   2.124  17.120  1.8473 -1.6939 -1.2277
 1084TIP3   OH227446   7.043   5.725  15.959  0.4972  0.2375 -0.4582
 1084TIP3    H127447   6.958   5.769  15.954  0.0849 -0.5716 -0.9123
 1084TIP3    H227448   7.022   5.635  15.985  1.4253  0.5782  1.6091
 1085TIP3   OH227449   7.237   4.115  17.665 -0.0348  0.2319  0.4350
 1085TIP3    H127450   7.278   4.118  17.751  0.3702 -1.6357  0.3554
 1085TIP3    H227451   7.159   4.061  17.677 -0.8881  1.3185 -0.0448
 1086TIP3   OH227452   4.893   3.474  15.764  0.2056 -0.4485 -0.0244
 1086TIP3    H127453   4.852   3.549  15.807 -0.1948 -1.0869  0.7392
 1086TIP3    H227454   4.947   3.512  15.695  1.4588  0.6955  1.5010
 1087TIP3   OH227455   3.128   2.351  15.718  0.2505  0.1598  0.1840
 1087TIP3    H127456   3.129   2.442  15.748  0.0594  1.2304 -2.7291
 1087TIP3    H227457   3.037   2.324  15.729 -0.5826  1.6343 -2.1858
 1088TIP3   OH227458   2.354   2.790  17.500  0.2819 -0.1081 -0.3865
 1088TIP3    H127459   2.401   2.742  17.432  0.8502  0.7243 -0.5969
 1088TIP3    H227460   2.365   2.882  17.476  1.7289  0.2995  1.5904
 1089TIP3   OH227461   6.403   6.623  17.787  0.2024 -0.1599 -0.8552
 1089TIP3    H127462   6.432   6.563  17.719 -3.2057 -0.1871 -2.4933
 1089TIP3    H227463   6.321   6.659  17.754 -0.2650  1.8701  2.1213
 1090TIP3   OH227464   1.498   8.332  15.469 -0.1788 -0.3584 -0.6523
 1090TIP3    H127465   1.457   8.398  15.525 -0.0599 -0.7907 -0.0442
 1090TIP3    H227466   1.583   8.316  15.509 -0.1203 -0.7298 -0.9154
 1091TIP3   OH227467   3.287   6.825  17.673  0.3493 -0.3667  0.5268
 1091TIP3    H127468   3.197   6.844  17.702  0.7404  2.2720  0.2348
 1091TIP3    H227469   3.332   6.909  17.678  2.1560 -1.1005 -1.7085
 1092TIP3   OH227470   6.260   6.705  16.467 -0.2688  0.0771 -0.2323
 1092TIP3    H127471   6.213   6.626  16.440 -0.1641  0.3454 -1.2432
 1092TIP3    H227472   6.254   6.763  16.392 -1.4626  1.5700  0.9426
 1093TIP3   OH227473   8.375   0.427  18.090 -0.1556 -0.3234  0.2227
 1093TIP3    H127474   8.399   0.341  18.058 -1.6522 -0.1133 -1.7027
 1093TIP3    H227475   8.328   0.411  18.171  0.8621 -1.1762  0.6620
 1094TIP3   OH227476   2.336   6.698  17.835 -0.5037  0.1682  0.7577
 1094TIP3    H127477   2.243   6.712  17.852 -0.2396  1.1100  1.4682
 1094TIP3    H227478   2.359   6.623  17.890 -1.4167 -1.8533 -1.4167
 1095TIP3   OH227479   2.023   7.434  17.264 -0.2082 -0.0388  0.7008
 1095TIP3    H127480   2.089   7.423  17.333 -0.7823  0.8790  1.4213
 1095TIP3    H227481   2.037   7.359  17.206  2.2463  0.7178  0.1571
 1096TIP3   OH227482   6.777   6.657  16.537  0.3728  0.2488  0.5243
 1096TIP3    H127483   6.749   6.717  16.467 -4.1468 -0.3675  1.4882
 1096TIP3    H227484   6.819   6.585  16.490  0.7503  1.4913 -1.1754
 1097TIP3   OH227485   1.824   6.208  18.062 -0.5038 -0.0262 -0.2874
 1097TIP3    H127486   1.750   6.147  18.064 -2.0680  1.7657 -0.4796
 1097TIP3    H227487   1.784   6.293  18.047  1.4643  1.2796  1.3560
 1098TIP3   OH227488   5.860   1.055  16.029  0.0586 -0.1031 -0.7842
 1098TIP3    H127489   5.780   1.096  15.997 -0.2883 -2.1526 -2.7553
 1098TIP3    H227490   5.894   1.006  15.955  1.8321 -1.2813  0.7117
 1099TIP3   OH227491   6.850   1.948  17.109  0.1017 -0.3022  1.3267
 1099TIP3    H127492   6.807   1.865  17.086 -0.5092  0.0159  1.2931
 1099TIP3    H227493   6.778   2.004  17.139  0.5435  0.1435  1.5548
 1100TIP3   OH227494   6.703   6.281  16.144 -0.2107 -0.0370  0.0816
 1100TIP3    H127495   6.796   6.303  16.136 -0.5252  1.3339 -0.1563
 1100TIP3    H227496   6.689   6.270  16.238 -0.3512  2.5761  0.4395
 1101TIP3   OH227497   4.425   6.095  15.708  0.0932 -0.0982 -0.2941
 1101TIP3    H127498   4.516   6.107  15.682  0.2481  1.2004  0.7522
 1101TIP3    H227499   4.374   6.143  15.643  0.1459 -0.7936 -0.8571
 1102TIP3   OH227500   5.354   1.987  17.840  0.1496  0.2935  0.0987
 1102TIP3    H127501   5.425   2.013  17.781 -0.6276  1.6538 -0.2879
 1102TIP3    H227502   5.360   1.892  17.844  1.1863  0.2878 -0.9634
 1103TIP3   OH227503   3.328   6.517  17.732  0.0170  0.1973 -0.0846
 1103TIP3    H127504   3.422   6.501  17.741 -0.1330 -0.2381  0.7763
 1103TIP3    H227505   3.322   6.609  17.708  0.6369  0.3794  0.4377
 1104TIP3   OH227506   6.710   3.124  17.962  0.6534  0.1178  0.1053
 1104TIP3    H127507   6.658   3.136  17.882  1.2906  0.7018 -0.2316
 1104TIP3    H227508   6.728   3.213  17.992  1.4554 -0.0735  0.2122
 1105TIP3   OH227509   0.714   3.767  16.597  0.6877  0.0622 -0.1089
 1105TIP3    H127510   0.735   3.859  16.580  0.4218  0.2857  0.7417
 1105TIP3    H227511   0.792   3.719  16.569  1.3815  0.6736  0.7360
 1106TIP3   OH227512   0.574   0.287  15.762  0.4730 -0.1398  0.1014
 1106TIP3    H127513   0.568   0.265  15.855 -1.4411  0.3337  0.1388
 1106TIP3    H227514   0.572   0.383  15.760 -1.2538 -0.1562 -0.4744
 1107TIP3   OH227515   1.689   6.023  15.613  0.1773  0.2500 -1.0371
 1107TIP3    H127516   1.606   6.068  15.629  0.8157  1.0263  0.3045
 1107TIP3    H227517   1.743   6.088  15.567  0.4123  0.1399 -0.9196
 1108TIP3   OH227518   1.701   0.162  16.702 -0.6209  0.0516  0.4493
 1108TIP3    H127519   1.680   0.104  16.775  0.9592 -0.7764  0.2958
 1108TIP3    H227520   1.740   0.104  16.637 -0.4702  1.0511 -0.3632
 1109TIP3   OH227521   1.791   3.009  16.577  0.2624 -0.4091  0.2103
 1109TIP3    H127522   1.732   2.982  16.507 -0.6014 -0.2882  0.8822
 1109TIP3    H227523   1.815   3.099  16.554 -0.8923  0.0188  0.6369
 1110TIP3   OH227524   0.018   0.181  18.031 -0.3871 -0.4570 -0.0111
 1110TIP3    H127525  -0.058   0.148  18.078 -2.2164  4.0981  0.6984
 1110TIP3    H227526   0.093   0.149  18.083 -2.0580 -0.8279  2.3519
 1111TIP3   OH227527   2.724   0.095  17.229 -0.8324  0.1074  0.5658
 1111TIP3    H127528   2.756   0.184  17.220  3.1192 -0.9610  1.9875
 1111TIP3    H227529   2.702   0.068  17.139 -0.1279  1.8620 -0.1709
 1112TIP3   OH227530   6.336   1.045  17.391  0.2796  0.0878  0.1333
 1112TIP3    H127531   6.299   1.008  17.311 -1.1714  2.8023 -0.5768
 1112TIP3    H227532   6.413   0.990  17.410  0.5633 -0.7823 -2.9870
 1113TIP3   OH227533   2.442   3.740  17.315 -0.3388 -0.2297  0.7166
 1113TIP3    H127534   2.520   3.743  17.369 -0.5192  1.1483  0.9525
 1113TIP3    H227535   2.385   3.809  17.351 -1.3425 -0.6981  0.0867
 1114TIP3   OH227536   5.874   1.896  17.712 -0.7512  0.0174 -0.6049
 1114TIP3    H127537   5.937   1.831  17.683  0.0464  0.3723  0.3082
 1114TIP3    H227538   5.806   1.845  17.756 -1.2698 -0.3883 -1.8038
 1115TIP3   OH227539   5.952   7.566  18.105  0.0675 -0.6188  0.3606
 1115TIP3    H127540   5.983   7.482  18.072 -0.5511 -0.3942 -0.8245
 1115TIP3    H227541   5.894   7.543  18.178 -0.8873 -1.2985 -0.5800
 1116TIP3   OH227542   2.720   4.898  16.042  0.0593 -0.9767 -0.3295
 1116TIP3    H127543   2.756   4.981  16.011 -1.2815 -0.8821 -1.8115
 1116TIP3    H227544   2.772   4.876  16.119 -1.3821  2.7428  2.0095
 1117TIP3   OH227545   0.693   3.349  16.170 -0.5618  0.4010 -0.0076
 1117TIP3    H127546   0.690   3.306  16.255  0.9834 -0.8842 -0.5612
 1117TIP3    H227547   0.680   3.442  16.190 -2.1752 -0.0643  1.3940
 1118TIP3   OH227548   1.868   1.865  17.805  0.4820 -0.4009 -0.1036
 1118TIP3    H127549   1.904   1.898  17.722 -1.8494  1.2719 -0.5474
 1118TIP3    H227550   1.898   1.928  17.870 -1.4798  0.9954 -0.4742
 1119TIP3   OH227551   5.952   1.113  17.875  0.6746  0.4237  0.1555
 1119TIP3    H127552   6.035   1.084  17.915  0.9844 -0.0227 -0.7812
 1119TIP3    H227553   5.973   1.196  17.834  0.2698  1.0518  1.1719
 1120TIP3   OH227554   2.979   7.478  17.739 -0.0199 -0.3614  0.6147
 1120TIP3    H127555   2.999   7.466  17.832 -0.7965  0.1352  0.8570
 1120TIP3    H227556   3.011   7.566  17.718 -0.0746 -0.3735  0.4766
 1121TIP3   OH227557   4.192   2.753  17.247 -0.3796  0.2811 -0.5353
 1121TIP3    H127558   4.210   2.766  17.340 -3.7283  0.3399  0.2401
 1121TIP3    H227559   4.138   2.829  17.223 -1.9181 -1.1287 -1.7402
 1122TIP3   OH227560   7.245   0.044  17.348  0.5591  0.2339 -0.3292
 1122TIP3    H127561   7.269  -0.007  17.271  1.5786  0.8349 -0.4413
 1122TIP3    H227562   7.247  -0.018  17.421  2.1693  0.1652 -0.4005
 1123TIP3   OH227563   0.671   6.512  17.329 -0.1956 -0.1332 -0.4384
 1123TIP3    H127564   0.592   6.478  17.370 -0.6135  0.0622 -1.0688
 1123TIP3    H227565   0.682   6.460  17.250 -0.6039  0.8982 -1.1923
 1124TIP3   OH227566   2.839   6.280  17.624 -0.3288 -0.4418  0.4250
 1124TIP3    H127567   2.931   6.302  17.609 -0.2270 -1.0276  0.1716
 1124TIP3    H227568   2.816   6.221  17.552 -0.9514 -0.1674  0.3887
 1125TIP3   OH227569   2.057   1.489  17.411  0.0725 -0.4328  0.9148
 1125TIP3    H127570   2.053   1.486  17.315 -1.3722 -1.9243  0.9719
 1125TIP3    H227571   1.979   1.538  17.436 -1.2179 -2.5782  1.3527
 1126TIP3   OH227572   3.439   2.504  17.069 -0.0187 -0.0315  0.4102
 1126TIP3    H127573   3.401   2.455  16.997 -0.2445 -0.2379  0.6685
 1126TIP3    H227574   3.373   2.502  17.138 -0.0561  0.6903  0.4040
 1127TIP3   OH227575   0.202   0.589  17.339  0.2981 -0.0207 -0.1525
 1127TIP3    H127576   0.226   0.604  17.430  1.1790 -1.1653 -0.1712
 1127TIP3    H227577   0.171   0.674  17.307  0.4376  0.5018  1.0706
 1128TIP3   OH227578   8.331   7.957  17.028 -0.3400  0.3034  0.1434
 1128TIP3    H127579   8.318   7.862  17.034 -0.2048  0.3067  0.5767
 1128TIP3    H227580   8.326   7.987  17.119  0.5254  0.5840  0.1122
 1129TIP3   OH227581   1.340   3.808  17.811 -0.4404  0.4971 -0.0202
 1129TIP3    H127582   1.431   3.810  17.842 -0.9993  2.1201  1.6809
 1129TIP3    H227583   1.348   3.795  17.716  1.6706  2.0653 -0.1341
 1130TIP3   OH227584   7.643   6.966  17.032  0.0927 -0.0585 -0.0756
 1130TIP3    H127585   7.629   7.040  17.092  0.8385  0.2317 -0.2429
 1130TIP3    H227586   7.594   6.990  16.953  2.6668  1.7539 -1.3125
 1131TIP3   OH227587   5.997   4.369  17.644 -0.5026  0.1724  0.1197
 1131TIP3    H127588   5.916   4.347  17.597  0.5252  0.4025 -1.8889
 1131TIP3    H227589   6.012   4.294  17.701 -1.5193 -0.4201 -0.3496
 1132TIP3   OH227590   7.003   4.325  17.591  0.5651 -0.4033 -0.2113
 1132TIP3    H127591   6.958   4.404  17.562  0.4192  0.4275  2.0792
 1132TIP3    H227592   6.940   4.254  17.576  0.1112  0.1217 -0.8329
 1133TIP3   OH227593   2.900   4.895  17.585  0.5063 -0.3433 -0.4217
 1133TIP3    H127594   2.817   4.852  17.608  1.6928 -1.5632  2.0633
 1133TIP3    H227595   2.874   4.978  17.546 -1.8958 -0.1960  1.2504
 1134TIP3   OH227596   4.071   1.321  17.036 -0.1099  0.2797  0.1633
 1134TIP3    H127597   4.020   1.386  16.988  0.8406  2.5006  1.9739
 1134TIP3    H227598   4.162   1.339  17.011  0.2390  0.2783  1.3863
 1135TIP3   OH227599   5.241   2.131  16.959  0.4912  0.4113 -0.9207
 1135TIP3    H127600   5.194   2.143  16.877 -0.8826  1.0671 -0.0800
 1135TIP3    H227601   5.173   2.107  17.022  1.4268  0.5184  0.1564
 1136TIP3   OH227602   0.180   2.633  17.741  0.4508  0.7186  0.2195
 1136TIP3    H127603   0.199   2.566  17.675  0.9716  1.4382 -0.3867
 1136TIP3    H227604   0.267   2.662  17.771  0.2299 -0.3660  2.0482
 1137TIP3   OH227605   4.599   2.776  16.961 -0.1877 -0.4147  0.0203
 1137TIP3    H127606   4.533   2.846  16.961  0.4319  0.2249 -1.8696
 1137TIP3    H227607   4.559   2.706  16.909  0.4949 -0.1080 -0.9498
 1138TIP3   OH227608   1.065   3.909  16.418  0.2454 -0.0206  0.2981
 1138TIP3    H127609   1.104   3.864  16.492  0.7544 -1.0047 -0.5430
 1138TIP3    H227610   1.083   3.852  16.343 -0.5105  0.8004 -0.5360
 1139TIP3   OH227611   5.207   5.580  16.903  0.5177  0.2205  0.8148
 1139TIP3    H127612   5.196   5.597  16.996 -1.1891 -2.2868  1.1860
 1139TIP3    H227613   5.121   5.550  16.873  1.0574  0.7864 -1.5467
 1140TIP3   OH227614   7.475   7.101  17.271 -1.0364  0.0122 -0.0993
 1140TIP3    H127615   7.382   7.103  17.245 -0.7403  0.6087 -1.1651
 1140TIP3    H227616   7.500   7.009  17.265 -1.9973 -0.4505  1.9175
 1141TIP3   OH227617   2.653   2.425  16.819 -0.2060  0.2288 -0.6448
 1141TIP3    H127618   2.732   2.452  16.773  0.7107  2.2787  1.8627
 1141TIP3    H227619   2.581   2.447  16.760  0.9771  0.4759 -2.0395
 1142TIP3   OH227620   7.204   6.714  16.562 -0.7237 -0.7371 -0.1644
 1142TIP3    H127621   7.199   6.802  16.527 -0.6500 -0.5191  0.3540
 1142TIP3    H227622   7.182   6.657  16.489 -1.0271 -0.2782 -0.4343
 1143TIP3   OH227623   6.925   5.001  17.487 -0.4528  0.1228 -0.1073
 1143TIP3    H127624   6.842   4.963  17.457  0.1838 -1.2846 -0.1798
 1143TIP3    H227625   6.911   5.096  17.482 -2.7495 -0.0026  1.7372
 1144TIP3   OH227626   5.986   7.518  17.786  0.0902  0.5098 -0.0447
 1144TIP3    H127627   5.914   7.573  17.755 -2.2951 -1.7301  1.0694
 1144TIP3    H227628   6.007   7.552  17.873  0.4756  1.2418 -0.4187
 1145TIP3   OH227629   2.351   2.098  17.546 -0.1200 -0.3014 -0.3193
 1145TIP3    H127630   2.312   2.120  17.630  0.4879 -1.6842  0.3649
 1145TIP3    H227631   2.278   2.064  17.494  0.0602 -3.0776  1.0281
 1146TIP3   OH227632   1.390   1.106  16.665  0.1865 -0.1071 -0.5658
 1146TIP3    H127633   1.409   1.029  16.717  1.5112  0.8766  0.4829
 1146TIP3    H227634   1.319   1.150  16.712  1.4672  0.8480  0.5635
 1147TIP3   OH227635   4.471   5.419  17.489  0.6171  0.3794  0.1821
 1147TIP3    H127636   4.487   5.358  17.417 -0.4010  0.7871 -0.4182
 1147TIP3    H227637   4.377   5.440  17.482 -0.0539 -1.1838  2.9111
 1148TIP3   OH227638   3.543   3.481  17.784  0.8538 -0.4427  0.7284
 1148TIP3    H127639   3.610   3.413  17.795  0.1377 -1.0053  1.6815
 1148TIP3    H227640   3.463   3.443  17.819 -0.5248 -0.5622 -2.2325
 1149TIP3   OH227641   7.743   5.037  17.010  0.1604 -0.2272  0.1926
 1149TIP3    H127642   7.721   5.087  16.931  0.0311 -0.4881  0.0615
 1149TIP3    H227643   7.805   4.971  16.981 -0.2727 -0.6494  0.2031
 1150TIP3   OH227644   0.280   6.857  16.688 -0.6361  0.2234 -0.3151
 1150TIP3    H127645   0.261   6.937  16.639  0.1809  0.3022 -0.5239
 1150TIP3    H227646   0.215   6.855  16.757 -0.8939  0.8816 -0.5289
 1151TIP3   OH227647   0.073   3.278  17.857 -0.2556 -0.0459 -0.5631
 1151TIP3    H127648   0.064   3.217  17.784  2.7163  1.0773 -2.0567
 1151TIP3    H227649   0.137   3.236  17.915 -2.2192 -0.6943  1.2474
 1152TIP3   OH227650   2.992   0.345  16.241 -0.3758 -0.1141 -0.3175
 1152TIP3    H127651   3.013   0.367  16.332 -1.9374 -2.1688  0.5973
 1152TIP3    H227652   2.954   0.258  16.245 -0.1070 -0.4385 -3.0257
 1153TIP3   OH227653   5.168   6.181  16.501 -0.3497  1.0145  0.0870
 1153TIP3    H127654   5.230   6.125  16.548 -1.5549 -0.3667  0.0706
 1153TIP3    H227655   5.098   6.198  16.565 -1.5397 -0.1096 -0.8732
 1154TIP3   OH227656   6.492   7.891  15.583  0.1003  0.1676 -0.2181
 1154TIP3    H127657   6.514   7.984  15.583 -0.6063  0.3534 -1.3252
 1154TIP3    H227658   6.556   7.851  15.524 -0.9078  0.3152 -1.4542
 1155TIP3   OH227659   2.667   7.683  17.688 -0.0214 -0.1347  0.5075
 1155TIP3    H127660   2.685   7.754  17.750  1.3564  0.1299 -0.1603
 1155TIP3    H227661   2.688   7.720  17.602 -0.3255 -1.0170  0.0364
 1156TIP3   OH227662   7.074   7.412  16.662  0.3484 -0.2223 -0.4692
 1156TIP3    H127663   7.081   7.357  16.584 -0.0363  0.1676 -0.7824
 1156TIP3    H227664   6.999   7.377  16.710 -1.7910  1.7714 -2.1108
 1157TIP3   OH227665   3.609   0.295  17.245 -0.0882  0.7748  0.1421
 1157TIP3    H127666   3.662   0.294  17.324  1.1759  1.4137 -0.6663
 1157TIP3    H227667   3.526   0.255  17.271 -0.3249  2.4362  2.2207
 1158TIP3   OH227668   3.738   0.036  16.880 -0.3700  0.7319  0.4570
 1158TIP3    H127669   3.685   0.114  16.900 -2.1138  0.1913 -1.6534
 1158TIP3    H227670   3.673  -0.031  16.855  1.2092 -0.6192 -0.1893
 1159TIP3   OH227671   6.140   1.234  16.448  0.2087  0.2645  0.4964
 1159TIP3    H127672   6.083   1.307  16.428  0.3231 -0.1283 -1.4577
 1159TIP3    H227673   6.092   1.157  16.419  1.7010 -0.0660 -1.3014
 1160TIP3   OH227674   1.257   7.940  15.557 -0.3686 -0.2945 -0.3541
 1160TIP3    H127675   1.246   8.035  15.550 -0.9833 -0.2972  0.3087
 1160TIP3    H227676   1.315   7.928  15.632 -0.9307 -0.4547  0.0637
 1161TIP3   OH227677   2.403   1.059  15.302 -0.8956 -0.4311 -0.3091
 1161TIP3    H127678   2.355   1.053  15.219 -0.3377 -1.3537 -0.5787
 1161TIP3    H227679   2.347   1.015  15.365 -1.2600  0.1547 -0.2169
 1162TIP3   OH227680   7.640   4.831  15.863  0.2448 -0.5745 -0.1428
 1162TIP3    H127681   7.601   4.915  15.839 -0.9728 -0.8191  0.8641
 1162TIP3    H227682   7.713   4.853  15.920 -0.6671 -0.1906  0.9218
 1163TIP3   OH227683   5.803   4.800  17.036  0.0892 -0.4945  0.6948
 1163TIP3    H127684   5.711   4.780  17.050  0.0920 -0.1530  1.2364
 1163TIP3    H227685   5.803   4.872  16.973  0.0674 -1.8693 -0.9720
 1164TIP3   OH227686   4.018   8.143  17.386 -0.2004  0.0048 -0.5353
 1164TIP3    H127687   4.042   8.071  17.329 -2.3565 -0.9746 -0.3227
 1164TIP3    H227688   4.006   8.218  17.327 -1.5254 -0.7697 -1.2844
 1165TIP3   OH227689   6.641   2.222  16.592 -0.1876 -0.0495 -0.9637
 1165TIP3    H127690   6.723   2.270  16.608 -1.8968  3.0478 -0.6931
 1165TIP3    H227691   6.615   2.190  16.678 -1.3273  2.7885 -0.1100
 1166TIP3   OH227692   7.682   6.924  16.445 -0.9662 -0.0587  0.2782
 1166TIP3    H127693   7.747   6.883  16.501  0.0504  0.3716 -0.5603
 1166TIP3    H227694   7.622   6.853  16.421 -0.4349 -0.5946  0.5306
 1167TIP3   OH227695   2.739   3.059  16.915  0.6909 -0.3813 -0.7961
 1167TIP3    H127696   2.710   3.056  17.006 -0.4888 -0.7309 -1.1740
 1167TIP3    H227697   2.835   3.060  16.921  0.6311 -0.4585  0.4442
 1168TIP3   OH227698   2.615   1.484  15.570  0.6130  0.9417 -0.6854
 1168TIP3    H127699   2.589   1.392  15.570  2.2038  0.4210  0.8526
 1168TIP3    H227700   2.533   1.532  15.575 -0.2006 -0.5227  1.7496
 1169TIP3   OH227701   2.218   4.741  17.461 -0.1756 -0.4454 -0.7279
 1169TIP3    H127702   2.133   4.726  17.502 -0.0015  1.5231  0.5308
 1169TIP3    H227703   2.219   4.684  17.384 -1.3563 -2.7903  0.8816
 1170TIP3   OH227704   1.228   3.848  15.345 -0.1150 -0.3185 -0.4992
 1170TIP3    H127705   1.290   3.779  15.369 -0.8925 -0.5928  0.8105
 1170TIP3    H227706   1.152   3.800  15.310  0.2632  0.0056 -1.8535
 1171TIP3   OH227707   6.261   3.556  17.792  0.1232  0.1653  0.0890
 1171TIP3    H127708   6.348   3.580  17.826  0.6318  0.9211 -1.6389
 1171TIP3    H227709   6.249   3.465  17.819  2.3420 -0.6163 -1.2653
 1172TIP3   OH227710   1.372   7.753  15.334  0.3179  0.0998  0.3035
 1172TIP3    H127711   1.329   7.800  15.405  0.2647  0.9675 -0.2893
 1172TIP3    H227712   1.373   7.815  15.261  0.7432 -0.6276 -0.3265
 1173TIP3   OH227713   7.031   8.152  16.766  0.4867  0.2759  0.2940
 1173TIP3    H127714   6.993   8.127  16.681  0.8276  1.2172 -0.1480
 1173TIP3    H227715   6.957   8.150  16.826 -1.0109  4.5070 -1.0239
 1174TIP3   OH227716   7.944   1.566  16.969  0.0179 -0.2299 -0.3338
 1174TIP3    H127717   7.931   1.639  17.030  0.8335  0.2917 -0.7683
 1174TIP3    H227718   7.876   1.578  16.903  0.1194  0.1211 -0.3800
 1175TIP3   OH227719   6.306   8.258  17.155  0.0221 -0.1425  0.5942
 1175TIP3    H127720   6.377   8.222  17.101 -0.0703  0.5971 -0.0423
 1175TIP3    H227721   6.226   8.223  17.115 -0.0951  1.1063 -0.3250
 1176TIP3   OH227722   2.489   1.893  16.497  0.0694  0.2572 -0.1639
 1176TIP3    H127723   2.467   1.801  16.484  0.2864  0.1205  0.4260
 1176TIP3    H227724   2.555   1.893  16.566 -0.0286  0.8647 -0.0655
 1177TIP3   OH227725   0.698   0.054  17.487 -0.0996 -0.1517  0.0261
 1177TIP3    H127726   0.669   0.142  17.463  1.9725  0.4077 -0.6576
 1177TIP3    H227727   0.638  -0.005  17.442  0.2916  0.9421 -2.0428
 1178TIP3   OH227728   7.113   4.874  16.708  0.8821 -0.2420 -0.0841
 1178TIP3    H127729   7.104   4.846  16.616 -0.2404 -1.1507  0.2786
 1178TIP3    H227730   7.139   4.965  16.702  1.4951 -0.4698 -1.3130
 1179TIP3   OH227731   1.580   2.511  17.748 -0.0612 -0.0362 -0.0520
 1179TIP3    H127732   1.663   2.473  17.778  0.6651  1.5500  0.0217
 1179TIP3    H227733   1.577   2.488  17.655  1.4648  1.5305 -0.5440
 1180TIP3   OH227734   1.593   3.592  15.861  0.7905 -0.1709 -0.0873
 1180TIP3    H127735   1.668   3.585  15.921  1.3342 -0.4370 -0.7758
 1180TIP3    H227736   1.615   3.667  15.806  0.9665 -0.7641 -0.8425
 1181TIP3   OH227737   1.226   4.138  17.127  0.1533 -0.9000 -0.2582
 1181TIP3    H127738   1.198   4.140  17.218  0.2771  0.7730 -0.2266
 1181TIP3    H227739   1.181   4.213  17.087  0.2735 -1.4788 -1.5234
 1182TIP3   OH227740   3.595   3.684  16.690  0.7111  0.2455  0.0967
 1182TIP3    H127741   3.537   3.713  16.760  1.3304  0.4571  0.5363
 1182TIP3    H227742   3.573   3.592  16.678 -1.1605  0.8018 -1.2032
 1183TIP3   OH227743   8.150   5.940  18.007 -0.3529  0.0138 -0.8523
 1183TIP3    H127744   8.062   5.975  18.003 -0.6572 -0.3211  1.3783
 1183TIP3    H227745   8.199   6.004  18.059 -0.1490 -1.3023  0.6741
 1184TIP3   OH227746   2.491   5.403  17.077  0.0346  0.3145 -0.3452
 1184TIP3    H127747   2.580   5.399  17.042 -0.0842 -0.0333 -0.6112
 1184TIP3    H227748   2.483   5.324  17.130 -0.4595 -0.1933 -1.1521
 1185TIP3   OH227749   5.901   1.003  17.254  0.2220  0.1721 -0.2318
 1185TIP3    H127750   5.873   1.093  17.270  1.8656  0.5864  0.4193
 1185TIP3    H227751   5.842   0.973  17.184 -2.2272  0.7714  1.4248
 1186TIP3   OH227752   5.783   0.726  15.929  0.6500 -0.3045 -0.4101
 1186TIP3    H127753   5.737   0.750  15.849 -0.1357  1.2885  0.4732
 1186TIP3    H227754   5.731   0.765  15.999  0.6064 -2.6910  1.0085
 1187TIP3   OH227755   0.445   4.472  16.936  0.6128 -0.1320 -0.1373
 1187TIP3    H127756   0.442   4.379  16.955 -0.3245 -0.1954 -0.5225
 1187TIP3    H227757   0.533   4.500  16.962  0.0773 -0.5829  2.3827
 1188TIP3   OH227758   7.401   2.206  15.725 -0.5845 -0.2841 -0.6307
 1188TIP3    H127759   7.423   2.199  15.818  0.2344  1.3178 -0.6627
 1188TIP3    H227760   7.484   2.190  15.680 -0.4556  1.1775 -0.9619
 1189TIP3   OH227761   0.927   5.062  16.240 -0.2095 -0.3197 -0.0081
 1189TIP3    H127762   1.004   5.058  16.297  0.3162 -0.7481 -0.7288
 1189TIP3    H227763   0.956   5.023  16.157 -0.9639  0.2640 -0.5663
 1190TIP3   OH227764   6.452   1.330  17.772 -0.2975  0.6163  0.4296
 1190TIP3    H127765   6.489   1.246  17.745 -0.8622  0.9654 -1.6052
 1190TIP3    H227766   6.505   1.395  17.726  0.2995  1.4284  2.1798
 1191TIP3   OH227767   4.483   4.056  16.970  0.1135  0.4877 -0.5755
 1191TIP3    H127768   4.516   3.969  16.948  3.0349  1.1026  0.8784
 1191TIP3    H227769   4.452   4.091  16.886 -0.2221 -1.5451 -1.3744
 1192TIP3   OH227770   5.202   4.267  17.405  0.1067  0.0603  0.2752
 1192TIP3    H127771   5.197   4.216  17.486  2.9601  0.2268  0.6453
 1192TIP3    H227772   5.230   4.354  17.432 -0.1212  0.4805 -0.7799
 1193TIP3   OH227773   1.997   1.589  16.419  0.0261 -0.6158 -0.0964
 1193TIP3    H127774   2.013   1.552  16.332 -0.6738 -0.2632 -0.3812
 1193TIP3    H227775   2.042   1.529  16.479 -0.1000 -1.2657 -0.6424
 1194TIP3   OH227776   1.548   0.864  17.534  0.5832 -0.0874 -0.2077
 1194TIP3    H127777   1.601   0.892  17.609  1.6002  1.3397 -1.4018
 1194TIP3    H227778   1.525   0.945  17.490 -0.5707 -0.8632 -1.0764
 1195TIP3   OH227779   0.321   6.582  17.969  0.0638 -0.2870 -0.0390
 1195TIP3    H127780   0.308   6.537  17.886  1.3705 -1.2994  0.2714
 1195TIP3    H227781   0.323   6.675  17.946  1.0559 -0.5789 -1.2531
 1196TIP3   OH227782   3.832   7.863  17.487  0.3399 -0.1688  0.2127
 1196TIP3    H127783   3.915   7.820  17.507  1.1369  0.9847 -0.5146
 1196TIP3    H227784   3.844   7.954  17.515 -0.7436 -0.0301  0.2647
 1197TIP3   OH227785   6.896   1.579  16.024  0.3020 -0.1685 -0.1200
 1197TIP3    H127786   6.884   1.666  15.987 -0.3681  0.1885  0.8886
 1197TIP3    H227787   6.960   1.537  15.967  1.8962  1.5396  0.3220
 1198TIP3   OH227788   3.412   2.163  17.076  0.0283  0.6977 -0.4955
 1198TIP3    H127789   3.380   2.219  17.005 -0.6861  2.3559  1.0538
 1198TIP3    H227790   3.333   2.118  17.108 -0.0275  1.4537  0.4852
 1199TIP3   OH227791   5.647   0.687  17.315 -0.0136 -0.7559 -0.4358
 1199TIP3    H127792   5.700   0.610  17.334  2.1213  0.2339 -1.9731
 1199TIP3    H227793   5.698   0.736  17.250 -2.0856  1.1019 -0.7877
 1200TIP3   OH227794   1.693   2.182  17.243  0.2836 -0.1146 -0.0598
 1200TIP3    H127795   1.787   2.197  17.231  0.4673  1.4828  2.6627
 1200TIP3    H227796   1.687   2.131  17.324 -1.2365  3.2905  2.1819
 1201TIP3   OH227797   4.812   1.935  15.627 -0.2661 -0.0478  0.3869
 1201TIP3    H127798   4.889   1.884  15.601  0.9060  1.4941  0.7453
 1201TIP3    H227799   4.832   2.025  15.602 -2.8418  0.1436 -1.4674
 1202TIP3   OH227800   6.976   5.527  17.343  0.0195  0.0883 -0.4410
 1202TIP3    H127801   6.972   5.574  17.260 -1.3316  0.4334 -0.2063
 1202TIP3    H227802   7.068   5.501  17.352  0.2486  0.3515 -1.8636
 1203TIP3   OH227803   1.497   2.863  16.833  0.0533 -0.0862  0.1620
 1203TIP3    H127804   1.566   2.798  16.842 -1.1317 -1.4985 -0.5463
 1203TIP3    H227805   1.485   2.874  16.738 -0.7009  0.1221  0.2702
 1204TIP3   OH227806   1.212   6.108  15.757  0.2996  0.3331 -0.5816
 1204TIP3    H127807   1.245   6.051  15.688  1.8073 -0.6356  0.8720
 1204TIP3    H227808   1.236   6.196  15.728 -0.9620  0.1722 -2.2569
 1205TIP3   OH227809   0.661   2.908  17.800 -0.2582 -0.2004  0.0948
 1205TIP3    H127810   0.741   2.911  17.852  0.6828  0.5498 -1.3176
 1205TIP3    H227811   0.662   2.820  17.761 -1.1498 -0.8944  1.5671
 1206TIP3   OH227812   1.785   1.941  15.401  0.1747  0.1789 -0.0759
 1206TIP3    H127813   1.711   1.931  15.462  0.1350  1.9322  0.2044
 1206TIP3    H227814   1.858   1.970  15.456  1.3533 -2.2189 -0.2233
 1207TIP3   OH227815   2.649   0.022  16.948  0.0919 -0.0506 -0.0534
 1207TIP3    H127816   2.606   0.099  16.913 -0.2423 -0.6749 -1.0690
 1207TIP3    H227817   2.712  -0.003  16.880 -1.2678 -1.8703 -0.7341
 1208TIP3   OH227818   6.909   3.697  17.413  0.3129  0.2178  0.1203
 1208TIP3    H127819   6.968   3.773  17.406 -0.9699  1.1671 -0.8180
 1208TIP3    H227820   6.825   3.729  17.379 -0.6147 -1.2491  0.9667
 1209TIP3   OH227821   2.951   1.965  17.473 -0.1020 -0.4532  0.6325
 1209TIP3    H127822   2.972   1.904  17.402  0.4992 -0.3761  0.7414
 1209TIP3    H227823   3.033   1.976  17.521 -0.0216  0.9777  0.2162
 1210TIP3   OH227824   7.162   4.683  15.970  0.5023  0.2788  0.0376
 1210TIP3    H127825   7.072   4.658  15.990  0.0610  2.4133  0.9411
 1210TIP3    H227826   7.214   4.648  16.043  0.8601 -2.9284 -1.5671
 1211TIP3   OH227827   1.786   5.563  16.172  0.1201  0.4528 -0.4105
 1211TIP3    H127828   1.809   5.513  16.094 -1.4576 -1.4380  0.2732
 1211TIP3    H227829   1.788   5.500  16.243 -1.6081  1.4228  0.5594
 1212TIP3   OH227830   1.228   1.557  15.640 -0.2751  0.2702  0.2857
 1212TIP3    H127831   1.317   1.592  15.632  0.0866 -0.6737  0.0408
 1212TIP3    H227832   1.232   1.471  15.597 -0.7240 -0.7621  2.1723
 1213TIP3   OH227833   3.328   1.484  15.958 -0.0775 -0.7726  0.3062
 1213TIP3    H127834   3.330   1.393  15.928  1.4200  0.0466 -2.4494
 1213TIP3    H227835   3.246   1.519  15.924 -0.5448 -0.9930  1.1720
 1214TIP3   OH227836   6.983   1.110  17.141 -0.3889 -0.6772  0.3398
 1214TIP3    H127837   6.938   1.194  17.126  1.6839  0.5221  0.5066
 1214TIP3    H227838   7.060   1.133  17.193  0.1636 -2.7273  0.5041
 1215TIP3   OH227839   7.668   3.206  16.808  0.0243 -0.0332 -0.2784
 1215TIP3    H127840   7.637   3.156  16.883 -0.8434  0.9256  0.0225
 1215TIP3    H227841   7.605   3.277  16.799 -0.7255 -0.8996 -2.7738
 1216TIP3   OH227842   4.298   2.776  16.985  0.2286 -0.5045 -0.2322
 1216TIP3    H127843   4.212   2.759  16.947  0.1682 -1.6997  0.3925
 1216TIP3    H227844   4.293   2.738  17.072  1.2411 -0.1639 -0.0180
 1217TIP3   OH227845   2.065   6.562  17.480 -0.3928  0.4451 -0.0305
 1217TIP3    H127846   2.148   6.516  17.489  1.0336  2.8120 -0.3430
 1217TIP3    H227847   2.056   6.577  17.386 -1.5503 -0.3881 -0.0724
 1218TIP3   OH227848   4.128   1.589  16.580 -0.0445 -0.3663  0.2201
 1218TIP3    H127849   4.150   1.618  16.669  0.0167 -2.6614  0.9984
 1218TIP3    H227850   4.038   1.620  16.567 -0.0990 -0.1203  1.1367
 1219TIP3   OH227851   0.396   6.341  16.913  0.1704  0.4825  0.5143
 1219TIP3    H127852   0.455   6.316  16.985  0.0131 -1.1469  0.1111
 1219TIP3    H227853   0.344   6.262  16.896 -1.0515  1.4077 -0.1939
 1220TIP3   OH227854   4.538   3.688  17.662 -0.0084 -0.0909 -0.4350
 1220TIP3    H127855   4.498   3.765  17.622 -0.2969 -1.0227 -2.0124
 1220TIP3    H227856   4.619   3.721  17.702 -1.8971  1.7053  2.2257
 1221TIP3   OH227857   1.404   6.290  17.315  0.2517  0.2581  0.2922
 1221TIP3    H127858   1.439   6.290  17.404 -0.1407  1.0442  0.4568
 1221TIP3    H227859   1.453   6.359  17.270 -0.1937  0.4938  0.1642
 1222TIP3   OH227860   7.146   6.756  18.007 -0.0491  0.2894  0.5497
 1222TIP3    H127861   7.123   6.664  18.022 -0.9528  0.6489  1.5111
 1222TIP3    H227862   7.062   6.800  17.993  0.3829  0.9513 -0.0845
 1223TIP3   OH227863   3.315   5.747  16.728  0.3665  0.0237 -0.2886
 1223TIP3    H127864   3.395   5.791  16.757 -0.1830  0.6636  0.2913
 1223TIP3    H227865   3.246   5.784  16.783 -0.2078 -1.1477 -0.1823
 1224TIP3   OH227866   5.252   4.611  16.138 -0.2014  0.1469 -0.1993
 1224TIP3    H127867   5.295   4.587  16.056 -1.1089 -3.7633  0.2494
 1224TIP3    H227868   5.287   4.550  16.203 -1.5819  1.2267  1.6778
 1225TIP3   OH227869   4.422   6.916  16.813  0.5841 -0.1999  0.0992
 1225TIP3    H127870   4.454   6.925  16.903 -0.7004 -0.8495  0.6524
 1225TIP3    H227871   4.496   6.880  16.765  1.4554  0.6298  0.7689
 1226TIP3   OH227872   3.835   5.691  17.243 -0.3097 -0.2499  0.8376
 1226TIP3    H127873   3.743   5.702  17.266 -0.2927 -0.6097  1.1017
 1226TIP3    H227874   3.878   5.672  17.327  0.0734  0.3303  0.7773
 1227TIP3   OH227875   0.775   4.774  17.418 -0.4478 -0.0242  0.5329
 1227TIP3    H127876   0.714   4.796  17.347  0.0924 -1.2015 -0.3450
 1227TIP3    H227877   0.755   4.682  17.438 -0.1928  0.1232  1.5183
 1228TIP3   OH227878   7.384   7.426  17.307  0.1486 -0.3811 -0.0007
 1228TIP3    H127879   7.468   7.459  17.340 -0.8804  4.1352 -1.2508
 1228TIP3    H227880   7.346   7.379  17.381  2.2088  0.6705  1.8589
 1229TIP3   OH227881   7.226   4.167  16.156 -0.1519 -0.3022  0.3038
 1229TIP3    H127882   7.228   4.224  16.233 -0.6995 -0.2208  0.2672
 1229TIP3    H227883   7.312   4.177  16.115 -0.3487  0.7448  0.1246
 1230TIP3   OH227884   3.849   5.256  17.397  0.1799 -0.0007  0.4234
 1230TIP3    H127885   3.920   5.197  17.423  0.1130 -0.8591 -1.2084
 1230TIP3    H227886   3.771   5.201  17.393  0.3449 -0.1771 -2.3423
 1231TIP3   OH227887   5.636   4.973  16.011  0.3052 -0.1285  0.0541
 1231TIP3    H127888   5.703   5.032  16.045  1.5686 -0.5461 -1.5824
 1231TIP3    H227889   5.561   5.029  15.992  1.6843  1.1373 -2.0434
 1232TIP3   OH227890   6.478   6.378  17.993 -0.0247 -0.0950 -0.2667
 1232TIP3    H127891   6.397   6.363  18.041  0.1038  0.1616  0.0299
 1232TIP3    H227892   6.452   6.431  17.918 -0.3670 -1.2038 -0.9502
 1233TIP3   OH227893   2.672   6.089  16.644 -0.0803 -0.4167 -0.3936
 1233TIP3    H127894   2.647   6.141  16.568  1.2504 -1.2191 -1.4164
 1233TIP3    H227895   2.677   5.999  16.612 -1.3546 -1.0665  1.1097
 1234TIP3   OH227896   3.210   6.899  17.316 -0.1259  0.2668 -0.1056
 1234TIP3    H127897   3.213   6.806  17.294 -0.3492  0.3165 -0.3444
 1234TIP3    H227898   3.300   6.921  17.338 -0.0777 -0.0142 -0.0160
 1235TIP3   OH227899   2.150   5.496  15.861  0.2866  0.2486  1.1952
 1235TIP3    H127900   2.177   5.404  15.868 -1.3362 -0.3427  0.2501
 1235TIP3    H227901   2.231   5.543  15.839  1.1026 -0.9839  1.4456
 1236TIP3   OH227902   2.778   2.954  16.450  0.1348 -0.1567  0.1158
 1236TIP3    H127903   2.750   3.021  16.387 -1.0976 -1.2056 -0.4958
 1236TIP3    H227904   2.840   3.000  16.507 -0.6330  1.4944 -0.3058
 1237TIP3   OH227905   5.175   2.825  17.581  0.0297 -0.3113  0.0710
 1237TIP3    H127906   5.169   2.777  17.663 -0.2439 -2.1954 -0.9960
 1237TIP3    H227907   5.259   2.871  17.586  0.0939 -0.5286  1.3152
 1238TIP3   OH227908   0.836   5.582  17.786 -0.0923  0.6972  0.5771
 1238TIP3    H127909   0.859   5.490  17.774 -1.3117  0.6550 -1.8864
 1238TIP3    H227910   0.911   5.619  17.834 -0.0692 -1.7485  2.6507
 1239TIP3   OH227911   2.820   6.588  16.944  0.0828  0.1861 -0.0436
 1239TIP3    H127912   2.812   6.610  16.851  2.2799  0.6423 -0.1824
 1239TIP3    H227913   2.844   6.495  16.944  0.3541  0.2547  0.0435
 1240TIP3   OH227914   4.062   2.966  16.917 -0.0683  0.8128  0.4625
 1240TIP3    H127915   4.019   2.931  16.838  1.6702 -1.1857  0.3233
 1240TIP3    H227916   4.124   3.031  16.884  0.8135 -0.1776  0.1288
 1241TIP3   OH227917   5.014   7.121  16.646  0.0983 -0.0287  0.1238
 1241TIP3    H127918   4.931   7.161  16.673 -1.1346 -1.4040 -1.4144
 1241TIP3    H227919   5.053   7.185  16.586 -0.6331 -0.0149 -0.3549
 1242TIP3   OH227920   1.328   5.666  15.587  0.5157 -0.2191  0.0772
 1242TIP3    H127921   1.364   5.680  15.675  1.6095  0.7107 -0.4979
 1242TIP3    H227922   1.279   5.746  15.569 -2.0413 -1.4915  0.8775
 1243TIP3   OH227923   4.557   2.981  16.699  0.3281  0.3978  0.2725
 1243TIP3    H127924   4.492   2.966  16.768  0.3126  0.4320  0.2659
 1243TIP3    H227925   4.578   3.074  16.706  0.3212  0.4031  0.2275
 1244TIP3   OH227926   2.598   3.565  16.903  0.2412 -0.1804  0.6539
 1244TIP3    H127927   2.563   3.604  16.823 -0.6519 -1.7065  0.2559
 1244TIP3    H227928   2.693   3.565  16.889  0.0657 -1.4375 -0.9565
 1245TIP3   OH227929   1.874   1.893  17.509 -0.2396  0.1610  0.1945
 1245TIP3    H127930   1.895   1.817  17.455  2.5732  0.3624  0.8081
 1245TIP3    H227931   1.787   1.921  17.480 -1.0335 -2.7966 -0.5659
 1246TIP3   OH227932   0.686   0.303  16.930 -0.4194 -0.2145  0.0278
 1246TIP3    H127933   0.710   0.340  17.015  0.2494 -0.7485  0.0854
 1246TIP3    H227934   0.689   0.378  16.870 -0.6161  0.1133  0.4199
 1247TIP3   OH227935   1.056   2.140  17.184  0.3519  0.3287 -0.2189
 1247TIP3    H127936   1.026   2.231  17.186 -0.5440  0.0506  2.6417
 1247TIP3    H227937   1.149   2.145  17.207  0.4986  0.5524 -0.8378
 1248TIP3   OH227938   4.772   1.854  16.313  0.3135  0.3390 -0.2926
 1248TIP3    H127939   4.749   1.927  16.371  0.7038 -0.2144  0.5861
 1248TIP3    H227940   4.694   1.840  16.260 -0.6451 -0.1167  1.1660
 1249TIP3   OH227941   4.775   3.793  16.635  0.2162  0.1076 -0.1785
 1249TIP3    H127942   4.860   3.748  16.635  0.2600  0.1927 -0.3916
 1249TIP3    H227943   4.719   3.738  16.581  0.6601  1.0515 -1.6670
 1250TIP3   OH227944   1.959   7.559  15.998  0.7327  0.5995 -0.8489
 1250TIP3    H127945   1.916   7.502  16.062  1.3441  1.5785  0.4651
 1250TIP3    H227946   1.946   7.514  15.914  1.3859 -1.5730  0.1504
 1251TIP3   OH227947   5.908   7.166  17.876 -0.5366  0.2768 -0.6128
 1251TIP3    H127948   5.964   7.224  17.824  0.8608 -0.9525 -0.5596
 1251TIP3    H227949   5.863   7.112  17.811  1.1490 -1.2046 -0.6322
 1252TIP3   OH227950   2.318   8.204  15.966  0.0458  0.0650 -0.2867
 1252TIP3    H127951   2.255   8.165  16.027  0.1656 -0.7225 -0.6551
 1252TIP3    H227952   2.277   8.286  15.938 -0.2305  0.1918  0.4700
 1253TIP3   OH227953   1.360   1.268  15.608 -0.0815 -0.1531  0.0882
 1253TIP3    H127954   1.385   1.177  15.591 -2.3094 -1.0694  1.2365
 1253TIP3    H227955   1.423   1.320  15.559 -1.0073 -2.3536 -3.9099
 1254TIP3   OH227956   8.254   1.753  17.174  0.0847 -0.2647  0.5235
 1254TIP3    H127957   8.329   1.809  17.196  0.2850 -0.5362  0.5408
 1254TIP3    H227958   8.180   1.813  17.170  0.5901  0.2867 -1.2015
 1255TIP3   OH227959   4.801   6.431  17.357 -0.0529  0.4598  0.4294
 1255TIP3    H127960   4.781   6.425  17.451  2.5242  0.5020  1.0448
 1255TIP3    H227961   4.800   6.525  17.339 -1.2771  0.4174  0.2137
 1256TIP3   OH227962   7.155   4.965  16.236 -0.3308  0.2256  0.0334
 1256TIP3    H127963   7.093   4.971  16.309 -1.9716 -1.4773 -1.1187
 1256TIP3    H227964   7.199   4.881  16.249 -0.0600  0.2831 -0.4981
 1257TIP3   OH227965   6.677   2.910  17.028 -0.0494  0.4541  0.7738
 1257TIP3    H127966   6.638   2.890  17.113  0.9967 -0.9156  0.9619
 1257TIP3    H227967   6.675   2.828  16.980 -0.6160  1.2129 -0.5438
 1258TIP3   OH227968   0.065   6.389  17.356 -0.2174 -0.5347  0.1733
 1258TIP3    H127969   0.158   6.389  17.375  0.1876  1.2197 -1.4642
 1258TIP3    H227970   0.060   6.365  17.263 -1.4911 -1.5861  0.4824
 1259TIP3   OH227971   1.373   7.467  17.454 -0.2122  0.5616 -0.2978
 1259TIP3    H127972   1.399   7.559  17.462 -0.8169  0.6038  1.6693
 1259TIP3    H227973   1.279   7.467  17.471 -0.1231 -0.4765  0.2850
 1260TIP3   OH227974   3.729   6.514  16.286 -0.4769  1.1827  0.1671
 1260TIP3    H127975   3.787   6.589  16.294  1.9055 -0.4293 -0.6536
 1260TIP3    H227976   3.676   6.533  16.209  0.4525  1.8430 -0.3333
 1261TIP3   OH227977   0.310   7.758  17.098 -0.3654  0.1612  0.1180
 1261TIP3    H127978   0.297   7.750  17.003  1.8447  1.8989 -0.4016
 1261TIP3    H227979   0.315   7.852  17.114 -0.8445 -0.0994  2.0029
 1262TIP3   OH227980   1.488   3.467  17.810 -0.5871 -0.1615 -0.0353
 1262TIP3    H127981   1.409   3.412  17.810 -1.0128  0.4307  0.1623
 1262TIP3    H227982   1.561   3.405  17.815 -0.9452 -0.8144 -2.0943
 1263TIP3   OH227983   1.267   4.066  15.497 -0.1477 -0.0477 -0.7646
 1263TIP3    H127984   1.257   3.992  15.436 -1.6950 -1.1500  0.7279
 1263TIP3    H227985   1.327   4.034  15.564 -0.6981  0.0821 -0.1949
 1264TIP3   OH227986   6.203   1.285  17.913  0.3334 -0.3782  0.3713
 1264TIP3    H127987   6.297   1.280  17.895  0.2082  0.4908 -0.6015
 1264TIP3    H227988   6.198   1.313  18.005  1.0741  1.6551 -0.1519
 1265TIP3   OH227989   2.787   3.358  17.021 -0.1983 -0.4632  0.1711
 1265TIP3    H127990   2.719   3.395  16.964 -0.1843 -0.7853 -0.0602
 1265TIP3    H227991   2.748   3.277  17.055  0.3522 -1.0582 -0.5772
 1266TIP3   OH227992   7.535   1.319  16.570  0.0577 -0.2882 -0.0698
 1266TIP3    H127993   7.602   1.285  16.511  0.4735 -1.3037  0.9509
 1266TIP3    H227994   7.455   1.272  16.546 -0.8612  2.2238 -2.5365
 1267TIP3   OH227995   0.979   2.711  16.867  0.6257 -0.4628  0.3733
 1267TIP3    H127996   0.998   2.617  16.873 -0.5020 -0.6462  1.3489
 1267TIP3    H227997   1.002   2.746  16.953 -1.6148 -0.3767  0.9890
 1268TIP3   OH227998   8.082   4.693  17.655  0.0975  0.3681 -0.8529
 1268TIP3    H127999   7.990   4.676  17.677  0.3438 -0.6035 -0.5302
 1268TIP3    H228000   8.124   4.607  17.660  1.3332  1.0151  0.4680
 1269TIP3   OH228001   1.758   1.209  17.408  0.2374 -0.2245 -1.3671
 1269TIP3    H128002   1.817   1.170  17.472  1.2729  3.0518 -0.1467
 1269TIP3    H228003   1.673   1.167  17.425  1.2386 -1.8834 -0.2064
 1270TIP3   OH228004   2.608   1.980  17.958  0.6115  0.2225  0.5139
 1270TIP3    H128005   2.646   1.904  17.914  1.4627  0.0503  1.5063
 1270TIP3    H228006   2.520   1.952  17.983  0.9029 -0.4137  0.8286
 1271TIP3   OH228007   3.849   0.675  17.290 -0.4318 -0.3053  0.3807
 1271TIP3    H128008   3.791   0.669  17.365 -0.2083  0.4965  0.6289
 1271TIP3    H228009   3.819   0.752  17.242 -0.6040 -0.8361 -0.3833
 1272TIP3   OH228010   4.400   4.591  16.190  0.1371  0.2310  0.7883
 1272TIP3    H128011   4.323   4.549  16.228  0.5386 -0.4312  0.8667
 1272TIP3    H228012   4.391   4.683  16.215 -1.0223  0.3110  0.1590
 1273TIP3   OH228013   1.354   3.125  16.699  0.1107  0.0897 -0.5996
 1273TIP3    H128014   1.369   3.178  16.778  3.0013 -1.1539 -0.1722
 1273TIP3    H228015   1.259   3.111  16.697  0.0060 -2.1621  4.3383
 1274TIP3   OH228016   1.237   0.471  17.159 -0.5096  0.3031  0.2378
 1274TIP3    H128017   1.320   0.483  17.206 -0.8106  2.1493  0.3802
 1274TIP3    H228018   1.173   0.452  17.227 -0.2622 -0.9131  0.1490
 1275TIP3   OH228019   6.047   1.737  17.557  0.1766 -0.0219  0.2907
 1275TIP3    H128020   6.116   1.672  17.545 -0.9015 -1.4072  1.3150
 1275TIP3    H228021   5.978   1.711  17.496 -0.5619 -0.2957  1.2244
 1276TIP3   OH228022   1.154   7.647  15.826 -0.0652 -0.0920  0.0528
 1276TIP3    H128023   1.072   7.696  15.831 -0.0160  0.1547 -1.3090
 1276TIP3    H228024   1.220   7.707  15.860 -0.1470  0.4552 -0.7440
 1277TIP3   OH228025   6.723   5.390  17.120 -0.4583  0.0356 -0.4669
 1277TIP3    H128026   6.731   5.477  17.160  1.7251  0.4078 -1.5688
 1277TIP3    H228027   6.707   5.332  17.194  0.5618  1.0738  0.6322
 1278TIP3   OH228028   0.444   2.287  17.434 -0.5984 -0.0169  0.1672
 1278TIP3    H128029   0.495   2.212  17.464 -0.2324  0.5801  1.0688
 1278TIP3    H228030   0.433   2.273  17.340  1.6708  0.1035 -0.1650
 1279TIP3   OH228031   4.940   2.462  17.021 -0.0600  0.3127  0.1861
 1279TIP3    H128032   4.943   2.468  16.925  0.1304 -1.8158  0.0143
 1279TIP3    H228033   4.990   2.538  17.051 -0.3140  1.1496 -1.3875
 1280TIP3   OH228034   4.196   1.928  17.068 -0.0403  0.6819  0.2129
 1280TIP3    H128035   4.209   1.881  17.150 -0.4738  0.0533 -0.0619
 1280TIP3    H228036   4.101   1.943  17.064  0.0661  1.3795  0.1819
 1281TIP3   OH228037   1.991   2.688  17.366 -0.0982 -0.2083 -0.1333
 1281TIP3    H128038   1.931   2.647  17.429  0.2601  0.3892  0.6106
 1281TIP3    H228039   2.076   2.646  17.382  0.4578  1.3362  1.1810
 1282TIP3   OH228040   8.097   1.418  16.758  0.6371 -0.1622 -0.3070
 1282TIP3    H128041   8.108   1.473  16.836 -1.1087 -0.3475  0.1055
 1282TIP3    H228042   8.107   1.479  16.685  3.2384 -0.1428 -0.0552
 1283TIP3   OH228043   0.394   6.428  16.654 -0.1149 -0.0429 -0.3567
 1283TIP3    H128044   0.386   6.391  16.742 -0.5857  0.1623 -0.3153
 1283TIP3    H228045   0.305   6.453  16.629  0.2397  1.4168 -0.2387
 1284TIP3   OH228046   2.473   2.613  15.893 -0.0153 -0.3001 -0.6856
 1284TIP3    H128047   2.419   2.691  15.907  0.6899  0.1011 -0.1539
 1284TIP3    H228048   2.468   2.598  15.798  0.3583  0.7834 -0.9026
 1285TIP3   OH228049   1.373   4.093  16.117  0.1295 -0.5065  0.4444
 1285TIP3    H128050   1.406   4.183  16.110 -2.5466  0.5385  0.2450
 1285TIP3    H228051   1.383   4.071  16.210  1.7484 -0.4270  0.3136
 1286TIP3   OH228052   1.321   1.049  16.376  0.5021 -0.5308 -0.0034
 1286TIP3    H128053   1.373   0.994  16.436 -0.5947 -2.4280 -0.6917
 1286TIP3    H228054   1.366   1.041  16.292  0.2255 -0.5257 -0.1504
 1287TIP3   OH228055   1.168   7.852  16.403  0.6976  0.5927  0.3940
 1287TIP3    H128056   1.222   7.841  16.324 -0.1004 -1.3354  0.0738
 1287TIP3    H228057   1.096   7.790  16.392 -0.4201  1.5694  1.8282
 1288TIP3   OH228058   5.515   0.275  16.742  0.2562  0.1073 -0.1775
 1288TIP3    H128059   5.534   0.181  16.746 -0.2057 -0.0981 -1.8414
 1288TIP3    H228060   5.527   0.306  16.831  1.4140 -1.3426  0.2105
 1289TIP3   OH228061   7.385   6.828  15.875 -0.2609  0.7191  0.6140
 1289TIP3    H128062   7.379   6.884  15.952  0.3922  0.6483  0.7200
 1289TIP3    H228063   7.376   6.888  15.801 -0.4190  0.8511  0.7410
 1290TIP3   OH228064   3.601   5.811  16.438 -0.7745 -0.3136 -0.5331
 1290TIP3    H128065   3.543   5.802  16.514 -0.6863 -1.9250 -0.6322
 1290TIP3    H228066   3.684   5.842  16.475 -0.3299 -2.2960  0.2402
 1291TIP3   OH228067   8.197   7.183  17.319  0.3700  0.6872 -0.8519
 1291TIP3    H128068   8.204   7.103  17.371 -1.1542  1.4649  0.6541
 1291TIP3    H228069   8.282   7.227  17.330  1.2842 -0.7680 -1.8405
 1292TIP3   OH228070   0.601   7.728  16.582 -0.3049 -0.1363  0.2307
 1292TIP3    H128071   0.655   7.772  16.648  0.9921 -0.1268 -0.7885
 1292TIP3    H228072   0.645   7.644  16.567 -0.6968 -0.2273 -0.4701
 1293TIP3   OH228073   0.635   3.178  16.961  0.1830  0.4314 -0.2733
 1293TIP3    H128074   0.704   3.215  17.017  1.8924 -1.5164 -0.9549
 1293TIP3    H228075   0.560   3.167  17.019  0.8359  1.4473  0.8165
 1294TIP3   OH228076   3.400   0.003  16.667 -0.9140  0.8005 -0.0430
 1294TIP3    H128077   3.331   0.036  16.610 -0.8835  0.6093 -0.1895
 1294TIP3    H228078   3.479   0.006  16.613 -0.8522  0.7887  0.0457
 1295TIP3   OH228079   5.123   6.495  16.828 -0.2441 -0.9174 -0.4268
 1295TIP3    H128080   5.135   6.462  16.916 -0.9948 -1.2273 -0.4308
 1295TIP3    H228081   5.210   6.521  16.799  0.0190 -0.9023  0.3662
 1296TIP3   OH228082   4.094   4.746  16.946  0.5906 -0.0705  0.6570
 1296TIP3    H128083   4.052   4.721  17.029  0.7102  1.1414  1.1023
 1296TIP3    H228084   4.091   4.667  16.893  1.4817 -1.1835  2.2142
 1297TIP3   OH228085   3.890   7.241  16.437  0.6796  0.2894 -0.0494
 1297TIP3    H128086   3.958   7.264  16.374 -0.0705  0.5860 -0.7660
 1297TIP3    H228087   3.878   7.319  16.490 -1.6211  1.5828 -2.2583
 1298TIP3   OH228088   4.856   3.777  17.073  0.2121  0.3893 -0.0812
 1298TIP3    H128089   4.818   3.704  17.023 -0.3538  1.0074 -0.5742
 1298TIP3    H228090   4.949   3.757  17.078 -0.0118 -0.6392  0.2502
 1299TIP3   OH228091   7.389   6.330  18.078 -0.0550  0.6248  0.3634
 1299TIP3    H128092   7.407   6.361  18.166  1.1560 -0.3942  0.5018
 1299TIP3    H228093   7.420   6.400  18.020  1.1758  0.3815  0.7044
 1300TIP3   OH228094   1.856   1.950  15.893  0.0724 -1.2857 -0.0728
 1300TIP3    H128095   1.876   1.964  15.986  0.2944 -2.4698  0.0793
 1300TIP3    H228096   1.761   1.942  15.889 -0.1128  0.6555 -0.2457
 1301TIP3   OH228097   7.154   6.440  17.640 -0.5416  0.1418 -0.3341
 1301TIP3    H128098   7.155   6.370  17.705 -0.8216  0.2014 -0.2659
 1301TIP3    H228099   7.238   6.431  17.595 -0.1070  0.4337  0.3952
 1302TIP3   OH228100   1.583   5.624  15.487 -0.0113 -0.0979 -0.3948
 1302TIP3    H128101   1.579   5.714  15.454  1.3403 -0.0195 -0.3991
 1302TIP3    H228102   1.504   5.614  15.540 -0.2155  1.0700 -0.4553
 1303TIP3   OH228103   3.515   3.774  16.098  0.4018  0.6373  0.0914
 1303TIP3    H128104   3.501   3.741  16.009 -0.0275  1.4451 -0.1534
 1303TIP3    H228105   3.436   3.748  16.146  0.9364 -0.3938  0.4247
 1304TIP3   OH228106   3.891   2.240  17.235  0.1500 -0.2133  0.3742
 1304TIP3    H128107   3.870   2.254  17.327  0.0977 -0.2612  0.3691
 1304TIP3    H228108   3.827   2.291  17.186 -0.0724 -0.5076  0.3556
 1305TIP3   OH228109   2.069   6.618  16.601 -0.2177 -0.0177  0.1060
 1305TIP3    H128110   2.023   6.593  16.682 -1.1002 -0.8961 -0.6289
 1305TIP3    H228111   2.142   6.556  16.594  0.4655  0.7026  0.7326
 1306TIP3   OH228112   2.132   6.865  16.518  0.0667 -0.0167 -0.3157
 1306TIP3    H128113   2.112   6.781  16.559 -0.0919  0.5974  0.9206
 1306TIP3    H228114   2.064   6.877  16.452 -1.1468  0.0879  0.9246
 1307TIP3   OH228115   5.903   2.478  16.527 -0.1742 -0.1655 -0.2692
 1307TIP3    H128116   5.952   2.528  16.593 -0.4159  1.6381 -1.3813
 1307TIP3    H228117   5.969   2.453  16.462  0.4574 -3.6866  1.5013
 1308TIP3   OH228118   1.256   7.256  17.663 -0.7405  0.8610  0.2644
 1308TIP3    H128119   1.281   7.313  17.736  0.5587 -1.8777  2.1514
 1308TIP3    H228120   1.273   7.308  17.585  1.4286  2.7133  1.8253
 1309TIP3   OH228121   5.785   7.740  17.019  0.3972 -0.2359  0.3277
 1309TIP3    H128122   5.809   7.790  17.097  0.6500 -1.9697  1.4128
 1309TIP3    H228123   5.817   7.792  16.946  1.0854  0.9319  1.4306
 1310TIP3   OH228124   1.717   2.866  17.429 -0.6046 -0.5462  0.0137
 1310TIP3    H128125   1.698   2.829  17.343 -0.8787  0.5550 -0.4200
 1310TIP3    H228126   1.698   2.960  17.420 -0.4441 -0.3738  1.2155
 1311TIP3   OH228127   7.454   4.713  17.083  0.1191  0.1405 -0.3907
 1311TIP3    H128128   7.483   4.676  17.167 -0.8599 -0.2011 -0.1918
 1311TIP3    H228129   7.470   4.644  17.019 -2.6885 -1.1259  0.1420
 1312TIP3   OH228130   7.592   0.986  17.953 -0.0784  0.4214 -0.1080
 1312TIP3    H128131   7.619   0.930  18.027  0.5182  1.0555  0.1588
 1312TIP3    H228132   7.509   0.947  17.923  1.0623 -1.5252 -0.9145
 1313TIP3   OH228133   0.870   6.099  17.364  0.0536  0.0013  0.3209
 1313TIP3    H128134   0.794   6.140  17.406 -0.5164  0.8902 -1.4713
 1313TIP3    H228135   0.946   6.138  17.409 -0.4749  2.7661 -0.9192
 1314TIP3   OH228136   8.061   7.314  17.762  0.0785  0.1327 -0.3685
 1314TIP3    H128137   8.089   7.243  17.820 -0.6663 -1.1731 -1.5377
 1314TIP3    H228138   8.079   7.394  17.811 -2.9566 -0.8987  2.8750
 1315TIP3   OH228139   1.145   3.080  16.077  0.7733 -0.0733  0.1065
 1315TIP3    H128140   1.103   3.070  15.992  0.8431 -0.7487  0.1411
 1315TIP3    H228141   1.161   3.173  16.086  1.0512 -0.0321 -0.7617
 1316TIP3   OH228142   2.893   0.048  16.772  0.1019 -0.4970  0.1372
 1316TIP3    H128143   2.952  -0.005  16.719 -0.5255 -0.2366 -0.8497
 1316TIP3    H228144   2.851   0.107  16.709  0.0532  0.4867  1.0647
 1317TIP3   OH228145   2.345   0.065  15.614  0.0504  0.2311  0.6570
 1317TIP3    H128146   2.425   0.033  15.572 -0.0367 -1.1581  1.4716
 1317TIP3    H228147   2.371   0.086  15.704 -0.2192  1.0948  0.5419
 1318TIP3   OH228148   5.975   3.142  17.326 -0.1010  0.5051 -0.1974
 1318TIP3    H128149   6.030   3.079  17.279  0.1677 -0.3699  1.2103
 1318TIP3    H228150   6.033   3.178  17.393 -1.5156 -1.5444  2.3164
 1319TIP3   OH228151   3.615   6.411  17.684 -0.2807 -0.8273 -0.4313
 1319TIP3    H128152   3.703   6.376  17.701 -0.1828 -1.1101 -1.4353
 1319TIP3    H228153   3.626   6.506  17.689  0.3700 -0.8117 -1.7932
 1320TIP3   OH228154   5.606   4.480  15.741  0.0517  0.0011  0.1992
 1320TIP3    H128155   5.530   4.464  15.686 -0.0896 -0.6469  0.5718
 1320TIP3    H228156   5.604   4.410  15.806  0.7304  0.2200  0.4687
 1321TIP3   OH228157   8.354   0.707  16.249  0.1699 -0.2036 -0.4680
 1321TIP3    H128158   8.421   0.688  16.315  1.3129 -3.0957 -2.2824
 1321TIP3    H228159   8.294   0.633  16.252 -0.9238  0.6123 -1.3020
 1322TIP3   OH228160   0.762   2.314  16.660  0.2614  0.4903  0.6234
 1322TIP3    H128161   0.684   2.261  16.644  1.6483 -1.3563 -0.4883
 1322TIP3    H228162   0.728   2.400  16.686 -2.1400  0.0349 -0.6571
 1323TIP3   OH228163   2.563   7.035  16.562 -0.8920  0.1045 -0.3369
 1323TIP3    H128164   2.483   7.013  16.516 -1.1253 -0.2595  0.2312
 1323TIP3    H228165   2.534   7.069  16.647 -0.4231 -2.1609  0.7943
 1324TIP3   OH228166   3.380   5.476  17.527  0.5471 -0.4836 -0.6727
 1324TIP3    H128167   3.425   5.513  17.451  0.6767 -1.6755 -1.1843
 1324TIP3    H228168   3.407   5.533  17.600  0.7275  0.4282 -1.4344
 1325TIP3   OH228169   7.658   0.560  17.730 -0.3569  0.4391 -0.1052
 1325TIP3    H128170   7.634   0.647  17.698 -0.4163  0.3091 -0.4157
 1325TIP3    H228171   7.575   0.514  17.739 -0.2501  0.0715 -0.9454
 1326TIP3   OH228172   5.719   8.308  17.848  0.2089 -0.5476 -0.4443
 1326TIP3    H128173   5.696   8.216  17.834 -0.7699 -0.5590  1.1374
 1326TIP3    H228174   5.809   8.305  17.882  1.2649 -0.7074 -2.9873
 1327TIP3   OH228175   5.016   3.171  17.340  0.4606  0.3085 -0.0839
 1327TIP3    H128176   5.041   3.080  17.326 -1.3634 -0.0355 -1.4736
 1327TIP3    H228177   5.089   3.209  17.388  1.5113 -1.7372  0.0259
 1328TIP3   OH228178   1.834   6.202  15.835 -0.1333  0.7421  0.3059
 1328TIP3    H128179   1.791   6.219  15.919  1.1979  0.6172  1.0440
 1328TIP3    H228180   1.763   6.178  15.776 -1.0583  0.4757  1.4939
 1329TIP3   OH228181   6.275   4.393  16.952  0.1866  0.2317  0.2186
 1329TIP3    H128182   6.195   4.368  16.905  0.1715 -0.8552  0.8012
 1329TIP3    H228183   6.338   4.324  16.931  1.0740  1.2084 -0.4350
 1330TIP3   OH228184   0.928   0.344  16.544 -0.0419  0.5991 -0.4160
 1330TIP3    H128185   0.884   0.268  16.583  1.9498 -0.3831  0.0320
 1330TIP3    H228186   0.924   0.329  16.450  0.1389  0.0496 -0.3403
 1331TIP3   OH228187   7.655   5.100  16.090  0.4297 -0.5529  0.4298
 1331TIP3    H128188   7.693   5.185  16.113  2.4434 -0.7343 -1.7911
 1331TIP3    H228189   7.731   5.047  16.062 -1.1618 -1.8013 -1.8498
 1332TIP3   OH228190   3.466   1.245  16.133 -0.6913  0.2345  0.4925
 1332TIP3    H128191   3.413   1.217  16.059  0.5466  0.6215 -0.5662
 1332TIP3    H228192   3.518   1.319  16.101  1.2895 -0.7899  1.1134
 1333TIP3   OH228193   3.180   7.403  15.614 -0.4007  1.4345 -0.3514
 1333TIP3    H128194   3.193   7.309  15.611 -1.7857  1.1025  1.6142
 1333TIP3    H228195   3.267   7.440  15.629 -0.1812  0.2280  1.6082
 1334TIP3   OH228196   6.723   1.145  16.866  0.3021 -0.3257 -0.2016
 1334TIP3    H128197   6.772   1.069  16.898 -1.0859 -0.9655  0.4714
 1334TIP3    H228198   6.751   1.155  16.775  0.4389 -1.7101 -0.3336
 1335TIP3   OH228199   7.622   6.748  17.911 -0.3321  0.1232  0.4148
 1335TIP3    H128200   7.680   6.779  17.980 -1.1014 -0.4332  1.3492
 1335TIP3    H228201   7.556   6.695  17.957 -0.3469 -1.0273 -0.8456
 1336TIP3   OH228202   2.880   7.108  16.368  0.2635  0.0406 -0.3351
 1336TIP3    H128203   2.816   7.038  16.357 -0.7347  0.7810  0.5633
 1336TIP3    H228204   2.898   7.110  16.462 -0.1197  1.3129 -0.2748
 1337TIP3   OH228205   2.513   2.501  16.562 -0.1023 -0.0993 -0.0067
 1337TIP3    H128206   2.426   2.497  16.602 -0.4063 -1.2938 -0.7480
 1337TIP3    H228207   2.501   2.552  16.482  0.0134  0.2513  0.1973
 1338TIP3   OH228208   6.870   6.998  16.999  0.3821 -0.5604  0.2228
 1338TIP3    H128209   6.829   7.071  16.954  0.7257  0.1994  1.1017
 1338TIP3    H228210   6.952   6.984  16.953  0.5621 -0.0302  0.3730
 1339TIP3   OH228211   8.276   4.776  16.056 -0.0975 -0.2664 -0.6151
 1339TIP3    H128212   8.198   4.742  16.100 -0.0692  0.2152 -0.1884
 1339TIP3    H228213   8.307   4.846  16.113 -0.0164  0.3150 -1.3576
 1340TIP3   OH228214   4.311   3.289  16.323  0.0321 -0.7738  0.1079
 1340TIP3    H128215   4.361   3.255  16.398 -1.4266  1.2052  2.0649
 1340TIP3    H228216   4.227   3.244  16.328 -0.2127 -0.3419 -0.1342
 1341TIP3   OH228217   1.194   3.706  17.378  0.3750 -0.2186  0.2618
 1341TIP3    H128218   1.281   3.715  17.340  0.4758 -0.9538  0.3107
 1341TIP3    H228219   1.144   3.779  17.342  0.9737  0.1322  0.1344
 1342TIP3   OH228220   0.664   4.515  17.482 -0.1970  0.5557  0.7118
 1342TIP3    H128221   0.569   4.523  17.488 -0.6640 -2.7234 -0.0611
 1342TIP3    H228222   0.684   4.434  17.530  2.0845  0.7351  0.1639
 1343TIP3   OH228223   1.133   0.178  15.990 -0.2926  0.1688 -0.2632
 1343TIP3    H128224   1.075   0.116  15.946 -1.8618  2.3246 -1.4636
 1343TIP3    H228225   1.205   0.192  15.928  1.9056 -2.7795  1.3756
 1344TIP3   OH228226   7.392   4.542  17.847 -0.2410 -0.6841 -0.0872
 1344TIP3    H128227   7.367   4.514  17.935  0.5809 -0.8134  0.1189
 1344TIP3    H228228   7.339   4.620  17.831 -0.5380 -0.7677  0.4461
 1345TIP3   OH228229   8.358   5.909  16.476 -0.4950 -0.1876 -0.1772
 1345TIP3    H128230   8.297   5.949  16.414 -1.0862 -0.5382  0.1660
 1345TIP3    H228231   8.301   5.863  16.539  0.1023 -0.1100  0.4311
 1346TIP3   OH228232   4.113   1.414  17.310 -0.3481 -0.1150 -0.4763
 1346TIP3    H128233   4.081   1.393  17.222 -0.2970  0.6305 -0.6759
 1346TIP3    H228234   4.037   1.454  17.353 -0.5815 -1.0986  0.0539
 1347TIP3   OH228235   6.937   8.216  16.288 -0.7114  0.3577  0.6244
 1347TIP3    H128236   6.846   8.199  16.263 -0.7741  1.6382 -0.1066
 1347TIP3    H228237   6.969   8.277  16.222  0.8694 -0.4956  0.5482
 1348TIP3   OH228238   3.756   2.029  16.066  0.5020  0.0033  0.0892
 1348TIP3    H128239   3.823   1.990  16.121  0.0680 -0.9613 -0.0492
 1348TIP3    H228240   3.742   2.116  16.103  0.4756 -0.4938  1.2780
 1349TIP3   OH228241   1.321   3.599  15.944  0.0557  0.2198  0.8629
 1349TIP3    H128242   1.315   3.693  15.960 -0.1906  0.8312 -2.1496
 1349TIP3    H228243   1.410   3.585  15.911 -0.7795  0.0257 -1.5450
 1350TIP3   OH228244   0.351   0.876  17.499 -0.2861  0.1921 -0.1836
 1350TIP3    H128245   0.273   0.909  17.543 -1.5955 -0.5151 -1.8603
 1350TIP3    H228246   0.349   0.918  17.413  1.7821  0.9541  0.0761
 1351TIP3   OH228247   5.129   3.942  16.932 -0.1132  0.3645 -0.2276
 1351TIP3    H128248   5.202   3.883  16.950 -0.6297 -0.4792 -0.8402
 1351TIP3    H228249   5.052   3.885  16.930 -0.5371  0.9475 -1.5030
 1352TIP3   OH228250   3.263   1.628  17.260  0.8681 -0.2869  0.8360
 1352TIP3    H128251   3.208   1.588  17.327 -1.4587 -1.6521 -1.6581
 1352TIP3    H228252   3.209   1.698  17.223  1.7014 -0.1485 -0.1828
 1353TIP3   OH228253   1.784   5.942  17.579  0.5406  0.0604  0.2149
 1353TIP3    H128254   1.739   5.946  17.495  0.9968 -0.5908 -0.0679
 1353TIP3    H228255   1.735   6.002  17.636 -0.8019 -0.7965 -0.0105
 1354TIP3   OH228256   2.082   8.338  17.438 -0.2953 -0.4888 -0.0518
 1354TIP3    H128257   2.081   8.422  17.483  1.6116  0.1168 -1.0434
 1354TIP3    H228258   1.992   8.306  17.445 -0.7712  1.0237  1.4297
 1355TIP3   OH228259   6.634   5.923  17.579  0.0288  0.0051  0.1100
 1355TIP3    H128260   6.633   5.849  17.519  0.6348 -0.1755  0.3196
 1355TIP3    H228261   6.697   5.984  17.541  0.2187  0.0046  0.4225
 1356TIP3   OH228262   5.718   3.076  16.838 -0.1365 -0.7220 -0.0418
 1356TIP3    H128263   5.676   3.008  16.890 -1.0917 -0.4483 -0.4224
 1356TIP3    H228264   5.784   3.030  16.787 -1.5168 -1.5771 -1.1350
 1357TIP3   OH228265   2.650   2.774  16.814  0.2093 -0.7061  0.0104
 1357TIP3    H128266   2.613   2.710  16.876 -0.6219 -0.8967 -0.6676
 1357TIP3    H228267   2.731   2.803  16.856  0.6996 -2.3257  0.2624
 1358TIP3   OH228268   0.790   7.882  16.354 -0.3015 -0.6798 -0.5696
 1358TIP3    H128269   0.732   7.813  16.387 -1.8454  0.4117 -0.9035
 1358TIP3    H228270   0.781   7.954  16.416  1.0932 -0.6400 -0.3737
 1359TIP3   OH228271   5.608   7.546  17.809  0.1836  0.2652  0.2289
 1359TIP3    H128272   5.675   7.582  17.750  0.1745 -3.1598 -2.1100
 1359TIP3    H228273   5.656   7.526  17.890  1.1527  1.1045 -0.1151
 1360TIP3   OH228274   6.827   5.352  16.854  0.6211 -0.1333  0.2572
 1360TIP3    H128275   6.762   5.288  16.826  2.0072 -0.9846 -1.1332
 1360TIP3    H228276   6.804   5.369  16.946 -0.3232 -1.9419  0.4145
 1361TIP3   OH228277   7.816   3.073  16.038 -0.2556 -0.4490  0.4043
 1361TIP3    H128278   7.737   3.061  15.985  0.2043 -2.5324  0.0995
 1361TIP3    H228279   7.878   3.008  16.005  0.7672 -0.4595  2.1752
 1362TIP3   OH228280   4.327   3.410  16.024  0.3597  0.0486 -0.6517
 1362TIP3    H128281   4.383   3.361  16.085 -0.2758 -0.3878 -0.4027
 1362TIP3    H228282   4.298   3.486  16.074 -0.6403 -0.6162 -0.1851
 1363TIP3   OH228283   2.173   3.159  17.143 -0.2652  0.1317 -0.2801
 1363TIP3    H128284   2.131   3.240  17.117  0.7508  0.7190 -0.1460
 1363TIP3    H228285   2.127   3.132  17.223 -0.5205  0.6387 -0.2548
 1364TIP3   OH228286   3.850   3.946  16.607 -0.2470 -0.3848  0.3149
 1364TIP3    H128287   3.872   3.923  16.698 -0.4980 -0.2602  0.4108
 1364TIP3    H228288   3.781   4.012  16.616  0.4763  0.4296  0.0513
 1365TIP3   OH228289   0.968   7.921  15.539  0.0276  0.1188 -0.2582
 1365TIP3    H128290   1.050   7.875  15.519 -0.5733 -0.5214 -1.2862
 1365TIP3    H228291   0.990   8.013  15.526  1.1227  0.1419  1.4131
 1366TIP3   OH228292   3.527   1.450  17.683 -0.3234  0.1026 -0.9106
 1366TIP3    H128293   3.510   1.432  17.590  0.0849 -2.3659 -0.5670
 1366TIP3    H228294   3.510   1.367  17.727  0.1693  1.0400  1.1573
 1367TIP3   OH228295   7.175   2.215  17.900  0.4532 -0.5462  0.1850
 1367TIP3    H128296   7.107   2.196  17.964 -0.0059 -0.3666 -0.2414
 1367TIP3    H228297   7.185   2.310  17.904  0.7301 -0.5782  0.2917
 1368TIP3   OH228298   8.153   0.405  17.903 -0.0018  0.4744  0.0638
 1368TIP3    H128299   8.119   0.486  17.865  2.0504  1.4783  0.2386
 1368TIP3    H228300   8.144   0.418  17.997 -0.4956  0.0966  0.0721
 1369TIP3   OH228301   8.133   6.875  16.868 -0.1710 -0.4126 -0.5382
 1369TIP3    H128302   8.161   6.964  16.849  1.0023 -0.9633 -1.5559
 1369TIP3    H228303   8.037   6.879  16.869 -0.1330  0.9991  0.2873
 1370TIP3   OH228304   2.090   1.368  16.604  0.6641  0.2062  0.0067
 1370TIP3    H128305   2.014   1.315  16.626 -0.2195  1.1787 -0.5691
 1370TIP3    H228306   2.158   1.305  16.579 -0.5703 -0.6300 -1.3619
 1371TIP3   OH228307   6.988   3.932  18.154  0.1499  0.1749  0.5192
 1371TIP3    H128308   6.939   3.922  18.236  0.2445 -1.2031  0.4327
 1371TIP3    H228309   7.070   3.973  18.179 -0.8088  2.1060  0.7344
 1372TIP3   OH228310   2.152   5.298  15.530  0.0014 -0.3193  0.5273
 1372TIP3    H128311   2.067   5.335  15.553 -0.0220  0.8674 -1.2922
 1372TIP3    H228312   2.195   5.366  15.479  1.4177 -1.4897  0.0852
 1373TIP3   OH228313   0.743   7.766  17.365  0.6501 -0.3057  0.0813
 1373TIP3    H128314   0.653   7.797  17.361  1.3991  2.3003  1.2825
 1373TIP3    H228315   0.770   7.757  17.274 -0.1498  1.0588 -0.3080
 1374TIP3   OH228316   1.372   2.645  17.073 -0.9381  0.2024  0.2488
 1374TIP3    H128317   1.276   2.641  17.071 -0.9678  1.1209 -1.5357
 1374TIP3    H228318   1.397   2.668  16.984  0.9400  0.4279  0.7996
 1375TIP3   OH228319   6.238   2.596  17.681 -0.4000 -0.0482 -0.0833
 1375TIP3    H128320   6.286   2.675  17.707 -0.7659  0.1702 -0.0586
 1375TIP3    H228321   6.164   2.629  17.631 -1.4121 -0.2616  1.2113
 1376TIP3   OH228322   8.103   6.345  15.596  0.1770  0.1758  0.5386
 1376TIP3    H128323   8.156   6.283  15.645 -0.4620 -0.1927  0.7683
 1376TIP3    H228324   8.161   6.376  15.526  0.3573 -1.0180  0.1417
 1377TIP3   OH228325   0.375   0.636  17.653  0.0862 -0.0846  0.5122
 1377TIP3    H128326   0.286   0.660  17.680  0.5958  0.0401  2.1550
 1377TIP3    H228327   0.401   0.706  17.593 -1.0265 -0.2893 -0.2356
 1378TIP3   OH228328   1.876   7.622  17.389  0.0205  0.8788 -0.4591
 1378TIP3    H128329   1.851   7.690  17.327 -4.9136 -0.5425 -0.4148
 1378TIP3    H228330   1.915   7.553  17.334 -1.0986  1.0664 -1.5425
 1379TIP3   OH228331   7.410   3.503  17.066  0.5423  0.1459  0.4566
 1379TIP3    H128332   7.337   3.528  17.009  1.2491  0.9437 -0.1221
 1379TIP3    H228333   7.484   3.553  17.033  1.8531 -2.1427 -0.2453
 1380TIP3   OH228334   7.686   2.193  17.656  0.0987  0.4056  0.0791
 1380TIP3    H128335   7.611   2.159  17.607 -1.3395  1.8904  1.1546
 1380TIP3    H228336   7.680   2.149  17.741  0.0869  1.0029  0.3855
 1381TIP3   OH228337   6.362   1.176  16.134  0.4487  0.4377  0.5235
 1381TIP3    H128338   6.288   1.116  16.129  1.6968 -1.0514 -1.1173
 1381TIP3    H228339   6.328   1.259  16.102 -0.7112 -0.0092  0.5466
 1382TIP3   OH228340   7.582   6.129  17.031 -0.0429  0.0627 -0.4924
 1382TIP3    H128341   7.488   6.112  17.032  0.1786 -1.2544  0.0233
 1382TIP3    H228342   7.591   6.212  16.985 -1.4759  0.3444 -0.3015
 1383TIP3   OH228343   0.793   4.224  15.608 -0.2402  0.0091 -0.1182
 1383TIP3    H128344   0.782   4.318  15.617  0.3599 -0.0709  2.0947
 1383TIP3    H228345   0.739   4.187  15.678  1.5324 -1.1153  0.7323
 1384TIP3   OH228346   5.837   4.027  17.180 -0.0034 -0.4527 -0.4772
 1384TIP3    H128347   5.828   4.109  17.131 -0.9284  0.9232  1.8531
 1384TIP3    H228348   5.922   4.035  17.223 -0.3502 -0.4333  0.2168
 1385TIP3   OH228349   6.074   2.516  17.245  0.3044 -0.6784 -0.4528
 1385TIP3    H128350   6.044   2.468  17.168  0.2626  0.0468 -0.9046
 1385TIP3    H228351   5.994   2.552  17.284  0.4776  0.5900 -1.2018
 1386TIP3   OH228352   2.515   2.294  16.291  0.0628  0.0293 -0.2016
 1386TIP3    H128353   2.443   2.336  16.244  1.1129 -0.9603 -2.9277
 1386TIP3    H228354   2.475   2.217  16.331 -1.0009  1.2366  1.1521
 1387TIP3   OH228355   1.998   5.998  17.985 -0.0527  0.6735 -0.3991
 1387TIP3    H128356   1.929   5.931  17.979 -0.4532  1.1834 -2.3698
 1387TIP3    H228357   1.952   6.078  18.008 -0.4411  1.3126 -3.0142
 1388TIP3   OH228358   1.805   3.548  16.009  0.1639 -0.3752  0.2010
 1388TIP3    H128359   1.890   3.546  15.966 -0.6205 -0.6859 -1.3960
 1388TIP3    H228360   1.773   3.458  16.005 -1.7342  0.2976 -2.4365
 1389TIP3   OH228361   7.888   3.021  16.924 -0.2558 -0.7792  0.9543
 1389TIP3    H128362   7.915   3.096  16.871 -1.0677 -0.2063  1.3262
 1389TIP3    H228363   7.793   3.031  16.932 -0.3334 -1.6933  1.2542
 1390TIP3   OH228364   8.205   1.529  17.033 -0.3590 -0.7322 -0.3960
 1390TIP3    H128365   8.250   1.607  17.066 -0.0776 -1.2517  0.4758
 1390TIP3    H228366   8.113   1.542  17.057 -0.2656 -0.8004 -0.0036
 1391TIP3   OH228367   5.130   3.069  15.515  0.1588 -0.1396 -0.7369
 1391TIP3    H128368   5.044   3.061  15.474  0.1601 -0.5288 -0.6650
 1391TIP3    H228369   5.129   3.156  15.555 -0.7797 -0.7220  0.5886
 1392TIP3   OH228370   6.770   7.599  15.759  0.5413 -0.4464  0.3728
 1392TIP3    H128371   6.696   7.632  15.810  0.4594 -0.5817  0.3429
 1392TIP3    H228372   6.800   7.522  15.808  1.8994  0.7051  1.4476
 1393TIP3   OH228373   0.017   5.433  16.051  0.6259 -0.4802 -0.0985
 1393TIP3    H128374  -0.007   5.523  16.073 -4.2998 -0.9442 -2.1627
 1393TIP3    H228375   0.061   5.440  15.966 -2.7103  0.0344 -1.9520
 1394TIP3   OH228376   2.037   3.268  17.759  0.3875 -0.3252  0.0819
 1394TIP3    H128377   1.967   3.223  17.712 -2.4208  1.0083  2.6168
 1394TIP3    H228378   2.051   3.215  17.837  2.6151 -0.7710 -0.5372
 1395TIP3   OH228379   0.427   7.304  15.777  0.4000  0.6630  0.4215
 1395TIP3    H128380   0.410   7.343  15.863  0.7417  2.0582 -0.1294
 1395TIP3    H228381   0.347   7.320  15.727  0.5077  0.5720  0.2189
 1396TIP3   OH228382   7.977   6.206  17.217 -0.7504  0.4925  0.4422
 1396TIP3    H128383   8.060   6.160  17.208 -0.3649  1.1296  0.6813
 1396TIP3    H228384   7.934   6.165  17.292 -1.5275 -1.1351 -0.8201
 1397TIP3   OH228385   5.966   1.492  15.903  0.3696  0.4967 -0.4721
 1397TIP3    H128386   5.880   1.534  15.901 -0.1711 -0.5285  0.3390
 1397TIP3    H228387   5.952   1.406  15.863  1.2437  0.6847 -1.2218
 1398TIP3   OH228388   3.442   7.659  17.040 -0.5407  0.1618 -0.5987
 1398TIP3    H128389   3.512   7.623  17.095 -1.4247  1.6951  1.6772
 1398TIP3    H228390   3.425   7.592  16.975  1.6028 -1.1273  0.0914
 1399TIP3   OH228391   8.293   1.694  17.460 -0.1239 -0.5284  0.1772
 1399TIP3    H128392   8.316   1.674  17.369  2.2192 -1.7920  0.9767
 1399TIP3    H228393   8.208   1.651  17.472 -0.2359 -0.7797 -1.2522
 1400TIP3   OH228394   4.732   8.137  17.247 -0.4452  0.1912 -0.1267
 1400TIP3    H128395   4.734   8.125  17.152 -0.3515 -0.9345  0.0048
 1400TIP3    H228396   4.824   8.147  17.272 -0.3521 -0.8950 -0.0026
 1401TIP3   OH228397   7.191   6.982  16.434 -0.0861  0.1865  0.0209
 1401TIP3    H128398   7.217   7.042  16.503 -0.1017  1.3025 -0.9110
 1401TIP3    H228399   7.129   7.032  16.381 -0.4773 -0.8237 -0.5029
 1402TIP3   OH228400   7.175   2.322  15.628  0.0414  0.4309 -0.0321
 1402TIP3    H128401   7.266   2.295  15.640 -0.1926 -2.2806 -3.0383
 1402TIP3    H228402   7.124   2.259  15.677 -0.2925  1.2196  0.6594
 1403TIP3   OH228403   5.366   6.584  16.715 -0.3868  0.6326  0.3875
 1403TIP3    H128404   5.352   6.604  16.622 -0.9288 -1.5334 -0.0426
 1403TIP3    H228405   5.461   6.589  16.727 -0.2036 -0.2140 -0.5917
 1404TIP3   OH228406   2.779   0.258  17.856  0.3893  0.5777 -0.3630
 1404TIP3    H128407   2.828   0.177  17.839  1.3282  0.7345  1.4455
 1404TIP3    H228408   2.846   0.324  17.870 -0.3021  0.8791  1.7837
 1405TIP3   OH228409   5.582   5.988  16.164 -0.6681  0.1359 -0.2941
 1405TIP3    H128410   5.512   5.947  16.215 -0.6936  1.3477  0.7134
 1405TIP3    H228411   5.651   5.923  16.160 -0.1725  0.3777  2.3825
 1406TIP3   OH228412   7.068   8.091  17.667  0.5577  0.0731 -0.5532
 1406TIP3    H128413   7.150   8.057  17.704 -1.2855 -2.7713  1.4105
 1406TIP3    H228414   7.055   8.039  17.588 -0.3834 -1.2152  0.3918
 1407TIP3   OH228415   1.007   3.965  17.594 -0.4277  0.3214 -0.4694
 1407TIP3    H128416   1.020   3.911  17.672 -0.5143 -0.7578 -1.1696
 1407TIP3    H228417   1.094   4.000  17.574 -0.1592 -0.3809 -0.5706
 1408TIP3   OH228418   0.953   7.966  17.476  0.3205  0.3007  0.2286
 1408TIP3    H128419   0.951   8.055  17.442  2.3561 -0.0136 -0.9091
 1408TIP3    H228420   0.861   7.944  17.492 -0.5288  1.5397 -2.3561
 1409TIP3   OH228421   2.045   3.452  16.876  0.2040  0.1194  0.3533
 1409TIP3    H128422   2.021   3.544  16.863 -0.4918 -0.0200  0.5757
 1409TIP3    H228423   2.137   3.447  16.851  0.6837  1.1815  1.7569
 1410TIP3   OH228424   4.728   6.371  17.627  0.3169 -0.5101  0.4634
 1410TIP3    H128425   4.784   6.427  17.681 -0.4093 -1.4887  2.3315
 1410TIP3    H228426   4.639   6.390  17.656  0.0655 -2.8886  1.5159
 1411TIP3   OH228427   2.102   7.570  16.578 -0.2515 -0.0521  0.3481
 1411TIP3    H128428   2.107   7.506  16.648  0.8817  0.3339  0.6439
 1411TIP3    H228429   2.079   7.652  16.621 -3.3285 -0.5128 -0.2203
 1412TIP3   OH228430   0.490   2.112  16.089  0.2947 -0.0488  0.4685
 1412TIP3    H128431   0.529   2.139  16.006 -1.7031 -0.5842 -0.7202
 1412TIP3    H228432   0.523   2.024  16.103 -1.2957 -0.9730 -1.1533
 1413TIP3   OH228433   4.949   8.010  17.495  0.8578  0.2649 -0.2043
 1413TIP3    H128434   4.949   7.981  17.404  1.8757 -0.9299  0.1438
 1413TIP3    H228435   5.040   8.036  17.511  0.9041 -0.4751  0.7502
 1414TIP3   OH228436   8.076   0.276  17.451 -0.5245 -0.1621  0.2167
 1414TIP3    H128437   8.091   0.194  17.404  0.5500  0.1925 -0.0851
 1414TIP3    H228438   7.997   0.313  17.411 -1.1561 -1.1444  0.5113
 1415TIP3   OH228439   0.783   5.167  17.447 -0.0493 -1.1300 -0.2363
 1415TIP3    H128440   0.739   5.116  17.515 -0.5599 -0.3543  0.0303
 1415TIP3    H228441   0.760   5.122  17.365 -1.2129 -0.8478 -0.0889
 1416TIP3   OH228442   7.489   6.828  17.219  0.4523 -0.4389 -0.3177
 1416TIP3    H128443   7.506   6.804  17.128  0.1634 -0.0904 -0.4677
 1416TIP3    H228444   7.569   6.802  17.266  0.5238 -0.8002 -0.6344
 1417TIP3   OH228445   7.945   4.655  17.234  0.6917  0.0343 -0.2931
 1417TIP3    H128446   7.869   4.659  17.293  1.2844  0.8431  0.4378
 1417TIP3    H228447   8.014   4.615  17.286  0.1633 -2.9566 -1.6952
 1418TIP3   OH228448   2.032   1.131  16.799 -0.0245 -0.2720  0.2258
 1418TIP3    H128449   1.938   1.126  16.819  0.0859  0.2523  0.9232
 1418TIP3    H228450   2.042   1.081  16.719 -1.0435  0.3396 -0.3062
 1419TIP3   OH228451   0.285   5.811  17.282  0.3218  0.1619  0.3103
 1419TIP3    H128452   0.376   5.785  17.297  0.3799  0.6402  0.8063
 1419TIP3    H228453   0.289   5.865  17.203  0.1316 -1.6912 -1.0312
 1420TIP3   OH228454   1.103   7.470  18.030 -0.2636  0.4508 -0.7133
 1420TIP3    H128455   1.090   7.552  18.078  1.0915  0.8584 -0.9869
 1420TIP3    H228456   1.014   7.436  18.017 -0.8283  1.6362 -0.1917
 1421TIP3   OH228457   3.360   7.970  16.652  0.0718  0.5156  0.1386
 1421TIP3    H128458   3.373   7.882  16.687  1.3632  0.5958 -0.0770
 1421TIP3    H228459   3.361   7.959  16.557 -0.9951  0.6144  0.1060
 1422TIP3   OH228460   1.491   2.749  17.869  0.3860  0.1656 -0.0287
 1422TIP3    H128461   1.525   2.674  17.821 -2.5535 -0.3041 -1.6203
 1422TIP3    H228462   1.525   2.825  17.822  1.0256 -0.2113 -0.1840
 1423TIP3   OH228463   6.075   2.909  16.351  0.0614 -0.4092 -0.3208
 1423TIP3    H128464   6.105   2.820  16.369  0.7091  0.1882  2.0135
 1423TIP3    H228465   6.002   2.923  16.412 -1.2199  0.1022 -1.8936
 1424TIP3   OH228466   6.090   8.019  17.428 -0.2826  0.2191 -0.3081
 1424TIP3    H128467   6.172   8.056  17.462  0.0421 -1.8962  1.4569
 1424TIP3    H228468   6.108   7.925  17.419 -1.7785  0.0730 -2.2636
 1425TIP3   OH228469   1.532   6.508  17.208  0.7767 -0.1303 -0.6381
 1425TIP3    H128470   1.454   6.563  17.206  0.7184 -0.0394  1.5202
 1425TIP3    H228471   1.592   6.553  17.268  1.9602 -0.8758 -1.2185
 1426TIP3   OH228472   0.928   1.254  17.174 -0.3880 -0.8197  0.2597
 1426TIP3    H128473   0.845   1.206  17.172 -0.5978 -0.4689  0.2915
 1426TIP3    H228474   0.955   1.261  17.083  0.4956 -2.4281  0.3766
 1427TIP3   OH228475   3.474   2.021  16.581  0.4497  0.6310 -0.0045
 1427TIP3    H128476   3.431   2.106  16.581 -0.7851  0.0263  0.5512
 1427TIP3    H228477   3.451   1.982  16.666  0.3296 -0.5827 -0.5707
 1428TIP3   OH228478   1.605   1.371  16.799 -0.3090 -0.0248 -0.3484
 1428TIP3    H128479   1.677   1.432  16.783 -0.5322  0.3825  0.1574
 1428TIP3    H228480   1.636   1.287  16.765 -0.2967  0.5232 -1.7788
 1429TIP3   OH228481   5.978   5.493  17.768  0.1174 -0.1732  0.2213
 1429TIP3    H128482   6.049   5.552  17.794  0.0371  0.9549 -1.8500
 1429TIP3    H228483   5.900   5.549  17.766 -0.1936 -0.6109 -0.6387
 1430TIP3   OH228484   6.216   5.659  17.814 -0.0676 -0.2708  0.3612
 1430TIP3    H128485   6.182   5.703  17.892  1.3240  0.1243  0.7726
 1430TIP3    H228486   6.269   5.726  17.770 -0.2645 -0.7037 -0.5549
 1431TIP3   OH228487   3.004   2.596  17.952 -0.3213  0.3836 -0.3150
 1431TIP3    H128488   2.982   2.526  17.890  2.4147  0.2663 -1.2723
 1431TIP3    H228489   3.063   2.554  18.015 -0.7316  1.2255  0.6501
 1432TIP3   OH228490   7.234   0.348  16.515  0.3479  0.3998 -0.2223
 1432TIP3    H128491   7.231   0.424  16.574 -0.2997  2.6319 -2.9229
 1432TIP3    H228492   7.142   0.325  16.502  0.3945  0.7720 -1.3115
 1433TIP3   OH228493   2.823   6.311  16.957 -0.0221  0.0711  0.2015
 1433TIP3    H128494   2.856   6.291  16.869 -0.4372  0.1530  0.0290
 1433TIP3    H228495   2.876   6.255  17.014  0.0941 -0.1556 -0.1190
 1434TIP3   OH228496   1.795   8.434  17.356  0.4720  0.2031  0.3083
 1434TIP3    H128497   1.837   8.504  17.406  3.0736 -2.0315  1.5049
 1434TIP3    H228498   1.853   8.419  17.281  0.1281 -0.8779  0.2351
 1435TIP3   OH228499   8.143   1.886  16.586 -0.3481 -0.3866 -0.4129
 1435TIP3    H128500   8.118   1.814  16.529  0.5693  0.0305 -1.3699
 1435TIP3    H228501   8.234   1.868  16.611 -0.7705 -0.6213  1.0203
 1436TIP3   OH228502   0.399   5.454  16.760  0.0525 -0.1617 -0.1134
 1436TIP3    H128503   0.410   5.474  16.667 -0.4516 -2.1892 -0.6463
 1436TIP3    H228504   0.400   5.540  16.803  2.1850  0.7254 -1.7602
 1437TIP3   OH228505   6.429   6.944  16.021 -0.3157 -0.5352 -0.2294
 1437TIP3    H128506   6.458   6.855  16.000 -0.5876 -0.4676 -0.9097
 1437TIP3    H228507   6.414   6.985  15.936  0.5396  0.4193  0.0602
 1438TIP3   OH228508   3.593   1.731  17.002 -0.3210 -0.7538 -0.1654
 1438TIP3    H128509   3.684   1.739  17.032 -0.5013 -0.4079  0.3080
 1438TIP3    H228510   3.559   1.654  17.048 -0.2157 -0.9870 -0.4779
 1439TIP3   OH228511   2.619   7.345  17.056 -0.8364  0.0093  0.0499
 1439TIP3    H128512   2.674   7.423  17.045 -2.6417  1.4243  0.4896
 1439TIP3    H228513   2.649   7.284  16.989  2.0357  0.1935  1.0372
 1440TIP3   OH228514   5.331   1.665  16.022  0.5530 -0.2463 -0.1476
 1440TIP3    H128515   5.418   1.681  16.059 -0.5513  0.0229  2.5683
 1440TIP3    H228516   5.338   1.577  15.983  2.1382 -0.0452 -0.3885
 1441TIP3   OH228517   1.239   0.337  16.758 -0.3097 -0.2303 -0.1718
 1441TIP3    H128518   1.182   0.413  16.750  0.3984  0.3151 -0.0884
 1441TIP3    H228519   1.203   0.287  16.831  0.3972  1.0605  1.0875
 1442TIP3   OH228520   0.753   5.272  16.188 -0.1954 -0.3593 -0.5142
 1442TIP3    H128521   0.807   5.315  16.122  1.0975  0.9820  1.3384
 1442TIP3    H228522   0.804   5.196  16.215  0.2771  0.2568  0.3921
 1443TIP3   OH228523   7.386   2.798  17.602  0.0542 -0.1515 -0.0980
 1443TIP3    H128524   7.364   2.756  17.686 -1.7429  1.0882  0.0916
 1443TIP3    H228525   7.302   2.809  17.558  0.7045  1.3755 -1.0225
 1444TIP3   OH228526   5.946   0.952  15.752  0.2910 -0.3990 -0.1560
 1444TIP3    H128527   6.026   0.961  15.700  0.1022  1.4709 -0.1928
 1444TIP3    H228528   5.883   0.914  15.691  0.3871  0.7346 -1.0065
 1445TIP3   OH228529   1.693   0.955  17.753 -0.8240  0.3102 -0.2548
 1445TIP3    H128530   1.675   0.896  17.825 -0.2095  0.8282  0.3425
 1445TIP3    H228531   1.647   1.036  17.776  0.3817  0.8977  0.2013
 1446TIP3   OH228532   4.855   1.395  16.737  0.4920  0.0819  0.9339
 1446TIP3    H128533   4.896   1.322  16.783  0.4791 -1.2172 -1.0212
 1446TIP3    H228534   4.914   1.415  16.665 -0.7691  0.2793 -0.0808
 1447TIP3   OH228535   0.914   2.070  15.144 -0.6611 -0.1935  0.0854
 1447TIP3    H128536   0.913   1.977  15.167 -1.0352 -0.1701  0.1599
 1447TIP3    H228537   0.896   2.072  15.050  0.2997 -0.2530 -0.1113
 1448TIP3   OH228538   4.578   3.490  17.325 -0.0479  0.2533  0.0329
 1448TIP3    H128539   4.571   3.435  17.247  2.3365 -1.4081  0.8690
 1448TIP3    H228540   4.650   3.550  17.305  0.1716  0.2268  0.7234
 1449TIP3   OH228541   3.986   7.283  17.295  0.0505  0.0815  0.2867
 1449TIP3    H128542   3.915   7.319  17.349  0.4235  0.7743  0.3297
 1449TIP3    H228543   3.950   7.283  17.206 -0.5493 -1.0188  0.5112
 1450TIP3   OH228544   3.435   2.902  16.364 -0.1660 -0.6061 -0.9813
 1450TIP3    H128545   3.497   2.883  16.435 -1.5109  1.2346  0.8113
 1450TIP3    H228546   3.359   2.847  16.384  0.0029 -1.2019 -1.9058
 1451TIP3   OH228547   7.225   7.624  16.825 -0.1271 -0.1596 -0.6660
 1451TIP3    H128548   7.241   7.603  16.917 -2.0781 -0.7392 -0.3962
 1451TIP3    H228549   7.206   7.540  16.784 -0.8810  0.2553 -1.2056
 1452TIP3   OH228550   6.442   3.690  16.478 -0.2434  0.0959 -0.4668
 1452TIP3    H128551   6.430   3.615  16.535 -0.0193 -1.0594 -1.8785
 1452TIP3    H228552   6.417   3.659  16.391 -0.4101  1.7409 -1.0490
 1453TIP3   OH228553   1.594   1.861  17.770  0.1370 -0.5527 -0.0654
 1453TIP3    H128554   1.557   1.774  17.785 -1.7001  0.2015  0.0387
 1453TIP3    H228555   1.687   1.851  17.788 -0.1066 -2.4047  0.3437
 1454TIP3   OH228556   4.140   6.199  17.618 -0.5773 -0.8003  0.0061
 1454TIP3    H128557   4.101   6.113  17.637  1.2445 -1.9593 -1.1769
 1454TIP3    H228558   4.178   6.189  17.531 -0.5393  1.3267 -0.2757
 1455TIP3   OH228559   2.119   2.295  16.510  0.0905 -0.3149 -0.3798
 1455TIP3    H128560   2.176   2.234  16.462  0.4484  0.4782 -0.9758
 1455TIP3    H228561   2.034   2.287  16.466  0.0518 -0.6070 -0.2587
 1456TIP3   OH228562   4.011   1.083  16.379  0.5878 -0.2074  0.2412
 1456TIP3    H128563   4.009   1.043  16.292  0.8969 -1.0499  0.6012
 1456TIP3    H228564   4.072   1.156  16.371  0.4250 -0.1323 -0.3080
 1457TIP3   OH228565   5.371   6.071  16.652 -0.1632 -0.0375 -0.5074
 1457TIP3    H128566   5.389   6.117  16.734 -0.6049  0.9402 -0.9443
 1457TIP3    H228567   5.452   6.078  16.602 -0.0299 -0.2724 -0.3248
 1458TIP3   OH228568   4.941   1.176  17.447  0.3804 -0.0804 -0.5982
 1458TIP3    H128569   4.900   1.210  17.368 -1.4287 -0.3385  0.1680
 1458TIP3    H228570   5.035   1.192  17.435  0.1059  0.2785 -2.5722
 1459TIP3   OH228571   0.018   8.218  16.632 -0.0848  0.1618 -0.6818
 1459TIP3    H128572  -0.015   8.140  16.677 -0.1291  0.5427 -0.0362
 1459TIP3    H228573   0.104   8.233  16.671  0.1357  0.1490 -1.1620
 1460TIP3   OH228574   6.706   7.008  16.006  0.1305 -0.1411  0.2805
 1460TIP3    H128575   6.629   7.005  16.064 -0.1933 -1.6499 -0.1916
 1460TIP3    H228576   6.678   7.060  15.931  0.2008  0.9090  0.9654
 1461TIP3   OH228577   0.680   2.590  17.853  0.0925  0.5693 -0.4369
 1461TIP3    H128578   0.710   2.517  17.907  1.0758  1.1613 -0.1531
 1461TIP3    H228579   0.749   2.599  17.786 -1.6336 -0.9174 -2.5884
 1462TIP3   OH228580   0.425   5.506  17.152  0.5759  0.2560  0.3691
 1462TIP3    H128581   0.335   5.530  17.133  0.3717 -0.9346 -0.3387
 1462TIP3    H228582   0.448   5.444  17.082  1.5986 -0.2250  1.0969
 1463TIP3   OH228583   8.121   6.519  16.532 -0.4244 -0.3112 -0.5470
 1463TIP3    H128584   8.130   6.441  16.477  1.6332 -0.2982 -0.3058
 1463TIP3    H228585   8.030   6.518  16.561 -0.8343 -1.7800 -1.7707
 1464TIP3   OH228586   7.767   2.466  17.651  0.0643  0.4298  0.2892
 1464TIP3    H128587   7.740   2.374  17.658 -0.0280  0.2651 -1.7548
 1464TIP3    H228588   7.699   2.506  17.597  1.0316  1.2973 -0.2927
 1465TIP3   OH228589   2.784   5.156  17.203 -0.1042 -0.2470  0.1830
 1465TIP3    H128590   2.692   5.174  17.181 -0.1545  0.4805  0.9453
 1465TIP3    H228591   2.779   5.102  17.282  0.1012 -1.7357 -0.7791
 1466TIP3   OH228592   0.579   6.617  17.011  0.3877  0.2704 -0.4070
 1466TIP3    H128593   0.498   6.603  16.963 -0.0415  1.1194  0.0450
 1466TIP3    H228594   0.608   6.529  17.036 -0.3068 -0.0454 -0.6948
 1467TIP3   OH228595   0.585   3.606  17.155 -0.1991 -0.0798  0.2149
 1467TIP3    H128596   0.648   3.672  17.184  1.2452 -1.8717  1.4656
 1467TIP3    H228597   0.557   3.635  17.069  2.4679  0.7657 -0.4516
 1468TIP3   OH228598   1.062   3.431  16.225  0.0457  0.2747  0.5953
 1468TIP3    H128599   1.128   3.363  16.234 -1.9535 -1.7285  0.9810
 1468TIP3    H228600   1.019   3.412  16.142 -0.0093  1.6202  0.2851
 1469TIP3   OH228601   3.112   3.413  17.188  0.2186 -0.2419  0.3619
 1469TIP3    H128602   3.131   3.421  17.281 -1.0035 -0.7635  0.6756
 1469TIP3    H228603   3.050   3.340  17.182 -0.1348  0.1279 -0.7950
 1470TIP3   OH228604   7.700   5.850  16.955 -0.3342  0.1676 -0.2932
 1470TIP3    H128605   7.684   5.940  16.928  1.5164  0.1377 -1.6656
 1470TIP3    H228606   7.753   5.858  17.035  1.4709  0.3904 -1.4413
 1471TIP3   OH228607   7.295   8.247  16.684  0.2699 -0.2442  0.2587
 1471TIP3    H128608   7.278   8.235  16.590  0.0099  1.9878 -0.0312
 1471TIP3    H228609   7.219   8.208  16.727  0.7921 -2.0861 -0.3621
 1472TIP3   OH228610   2.977   1.577  17.718  0.7055  0.0788 -0.3844
 1472TIP3    H128611   3.047   1.539  17.771 -0.2805  1.2214  1.9067
 1472TIP3    H228612   2.999   1.670  17.712  0.1487  0.1821 -0.9172
 1473TIP3   OH228613   7.873   5.727  18.206  0.0566 -0.6247 -0.2043
 1473TIP3    H128614   7.843   5.637  18.212  0.6384 -0.9028 -1.2702
 1473TIP3    H228615   7.960   5.726  18.246 -0.1739 -0.4034  0.3163
 1474TIP3   OH228616   6.331   2.112  16.711 -0.0810  0.1057 -0.3549
 1474TIP3    H128617   6.301   2.035  16.759 -0.5379  0.4274 -0.1250
 1474TIP3    H228618   6.256   2.139  16.659  0.1352  0.2953 -0.5700
 1475TIP3   OH228619   4.361   8.241  17.275 -0.0310  0.3229  0.0487
 1475TIP3    H128620   4.401   8.248  17.188 -0.3402 -0.7753 -0.2029
 1475TIP3    H228621   4.267   8.256  17.259  0.0668  1.3921  0.4035
 1476TIP3   OH228622   3.966   1.504  16.844  0.5784 -0.1944 -0.0461
 1476TIP3    H128623   3.896   1.506  16.779 -0.0542 -0.2531  0.6253
 1476TIP3    H228624   3.961   1.590  16.886  2.3491  0.6803 -1.4745
 1477TIP3   OH228625   5.329   2.322  17.154 -0.5473 -0.0537 -0.0623
 1477TIP3    H128626   5.258   2.339  17.216 -0.6999  0.7643 -0.4549
 1477TIP3    H228627   5.301   2.244  17.105 -2.8411  2.1884 -2.6155
 1478TIP3   OH228628   3.453   7.889  17.397 -0.4603 -0.1346 -0.3426
 1478TIP3    H128629   3.510   7.964  17.412  0.0127 -0.5747  0.1482
 1478TIP3    H228630   3.391   7.891  17.470  0.4469 -1.0163  0.4823
 1479TIP3   OH228631   4.200   3.130  16.674 -0.1834  0.3703 -0.0874
 1479TIP3    H128632   4.207   3.224  16.660  2.8538  0.0246 -1.8602
 1479TIP3    H228633   4.254   3.113  16.751  1.8161 -0.1185 -1.4927
 1480TIP3   OH228634   1.209   4.446  16.461 -0.1492 -0.3506  0.2516
 1480TIP3    H128635   1.289   4.396  16.475 -1.1858 -2.4720 -0.9858
 1480TIP3    H228636   1.139   4.383  16.473 -1.7537  1.6115  2.0568
 1481TIP3   OH228637   4.597   4.445  17.494 -0.2404  0.4701  0.3056
 1481TIP3    H128638   4.689   4.464  17.513  0.2176 -1.8620  0.7897
 1481TIP3    H228639   4.583   4.479  17.406  1.5278 -0.3602 -0.3549
 1482TIP3   OH228640   2.233   4.168  16.692 -0.2438  0.9903 -0.0613
 1482TIP3    H128641   2.267   4.092  16.739  1.7402  0.8858 -1.4983
 1482TIP3    H228642   2.189   4.220  16.759  0.8370 -0.0267  1.5252
 1483TIP3   OH228643   0.292   2.520  17.492 -0.4778  0.4815  0.1293
 1483TIP3    H128644   0.343   2.584  17.443  1.6970 -1.0134  0.2778
 1483TIP3    H228645   0.332   2.435  17.469 -0.6170 -0.4522  2.9365
 1484TIP3   OH228646   4.311   7.665  17.375 -0.1042 -0.0331  0.0083
 1484TIP3    H128647   4.287   7.592  17.317  1.4580 -0.2574 -0.3901
 1484TIP3    H228648   4.385   7.632  17.425  0.3950  1.1668  0.0790
 1485TIP3   OH228649   3.818   6.969  16.465  0.4365  0.1929  0.0808
 1485TIP3    H128650   3.762   6.959  16.542  1.2060  1.1205  0.7939
 1485TIP3    H228651   3.844   7.061  16.466  1.3640 -0.0416 -0.6513
 1486TIP3   OH228652   0.436   5.737  16.848  0.0547 -0.2940  0.1184
 1486TIP3    H128653   0.496   5.725  16.922  1.0738 -0.3441 -0.7009
 1486TIP3    H228654   0.490   5.776  16.779 -1.4002  2.0304  0.1592
 1487TIP3   OH228655   2.247   1.731  16.525 -0.6161 -0.3547  0.1181
 1487TIP3    H128656   2.273   1.653  16.477  0.8640 -1.0214  1.8805
 1487TIP3    H228657   2.237   1.702  16.615  1.5692  1.7137  1.1527
 1488TIP3   OH228658   2.576   8.283  17.534  0.1092 -0.0475 -0.3489
 1488TIP3    H128659   2.482   8.273  17.518  0.1443 -0.2790 -0.4164
 1488TIP3    H228660   2.604   8.196  17.562  0.0864  0.3014  0.7778
 1489TIP3   OH228661   7.614   0.832  16.217 -0.1713  0.1614 -0.6367
 1489TIP3    H128662   7.685   0.775  16.248 -0.0974  1.3756  1.6882
 1489TIP3    H228663   7.658   0.903  16.171  0.1777  0.7914  0.6066
 1490TIP3   OH228664   0.554   8.147  15.493  0.0845  0.1833 -0.2300
 1490TIP3    H128665   0.506   8.066  15.477 -0.8285  0.6671 -0.0285
 1490TIP3    H228666   0.493   8.216  15.470  0.2797  0.8396  1.1092
 1491TIP3   OH228667   5.612   3.195  17.700  0.1989  0.4201 -0.1274
 1491TIP3    H128668   5.598   3.283  17.664  1.0110  1.3417  1.6889
 1491TIP3    H228669   5.707   3.188  17.709  0.4031 -1.7739 -2.8012
 1492TIP3   OH228670   1.882   7.858  16.468 -0.4905  0.0229 -0.4953
 1492TIP3    H128671   1.969   7.857  16.508 -0.8890  1.3041  0.4590
 1492TIP3    H228672   1.833   7.792  16.518 -0.7786  1.1088  0.6980
 1493TIP3   OH228673   4.433   5.273  17.094  0.5366  0.2332  0.1330
 1493TIP3    H128674   4.468   5.250  17.008  0.3795  0.9468 -0.1312
 1493TIP3    H228675   4.398   5.361  17.083  0.6660  0.3996  0.9768
 1494TIP3   OH228676   4.396   4.487  16.898  0.5462 -0.1385  0.6402
 1494TIP3    H128677   4.474   4.432  16.888  0.3619 -0.5310  1.3566
 1494TIP3    H228678   4.430   4.577  16.900  0.8185 -0.1771 -0.8839
 1495TIP3   OH228679   6.885   1.961  16.780 -0.9299 -0.2632  0.1590
 1495TIP3    H128680   6.822   2.027  16.809  0.3516  1.5215 -0.8692
 1495TIP3    H228681   6.937   1.941  16.858 -0.7682  0.6256  0.2865
 1496TIP3   OH228682   5.901   6.860  17.660 -0.2218 -0.3075  0.3649
 1496TIP3    H128683   5.904   6.836  17.752 -2.4581 -0.2467  0.5021
 1496TIP3    H228684   5.956   6.939  17.654  4.2134 -3.0408  0.5890
 1497TIP3   OH228685   3.416   7.086  17.570 -0.3003 -0.4413 -0.5432
 1497TIP3    H128686   3.472   7.156  17.604 -1.8888  0.8475 -0.4537
 1497TIP3    H228687   3.328   7.122  17.574 -0.9149 -1.4529 -3.0608
 1498TIP3   OH228688   1.969   3.540  17.719 -0.2859 -0.1380  0.1632
 1498TIP3    H128689   1.965   3.511  17.628  1.2065  1.1624 -0.3577
 1498TIP3    H228690   2.014   3.468  17.765  0.6364 -0.0030 -0.5024
 1499TIP3   OH228691   3.302   0.110  16.213 -0.0197 -0.5629 -0.2444
 1499TIP3    H128692   3.241   0.082  16.145 -0.7751 -0.6863  0.4717
 1499TIP3    H228693   3.328   0.028  16.256 -1.3918 -0.3114  1.1452
 1500TIP3   OH228694   5.700   4.718  16.656  0.0444  0.1454 -0.1847
 1500TIP3    H128695   5.765   4.652  16.681 -1.3808 -1.5686 -0.7979
 1500TIP3    H228696   5.651   4.677  16.584  0.8156  2.9335 -2.4863
 1501TIP3   OH228697   7.254   3.735  17.611 -0.5100  0.2809  0.0150
 1501TIP3    H128698   7.196   3.781  17.550 -2.1543 -1.4429  0.2122
 1501TIP3    H228699   7.342   3.755  17.578 -1.3063  0.1856 -2.3646
 1502TIP3   OH228700   4.714   1.163  17.595 -0.6283 -0.3569  0.1736
 1502TIP3    H128701   4.799   1.183  17.558 -1.0395  0.4472 -0.3764
 1502TIP3    H228702   4.654   1.224  17.552 -1.0538  1.0040  2.5252
 1503TIP3   OH228703   1.213   1.490  17.013 -0.5735 -0.0055  0.1103
 1503TIP3    H128704   1.287   1.433  17.032 -0.9243 -0.7855 -0.8159
 1503TIP3    H228705   1.191   1.530  17.098  0.8078  0.1362  0.4202
 1504TIP3   OH228706   2.818   4.635  17.020  0.1138  0.5600  0.3565
 1504TIP3    H128707   2.780   4.667  17.102  1.6839  0.2438  1.2454
 1504TIP3    H228708   2.913   4.645  17.032  0.4914 -1.4105 -0.5837
 1505TIP3   OH228709   3.215   5.892  17.217 -0.1213 -0.2201  0.2186
 1505TIP3    H128710   3.147   5.835  17.179 -0.7719  0.3091  0.5745
 1505TIP3    H228711   3.175   5.927  17.297 -0.5156  2.2741 -0.9595
 1506TIP3   OH228712   4.545   1.295  17.048  0.0684 -0.0997 -0.0009
 1506TIP3    H128713   4.486   1.267  17.117 -0.7759 -2.8176 -1.6800
 1506TIP3    H228714   4.493   1.356  16.996 -0.0666  0.1709  0.4424
 1507TIP3   OH228715   2.693   7.852  15.318  0.1298  0.1426 -0.0053
 1507TIP3    H128716   2.598   7.844  15.308  0.1717 -0.6608  0.1636
 1507TIP3    H228717   2.723   7.761  15.326  0.7961  0.4458  0.9891
 1508TIP3   OH228718   8.321   7.713  17.581 -0.0820 -0.3372 -0.1187
 1508TIP3    H128719   8.264   7.789  17.594 -0.6098 -0.8225  0.4888
 1508TIP3    H228720   8.372   7.708  17.662  0.2410 -0.3837 -0.3287
 1509TIP3   OH228721   4.189   7.855  15.817 -0.1691  0.2941 -0.0327
 1509TIP3    H128722   4.123   7.884  15.880  0.5657  0.6646  0.5897
 1509TIP3    H228723   4.241   7.790  15.865  0.8032  1.0575 -0.0309
 1510TIP3   OH228724   3.757   5.121  16.694  0.0213  0.1797 -0.2447
 1510TIP3    H128725   3.801   5.177  16.630  0.3320 -0.1355 -0.3045
 1510TIP3    H228726   3.811   5.042  16.699 -1.6857 -1.2061 -2.0135
 1511TIP3   OH228727   2.394   7.928  17.033  0.0743  0.0350  0.0392
 1511TIP3    H128728   2.301   7.916  17.051  0.4005  1.4016  3.1403
 1511TIP3    H228729   2.401   7.923  16.937 -3.5365  2.2293 -0.4900
 1512TIP3   OH228730   7.881   3.641  17.532 -0.3112  0.0325 -0.1316
 1512TIP3    H128731   7.861   3.734  17.519 -0.8877 -0.0421  0.2014
 1512TIP3    H228732   7.970   3.631  17.498  0.0889  0.8886  0.6083
 1513TIP3   OH228733   5.600   4.254  15.892 -0.0449 -0.2889  0.1228
 1513TIP3    H128734   5.541   4.198  15.842 -1.3975 -1.0698  2.4409
 1513TIP3    H228735   5.639   4.196  15.958  0.4765  0.9583  0.9579
 1514TIP3   OH228736   1.110   5.673  16.577 -0.3254  0.1895  0.4587
 1514TIP3    H128737   1.039   5.724  16.616 -0.1350 -0.1475  1.2737
 1514TIP3    H228738   1.085   5.582  16.593 -0.4253  0.0275 -0.5508
 1515TIP3   OH228739   1.179   7.677  16.638  0.3552 -0.2144  0.4837
 1515TIP3    H128740   1.096   7.688  16.684 -0.5266 -0.7753 -0.9108
 1515TIP3    H228741   1.185   7.753  16.581  0.5594 -0.4250  0.2242
 1516TIP3   OH228742   0.456   0.240  16.527 -0.9831 -0.3394 -0.5879
 1516TIP3    H128743   0.459   0.334  16.542 -0.8611 -0.3312 -0.6646
 1516TIP3    H228744   0.455   0.202  16.615 -1.9053 -0.2406 -0.5473
 1517TIP3   OH228745   3.690   0.597  17.527  0.4792  0.0917 -0.0633
 1517TIP3    H128746   3.628   0.642  17.470  1.3384 -0.2930 -1.3379
 1517TIP3    H228747   3.685   0.644  17.610  0.4710  1.7796 -0.9816
 1518TIP3   OH228748   1.490   8.302  17.105  0.3117  0.5144 -0.2319
 1518TIP3    H128749   1.571   8.348  17.085  0.4883  0.2759 -0.0640
 1518TIP3    H228750   1.517   8.213  17.126 -0.1283  0.0370 -1.5786
 1519TIP3   OH228751   1.677   5.457  15.720 -0.3350  0.1343  0.6078
 1519TIP3    H128752   1.765   5.494  15.715 -0.0790 -0.2890  1.6119
 1519TIP3    H228753   1.637   5.476  15.636  1.0693 -0.5542 -0.2504
 1520TIP3   OH228754   5.029   5.345  16.908  0.8092 -0.4412 -0.9562
 1520TIP3    H128755   4.938   5.335  16.880  0.3865  1.1744 -0.3093
 1520TIP3    H228756   5.076   5.364  16.827  0.1876  0.7959 -1.0544
 1521TIP3   OH228757   5.680   5.612  17.759 -0.5797 -0.3267 -0.2600
 1521TIP3    H128758   5.622   5.547  17.718  0.7958 -2.0279  0.3466
 1521TIP3    H228759   5.621   5.669  17.807 -1.7684 -2.5071  1.0471
 1522TIP3   OH228760   5.152   1.339  17.399 -0.4660 -0.2255  0.4227
 1522TIP3    H128761   5.176   1.420  17.443 -1.0561 -0.2683  0.8396
 1522TIP3    H228762   5.172   1.354  17.307 -1.8459  0.8932  0.2865
 1523TIP3   OH228763   4.033   0.211  17.168  0.2636 -0.1337  0.7546
 1523TIP3    H128764   4.022   0.300  17.135  0.8496  0.1484  1.2885
 1523TIP3    H228765   3.946   0.171  17.160  0.1397  0.2926 -0.0378
 1524TIP3   OH228766   7.469   4.471  15.985  0.5215 -0.7285 -0.4442
 1524TIP3    H128767   7.542   4.529  16.007 -0.2368  0.4856 -1.0233
 1524TIP3    H228768   7.452   4.488  15.892 -1.3659  0.0405 -0.0009
 1525TIP3   OH228769   2.578   3.635  16.616  0.0964  0.4642  0.6041
 1525TIP3    H128770   2.545   3.707  16.563  0.9885  0.7652  0.4531
 1525TIP3    H228771   2.643   3.592  16.561  1.4923  1.1572  1.6519
 1526TIP3   OH228772   7.870   5.852  17.170  0.5941 -0.3413 -0.1282
 1526TIP3    H128773   7.964   5.841  17.152  0.6868  2.5195 -2.0811
 1526TIP3    H228774   7.868   5.903  17.251  0.8926  1.5597 -1.2618
 1527TIP3   OH228775   0.680   0.370  17.501  0.4911  0.0856  0.7266
 1527TIP3    H128776   0.692   0.462  17.524  0.5716 -0.1349  1.6236
 1527TIP3    H228777   0.761   0.328  17.531  0.2642 -0.3441  0.7415
 1528TIP3   OH228778   6.850   2.595  16.479 -0.7230  0.2607  0.4665
 1528TIP3    H128779   6.904   2.516  16.477 -1.3910 -0.2873  2.1779
 1528TIP3    H228780   6.910   2.665  16.506 -0.6481 -0.1650  1.4337
 1529TIP3   OH228781   6.421   6.672  16.191  0.2740 -0.0659  0.0890
 1529TIP3    H128782   6.394   6.589  16.231 -0.4105 -1.1816 -2.4906
 1529TIP3    H228783   6.340   6.721  16.178  0.3379 -0.1996 -0.8893
 1530TIP3   OH228784   1.397   7.900  16.864 -0.2582 -0.0001 -0.0868
 1530TIP3    H128785   1.434   7.829  16.811  2.1715  1.3985 -0.4266
 1530TIP3    H228786   1.309   7.870  16.886  0.4909 -2.8976 -0.5889
 1531TIP3   OH228787   2.643   7.313  15.749 -0.0381 -0.2580  0.2639
 1531TIP3    H128788   2.632   7.388  15.691 -0.3553  1.0619  1.9512
 1531TIP3    H228789   2.559   7.304  15.794  1.0404  0.6631  2.6398
 1532TIP3   OH228790   2.583   4.293  16.912 -0.0162 -0.1322  0.6746
 1532TIP3    H128791   2.510   4.353  16.928 -0.7428 -0.3618 -1.5485
 1532TIP3    H228792   2.653   4.349  16.880 -0.0456 -0.2323  0.4374
 1533TIP3   OH228793   0.073   5.567  16.378  0.1569  0.2205 -0.4273
 1533TIP3    H128794   0.169   5.572  16.380  0.2194 -0.9150  0.2043
 1533TIP3    H228795   0.047   5.632  16.313  1.3229  0.9462 -0.1928
 1534TIP3   OH228796   3.429   7.612  16.222 -0.3797 -0.3162  0.0528
 1534TIP3    H128797   3.347   7.651  16.254 -0.1252 -0.4093  0.8442
 1534TIP3    H228798   3.411   7.590  16.130 -0.6915  1.1978 -0.2782
 1535TIP3   OH228799   7.238   3.612  16.867 -0.2018  0.0889  1.0964
 1535TIP3    H128800   7.156   3.632  16.914 -1.0439 -2.0165  0.6262
 1535TIP3    H228801   7.257   3.693  16.818 -2.1949  0.5404  0.9491
 1536TIP3   OH228802   5.935   0.723  17.623 -0.5689 -0.4418 -0.6055
 1536TIP3    H128803   5.970   0.692  17.540 -0.8207 -1.8138 -0.2265
 1536TIP3    H228804   5.954   0.817  17.624  2.1607 -0.8944 -0.9101
 1537TIP3   OH228805   4.599   2.417  16.184 -0.4846  0.4496 -0.3488
 1537TIP3    H128806   4.689   2.388  16.171 -0.3797  0.5423  0.1573
 1537TIP3    H228807   4.546   2.337  16.175 -0.2841  0.2660  0.0918
 1538TIP3   OH228808   1.598   1.249  17.768 -0.3291  0.0201 -0.7152
 1538TIP3    H128809   1.577   1.335  17.731 -1.3123  0.1485  0.0798
 1538TIP3    H228810   1.691   1.254  17.789 -0.5847  1.2888  0.2899
 1539TIP3   OH228811   2.096   2.847  15.752 -0.3089 -0.3207 -0.2313
 1539TIP3    H128812   2.036   2.822  15.822  0.5865 -0.7988  0.3827
 1539TIP3    H228813   2.128   2.764  15.717  1.9544 -0.1607  1.1895
 1540TIP3   OH228814   3.723   8.232  17.061 -0.0608 -0.0708 -0.2281
 1540TIP3    H128815   3.775   8.217  16.982  1.1606  0.9395  0.3388
 1540TIP3    H228816   3.638   8.262  17.029  0.7564  1.3454 -1.1898
 1541TIP3   OH228817   5.887   3.675  16.062  0.6233  0.5293  0.0530
 1541TIP3    H128818   5.950   3.604  16.051  1.2184  1.1734 -0.7971
 1541TIP3    H228819   5.804   3.630  16.081  0.7963 -0.4396 -1.3077
 1542TIP3   OH228820   4.663   2.413  17.032  0.3422  0.2911 -0.3053
 1542TIP3    H128821   4.643   2.423  17.125 -0.9122 -2.4440 -0.1610
 1542TIP3    H228822   4.758   2.401  17.029  0.1338 -3.0858  1.1991
 1543TIP3   OH228823   0.386   6.371  17.763 -0.2665  0.0506  0.0462
 1543TIP3    H128824   0.479   6.350  17.769  0.0531  1.3915  0.0270
 1543TIP3    H228825   0.373   6.393  17.671 -0.4099  0.7244  0.2253
 1544TIP3   OH228826   2.459   6.935  16.177 -0.0953  0.5625 -0.4343
 1544TIP3    H128827   2.446   6.874  16.250  0.4105 -0.2214 -0.9945
 1544TIP3    H228828   2.526   6.996  16.208  1.4969 -0.8823 -0.8961
 1545TIP3   OH228829   5.007   1.362  15.973  0.1942  0.0716  0.3005
 1545TIP3    H128830   4.981   1.454  15.980 -2.1859 -0.4670 -0.4772
 1545TIP3    H228831   4.935   1.314  16.015 -0.2354 -1.5700 -2.1134
 1546TIP3   OH228832   0.787   1.059  16.182  0.2853  0.3617 -0.4013
 1546TIP3    H128833   0.875   1.055  16.220  1.0275  1.6686 -1.8563
 1546TIP3    H228834   0.799   1.108  16.100 -1.7602  0.3356 -0.7596
 1547TIP3   OH228835   6.537   7.067  16.321  0.0817 -0.6199  0.5798
 1547TIP3    H128836   6.579   7.101  16.400 -0.7323  0.6446  0.4849
 1547TIP3    H228837   6.563   6.974  16.319  1.9684 -0.1543  1.0922
 1548TIP3   OH228838   1.698   6.466  17.996 -0.2509 -0.6433  0.0868
 1548TIP3    H128839   1.603   6.450  17.987 -0.4726 -0.0474  1.2902
 1548TIP3    H228840   1.705   6.539  18.057  0.9813 -0.2819 -0.4574
 1549TIP3   OH228841   6.809   6.095  16.731  0.4397  0.6386  0.5623
 1549TIP3    H128842   6.741   6.162  16.724 -0.8306 -0.3747  2.1769
 1549TIP3    H228843   6.760   6.013  16.740  1.9231 -0.3240  0.1717
 1550TIP3   OH228844   0.639   1.876  16.693  0.2709 -0.0922  0.9385
 1550TIP3    H128845   0.565   1.864  16.753 -0.1603 -0.0259  0.4220
 1550TIP3    H228846   0.701   1.807  16.718  0.3721  0.3116  1.8680
 1551TIP3   OH228847   1.709   3.282  15.626  0.4340 -0.2337  0.2454
 1551TIP3    H128848   1.621   3.315  15.613  0.1147 -1.9633 -3.0302
 1551TIP3    H228849   1.765   3.340  15.575  0.7507 -0.8270 -0.1059
 1552TIP3   OH228850   0.805   7.131  16.570 -0.0641  0.1017  0.2728
 1552TIP3    H128851   0.854   7.169  16.643  1.4383  0.0727 -0.6697
 1552TIP3    H228852   0.863   7.062  16.536 -0.2387  0.8124 -1.5822
 1553TIP3   OH228853   3.078   4.608  17.082 -0.3215 -0.1392  0.6030
 1553TIP3    H128854   3.078   4.561  17.166  4.9520 -2.1153 -0.0765
 1553TIP3    H228855   3.132   4.685  17.099  1.4979 -0.9836 -0.9918
 1554TIP3   OH228856   6.519   0.703  17.832 -0.0607  0.0918  0.1263
 1554TIP3    H128857   6.426   0.718  17.815  0.2310  0.2086 -1.5427
 1554TIP3    H228858   6.522   0.669  17.922 -1.8989 -1.6628 -0.4054
 1555TIP3   OH228859   7.508   0.348  17.264  0.9240  0.4704  0.5001
 1555TIP3    H128860   7.549   0.427  17.227 -0.0041  0.8616  0.2619
 1555TIP3    H228861   7.434   0.331  17.205  1.5481 -1.0272  0.1119
 1556TIP3   OH228862   7.183   7.257  16.165 -0.2494  0.6763  0.4249
 1556TIP3    H128863   7.117   7.198  16.126  0.8194 -0.1882 -0.1470
 1556TIP3    H228864   7.261   7.244  16.111  0.5530  1.2885  1.4048
 1557TIP3   OH228865   7.559   3.043  15.887  0.6777 -0.7074  0.4088
 1557TIP3    H128866   7.516   3.126  15.911 -0.0434 -1.1555  0.7256
 1557TIP3    H228867   7.537   3.031  15.795 -0.7972 -1.4375  0.8155
 1558TIP3   OH228868   1.909   1.212  15.286  0.0117  0.5636  0.0088
 1558TIP3    H128869   1.917   1.293  15.237  1.4919 -0.5180 -1.6765
 1558TIP3    H228870   1.822   1.216  15.326  0.4674  3.4459  0.9828
 1559TIP3   OH228871   2.735   5.409  17.665 -0.0336 -0.0614  0.2836
 1559TIP3    H128872   2.718   5.422  17.572  0.2751  3.1876  0.5538
 1559TIP3    H228873   2.654   5.372  17.700 -0.7360  0.1946 -1.0135
 1560TIP3   OH228874   8.386   3.612  16.273 -0.4566 -0.0319  0.6172
 1560TIP3    H128875   8.386   3.517  16.264  0.9357 -0.0296  0.3422
 1560TIP3    H228876   8.471   3.639  16.239 -0.7890  1.3047  0.7955
 1561TIP3   OH228877   0.403   1.660  16.392 -0.1653  0.1037 -0.3258
 1561TIP3    H128878   0.355   1.735  16.426 -0.4324 -0.8975  1.6430
 1561TIP3    H228879   0.344   1.620  16.328 -0.9302  0.3337  0.2209
 1562TIP3   OH228880   3.086   7.379  15.941  0.1880 -0.4202  0.2361
 1562TIP3    H128881   3.127   7.331  15.869 -0.1333 -0.5159  0.1162
 1562TIP3    H228882   3.058   7.462  15.902  0.0862 -0.4393  0.2671
 1563TIP3   OH228883   3.072   0.889  17.233  0.0574  0.1267  0.2771
 1563TIP3    H128884   3.028   0.885  17.318 -2.2078 -2.2340 -0.8617
 1563TIP3    H228885   3.033   0.965  17.189  0.1892  0.5162  0.8331
 1564TIP3   OH228886   3.870   5.156  16.449 -0.2910 -0.1581 -0.0283
 1564TIP3    H128887   3.913   5.071  16.440  0.6109  0.1105  1.4665
 1564TIP3    H228888   3.824   5.169  16.366 -0.2704 -2.0016 -0.3611
 1565TIP3   OH228889   4.562   5.065  17.688 -0.3316 -0.0959 -0.0924
 1565TIP3    H128890   4.603   5.144  17.725 -0.3248  0.4057 -1.1225
 1565TIP3    H228891   4.586   5.067  17.595 -0.9232 -0.9426 -0.2755
 1566TIP3   OH228892   2.846   2.676  17.302 -0.2022 -0.1065 -0.3144
 1566TIP3    H128893   2.831   2.656  17.210 -0.9088 -0.9417 -0.0296
 1566TIP3    H228894   2.823   2.596  17.349  0.0055  0.3503  0.6025
 1567TIP3   OH228895   5.678   6.414  17.196  0.0710  0.5913  0.2043
 1567TIP3    H128896   5.732   6.387  17.121  0.6856 -1.0276  1.1805
 1567TIP3    H228897   5.594   6.439  17.157  0.4485  0.0097 -1.0511
 1568TIP3   OH228898   7.740   0.583  16.221 -0.0036 -0.0776 -0.4495
 1568TIP3    H128899   7.654   0.605  16.186 -0.8538  0.4296  1.8197
 1568TIP3    H228900   7.740   0.488  16.230  0.6789 -0.3733 -2.7636
 1569TIP3   OH228901   6.531   2.235  17.821 -0.4924 -0.1205 -0.2057
 1569TIP3    H128902   6.520   2.314  17.875 -1.6004  0.0227 -0.6271
 1569TIP3    H228903   6.474   2.170  17.861  3.2825 -2.1403  2.6471
 1570TIP3   OH228904   7.176   7.367  15.626 -0.4684 -0.5406 -0.0355
 1570TIP3    H128905   7.271   7.364  15.620 -0.4542  1.1473 -1.2999
 1570TIP3    H228906   7.146   7.306  15.559 -0.3041 -1.3583  0.6159
 1571TIP3   OH228907   8.389   3.934  16.504 -0.0826  1.2844 -0.1374
 1571TIP3    H128908   8.420   3.927  16.414  0.1114  0.5052 -0.0236
 1571TIP3    H228909   8.308   3.882  16.505  0.0357  1.1017  0.1830
 1572TIP3   OH228910   2.539   6.137  15.582 -0.3497 -0.2923 -0.2668
 1572TIP3    H128911   2.576   6.194  15.515 -1.5849  0.2053 -0.5496
 1572TIP3    H228912   2.555   6.048  15.549 -0.2870 -0.0666 -0.8534
 1573TIP3   OH228913   0.287   7.464  17.281  0.1890 -0.4953 -0.1975
 1573TIP3    H128914   0.204   7.492  17.242  0.7959  1.9219  0.0695
 1573TIP3    H228915   0.350   7.467  17.209  0.5247  0.1561  0.1120
 1574TIP3   OH228916   5.014   0.174  16.369  0.5380  0.5995  0.0012
 1574TIP3    H128917   5.053   0.196  16.284  1.7901 -2.2827 -0.2759
 1574TIP3    H228918   5.075   0.209  16.433  1.1980  0.1144 -0.3525
 1575TIP3   OH228919   3.323   3.260  16.190 -0.6506 -0.3547  0.3177
 1575TIP3    H128920   3.355   3.269  16.280 -0.2574  0.8829  0.0681
 1575TIP3    H228921   3.266   3.335  16.177 -0.3402 -0.2719 -0.6167
 1576TIP3   OH228922   0.911   2.761  17.718  0.2578  0.2742 -0.7174
 1576TIP3    H128923   0.997   2.773  17.759 -0.5719  1.4547  0.8006
 1576TIP3    H228924   0.924   2.784  17.626  2.1046 -2.0669 -1.1174
 1577TIP3   OH228925   7.105   6.768  17.087 -0.6345  0.0816  0.3408
 1577TIP3    H128926   7.183   6.822  17.104  0.3229 -1.1232 -0.0815
 1577TIP3    H228927   7.066   6.807  17.009  0.9920 -0.8036 -0.9680
 1578TIP3   OH228928   3.336   5.051  17.398 -0.2991 -0.1887 -0.6272
 1578TIP3    H128929   3.429   5.066  17.417 -0.3348  1.1121 -1.3135
 1578TIP3    H228930   3.330   5.059  17.303 -1.2129  0.3725 -0.5324
 1579TIP3   OH228931   6.215   1.954  15.848 -0.4406 -0.1075  0.5642
 1579TIP3    H128932   6.183   1.864  15.844  1.0874 -0.8762  3.3631
 1579TIP3    H228933   6.194   1.984  15.936  0.0830  1.8994  0.0677
 1580TIP3   OH228934   3.450   3.959  16.659  0.1798 -0.4288 -0.2104
 1580TIP3    H128935   3.483   3.899  16.726 -0.1165  0.3269  0.6216
 1580TIP3    H228936   3.355   3.959  16.670  0.3054  2.7805  2.1354
 1581TIP3   OH228937   4.391   1.297  16.284  0.0773  0.9560 -0.2749
 1581TIP3    H128938   4.360   1.235  16.218 -0.5021  1.4098 -0.4328
 1581TIP3    H228939   4.420   1.242  16.356 -0.3265  0.4951 -0.4582
 1582TIP3   OH228940   4.405   1.819  17.703 -0.1465  0.0860  0.0232
 1582TIP3    H128941   4.317   1.781  17.705 -1.2722  2.4397 -0.4655
 1582TIP3    H228942   4.464   1.745  17.718 -2.0644 -2.0181 -1.9991
 1583TIP3   OH228943   6.175   0.509  16.533  0.5292  0.0283  0.1506
 1583TIP3    H128944   6.225   0.550  16.462 -0.0348  0.1426 -0.1923
 1583TIP3    H228945   6.150   0.423  16.497 -0.5289  0.4486 -0.1418
 1584TIP3   OH228946   2.704   4.605  17.797 -0.6304 -0.1003  0.0908
 1584TIP3    H128947   2.632   4.635  17.852 -2.0948 -1.3793 -1.0177
 1584TIP3    H228948   2.713   4.673  17.729  0.7793  1.1767  1.4725
 1585TIP3   OH228949   2.242   7.830  17.662 -0.2775 -0.2217  0.3758
 1585TIP3    H128950   2.173   7.791  17.715  0.0459 -1.4647 -0.0947
 1585TIP3    H228951   2.203   7.843  17.576 -0.5892  1.1595  0.6944
 1586TIP3   OH228952   5.546   3.251  17.164 -0.5152  0.7606  0.0852
 1586TIP3    H128953   5.488   3.316  17.123 -0.2786 -0.3677 -2.1793
 1586TIP3    H228954   5.487   3.199  17.219 -1.5289  0.3280 -1.3276
 1587TIP3   OH228955   7.639   8.285  16.449 -0.1598 -0.0353  0.3369
 1587TIP3    H128956   7.551   8.280  16.411  0.1255 -0.7267 -0.2469
 1587TIP3    H228957   7.639   8.367  16.499 -1.0881  0.0405  0.2269
 1588TIP3   OH228958   5.658   6.472  16.156 -0.7289 -0.2095 -0.2100
 1588TIP3    H128959   5.598   6.510  16.219  0.3542  0.7980  0.2444
 1588TIP3    H228960   5.609   6.399  16.118 -1.7809 -0.1861  1.0214
 1589TIP3   OH228961   7.269   0.315  17.103  0.0008  0.3803 -0.1856
 1589TIP3    H128962   7.220   0.326  17.184 -1.7668  2.6802 -1.4728
 1589TIP3    H228963   7.246   0.227  17.073 -2.4663  0.9243 -0.1105
 1590TIP3   OH228964   2.945   3.156  16.584  0.4670  0.3926 -0.4541
 1590TIP3    H128965   3.022   3.212  16.579 -0.8164  2.1508 -1.9890
 1590TIP3    H228966   2.872   3.216  16.595 -0.7717 -1.1859  0.5100
 1591TIP3   OH228967   8.398   4.953  17.639  0.4822 -0.2122 -0.1139
 1591TIP3    H128968   8.380   4.951  17.545 -0.1921  0.2077  0.0061
 1591TIP3    H228969   8.352   4.877  17.674 -0.0152  0.1425  0.0066
 1592TIP3   OH228970   6.100   6.516  16.346 -0.5685  0.4932 -0.4465
 1592TIP3    H128971   6.113   6.451  16.278 -1.0544  0.4339 -0.4833
 1592TIP3    H228972   6.021   6.564  16.319 -0.7137  0.5256  0.0274
 1593TIP3   OH228973   2.705   5.814  16.326 -0.1473  0.1060  0.1179
 1593TIP3    H128974   2.652   5.843  16.251  0.3357  0.5011 -0.0805
 1593TIP3    H228975   2.758   5.743  16.291 -0.8495 -0.5797  0.4303
 1594TIP3   OH228976   8.244   3.063  18.207 -0.4487 -0.0962 -0.3104
 1594TIP3    H128977   8.276   3.121  18.139 -2.6049 -1.5716 -2.7652
 1594TIP3    H228978   8.313   2.998  18.218  0.6714  1.1433  0.2681
 1595TIP3   OH228979   6.583   6.842  17.745 -0.3584  0.3232 -0.6625
 1595TIP3    H128980   6.513   6.777  17.744 -0.3442  0.1466  2.1178
 1595TIP3    H228981   6.663   6.791  17.729 -0.6440  0.2453 -1.9731
 1596TIP3   OH228982   7.688   3.447  17.441  0.3173  0.3791 -0.0524
 1596TIP3    H128983   7.645   3.422  17.522  1.6275  0.1716  0.6049
 1596TIP3    H228984   7.722   3.535  17.458  1.1147  0.0935 -0.1623
 1597TIP3   OH228985   4.700   2.007  15.976  0.2036 -0.4169 -0.2166
 1597TIP3    H128986   4.749   1.926  15.963 -0.8437 -1.0006 -0.6403
 1597TIP3    H228987   4.753   2.075  15.934  1.1341 -0.8661  0.2297
 1598TIP3   OH228988   4.945   6.672  17.419 -0.2199  0.3259 -0.1030
 1598TIP3    H128989   5.016   6.610  17.437  1.4025  1.8769 -0.7999
 1598TIP3    H228990   4.952   6.738  17.488  0.0045  1.2843 -1.0163
 1599TIP3   OH228991   7.441   6.806  16.411 -0.3749 -0.0193  0.5445
 1599TIP3    H128992   7.385   6.750  16.358  2.0871 -0.4507 -1.7863
 1599TIP3    H228993   7.385   6.880  16.435 -1.9013 -0.2982 -1.8380
 1600TIP3   OH228994   7.564   3.266  17.664  0.1698 -0.0777 -0.3383
 1600TIP3    H128995   7.639   3.231  17.712 -0.6547 -0.4787  0.7264
 1600TIP3    H228996   7.523   3.189  17.624  0.7024  0.2245 -1.5045
 1601TIP3   OH228997   1.902   6.143  15.520  1.0895  0.0192  0.2091
 1601TIP3    H128998   1.943   6.226  15.494  0.5702 -0.2658 -1.7110
 1601TIP3    H228999   1.966   6.101  15.578  1.7940  1.3072  0.4016
 1602TIP3   OH229000   8.068   5.455  16.557  0.2159 -0.3959  0.1405
 1602TIP3    H129001   8.148   5.472  16.507  0.3391 -0.6816  0.2367
 1602TIP3    H229002   8.082   5.369  16.596  0.0095 -0.2951  0.4439
 1603TIP3   OH229003   2.807   1.629  16.429 -0.2942 -0.6706 -0.3039
 1603TIP3    H129004   2.788   1.631  16.335  1.0383 -1.2658 -0.6104
 1603TIP3    H229005   2.890   1.583  16.435  1.9613  3.1093  0.7394
 1604TIP3   OH229006   4.436   1.565  16.586  1.0967  0.3038  0.1034
 1604TIP3    H129007   4.448   1.655  16.553  0.9053  0.1529 -0.3857
 1604TIP3    H229008   4.347   1.565  16.622  0.8336  0.1205 -0.5329
 1605TIP3   OH229009   7.069   0.164  17.915 -0.6187 -0.1062  1.0891
 1605TIP3    H129010   7.158   0.141  17.891 -0.5597 -0.6349  1.7747
 1605TIP3    H229011   7.020   0.161  17.832 -1.1187 -5.0359  1.2443
 1606TIP3   OH229012   6.195   6.803  18.254 -0.5478 -0.1319 -0.6774
 1606TIP3    H129013   6.232   6.860  18.322 -1.2505 -1.8330  1.2483
 1606TIP3    H229014   6.122   6.852  18.218 -1.2042  0.1864  1.0087
 1607TIP3   OH229015   4.925   6.798  17.698 -0.6370  0.3386  0.0963
 1607TIP3    H129016   5.014   6.809  17.733 -1.0855  0.7178  1.1392
 1607TIP3    H229017   4.911   6.876  17.644  0.1714 -0.3952 -1.2282
 1608TIP3   OH229018   3.771   1.273  16.093  0.3570 -0.1394 -0.1151
 1608TIP3    H129019   3.695   1.304  16.043 -0.2057 -0.0125  0.7908
 1608TIP3    H229020   3.768   1.324  16.174  2.9849  1.8703 -1.1382
 1609TIP3   OH229021   8.327   8.439  17.010 -0.6239  0.1559  0.5072
 1609TIP3    H129022   8.272   8.447  17.088  0.3057 -0.5348  1.2562
 1609TIP3    H229023   8.307   8.352  16.975 -0.1639 -0.0227  0.6770
 1610TIP3   OH229024   5.539   7.629  15.621 -0.3809 -0.2217  0.0206
 1610TIP3    H129025   5.573   7.591  15.539 -0.2117 -0.4471  0.1947
 1610TIP3    H229026   5.581   7.578  15.690 -0.0709  0.3505  0.2628
 1611TIP3   OH229027   7.546   0.758  16.847  0.2463 -0.3559 -0.3880
 1611TIP3    H129028   7.572   0.790  16.934  1.2062 -0.7896 -0.5052
 1611TIP3    H229029   7.574   0.827  16.787 -1.6400  0.5769 -0.2550
 1612TIP3   OH229030   3.034   7.453  18.010  0.4728  0.0984 -0.1110
 1612TIP3    H129031   3.116   7.416  18.044  0.5997 -0.1711 -0.6956
 1612TIP3    H229032   2.983   7.474  18.088  0.3754 -1.3426  0.2456
 1613TIP3   OH229033   0.394   6.608  16.013  0.1888 -0.2359 -0.0769
 1613TIP3    H129034   0.443   6.660  15.948 -0.0412 -0.8246 -0.7339
 1613TIP3    H229035   0.361   6.673  16.075 -0.7314  0.5129 -1.3037
 1614TIP3   OH229036   3.127   2.088  16.477 -0.5208 -0.1937 -0.3183
 1614TIP3    H129037   3.067   2.156  16.508 -1.7735 -0.4522 -2.0202
 1614TIP3    H229038   3.211   2.132  16.470 -0.9762  0.7715  0.0780
 1615TIP3   OH229039   8.078   8.085  15.638  0.1361 -0.2334 -0.1627
 1615TIP3    H129040   8.159   8.136  15.632 -1.0492  1.6575 -1.0076
 1615TIP3    H229041   8.008   8.149  15.625 -1.5832 -1.5530  1.9124
 1616TIP3   OH229042   6.110   3.997  17.011  0.1690 -0.3543 -0.2932
 1616TIP3    H129043   6.051   3.922  16.999 -0.9529  0.1554  1.6927
 1616TIP3    H229044   6.144   4.015  16.923 -1.4362 -1.6459 -1.2218
 1617TIP3   OH229045   7.304   7.778  16.112  0.2983  0.3774  0.2989
 1617TIP3    H129046   7.339   7.699  16.070 -1.6226 -0.7333  0.6207
 1617TIP3    H229047   7.379   7.836  16.122  1.8946 -1.6284  0.5378
 1618TIP3   OH229048   0.717   1.024  16.541  0.2958  0.1704  0.3242
 1618TIP3    H129049   0.775   1.086  16.497  1.8669 -1.6936 -0.3698
 1618TIP3    H229050   0.629   1.060  16.528  0.9892  1.2927 -1.6550
 1619TIP3   OH229051   4.133   8.058  17.062 -0.8686 -0.0332  0.2043
 1619TIP3    H129052   4.218   8.047  17.105 -0.9856  1.7985  1.0105
 1619TIP3    H229053   4.076   7.994  17.104 -0.4716  0.3676  1.4003
 1620TIP3   OH229054   0.932   2.336  17.944 -0.2314 -0.2642  0.1184
 1620TIP3    H129055   0.881   2.309  18.020 -0.8204 -0.1375 -0.2300
 1620TIP3    H229056   0.870   2.339  17.872 -0.1514  1.7495  0.0671
 1621TIP3   OH229057   1.677   0.826  16.145 -0.6134 -0.4475  0.1592
 1621TIP3    H129058   1.611   0.791  16.085 -0.8796 -0.4394  0.4431
 1621TIP3    H229059   1.743   0.757  16.153 -0.9233 -0.7184  0.3885
 1622TIP3   OH229060   3.266   0.735  17.019 -0.3935 -0.5936 -0.5518
 1622TIP3    H129061   3.261   0.672  17.091 -0.2419 -0.2920 -0.2758
 1622TIP3    H229062   3.322   0.805  17.052 -2.1310  0.6564 -0.0960
 1623TIP3   OH229063   5.535   3.813  16.614  0.2093  0.1010  0.2682
 1623TIP3    H129064   5.531   3.886  16.676  0.3327  0.9938 -0.7453
 1623TIP3    H229065   5.463   3.756  16.640  1.2358 -0.4018  2.2406
 1624TIP3   OH229066   5.348   7.610  15.864 -0.4641 -0.3438 -0.1245
 1624TIP3    H129067   5.304   7.535  15.906  0.6910 -1.3896 -0.7013
 1624TIP3    H229068   5.418   7.570  15.813  0.9186  1.2356  0.4522
 1625TIP3   OH229069   2.057   3.987  16.364  0.0276  0.4329 -0.2040
 1625TIP3    H129070   2.092   3.929  16.296  2.1612 -0.2640  1.3881
 1625TIP3    H229071   2.044   3.930  16.440  3.4441  2.0426  1.8458
 1626TIP3   OH229072   7.152   0.284  17.345  0.2038 -0.1861 -0.1465
 1626TIP3    H129073   7.192   0.197  17.338  1.7499  0.3847  0.9638
 1626TIP3    H229074   7.075   0.270  17.401  1.9355 -0.4788  2.3515
 1627TIP3   OH229075   2.990   5.941  15.102 -0.2481  0.5173 -0.1476
 1627TIP3    H129076   3.020   6.031  15.108 -0.7922  0.7320 -0.5576
 1627TIP3    H229077   2.899   5.943  15.131 -0.6583  0.3355 -1.3307
 1628TIP3   OH229078   3.444   5.108  15.727 -0.6865 -0.1976 -0.1730
 1628TIP3    H129079   3.500   5.055  15.783 -0.8572  0.5322  0.7035
 1628TIP3    H229080   3.359   5.064  15.729 -0.7797  0.0065  0.4085
 1629TIP3   OH229081   5.201   1.681  16.828 -0.2026 -0.2828  0.0561
 1629TIP3    H129082   5.220   1.737  16.903  0.8547 -0.3775 -0.1334
 1629TIP3    H229083   5.246   1.721  16.754  1.3746 -1.8660  0.1060
 1630TIP3   OH229084   5.306   3.945  17.900 -0.1431  0.4308 -0.0594
 1630TIP3    H129085   5.394   3.908  17.911 -0.6291 -0.1774  2.4122
 1630TIP3    H229086   5.314   4.035  17.930 -0.5267  0.1157  1.0210
 1631TIP3   OH229087   1.939   3.416  18.079  0.2308  0.1143  0.2272
 1631TIP3    H129088   1.985   3.500  18.087  0.8311 -0.0910 -0.8663
 1631TIP3    H229089   2.009   3.351  18.081  0.0503 -0.1981 -1.6181
 1632TIP3   OH229090   5.491   1.442  16.928 -0.3173 -0.3527  0.9056
 1632TIP3    H129091   5.401   1.476  16.927  0.0497  0.6906  1.7449
 1632TIP3    H229092   5.534   1.487  16.855 -0.4318 -0.7112  0.6191
 1633TIP3   OH229093   2.418   4.113  16.071  0.1387 -0.1815 -0.4813
 1633TIP3    H129094   2.383   4.201  16.087  0.3002 -0.1746 -0.1420
 1633TIP3    H229095   2.365   4.078  15.999 -0.4635 -0.1170 -0.0742
 1634TIP3   OH229096   5.958   6.054  17.785  0.1178 -0.0712 -0.0595
 1634TIP3    H129097   6.023   6.030  17.719  0.2575 -2.2224  0.7759
 1634TIP3    H229098   6.010   6.093  17.856  0.1581  0.6645 -0.4786
 1635TIP3   OH229099   4.145   1.445  15.614 -0.4682  0.0330  0.3085
 1635TIP3    H129100   4.225   1.488  15.582 -1.1685  2.0489  1.1790
 1635TIP3    H229101   4.176   1.359  15.643  0.8885 -0.3351 -1.9122
 1636TIP3   OH229102   8.398   2.199  17.133  0.4201  0.2621 -0.1327
 1636TIP3    H129103   8.360   2.243  17.057  1.1937  0.9145 -0.1537
 1636TIP3    H229104   8.389   2.262  17.204 -0.5504 -0.4482  0.4107
 1637TIP3   OH229105   0.717   7.475  15.643 -0.9052  0.1527  0.7612
 1637TIP3    H129106   0.702   7.392  15.598 -0.3651  0.2572  0.3787
 1637TIP3    H229107   0.733   7.538  15.573  0.3341  0.2376  1.1019
 1638TIP3   OH229108   5.341   3.588  15.741 -0.1074 -0.2057 -0.1835
 1638TIP3    H129109   5.390   3.516  15.701 -0.2000  0.2608 -1.1705
 1638TIP3    H229110   5.373   3.591  15.831  0.7261 -0.7576 -0.4433
 1639TIP3   OH229111   7.709   7.308  17.519 -0.0560  0.2305 -0.3634
 1639TIP3    H129112   7.796   7.276  17.494 -1.6024 -2.2947 -3.0326
 1639TIP3    H229113   7.659   7.229  17.538 -1.9325  1.6111  0.7752
 1640TIP3   OH229114   2.699   7.615  17.287 -0.2629  0.5577  0.1659
 1640TIP3    H129115   2.655   7.554  17.347 -0.7566  0.1305 -0.6171
 1640TIP3    H229116   2.630   7.643  17.227  0.4663  0.0875 -0.9189
 1641TIP3   OH229117   7.803   7.480  16.789 -0.3190  0.6476 -0.5409
 1641TIP3    H129118   7.781   7.422  16.716 -0.4630 -0.3303  0.2507
 1641TIP3    H229119   7.722   7.527  16.807 -0.4820  0.3897 -0.5866
 1642TIP3   OH229120   4.116   6.724  16.895  0.2945  0.1973 -0.1725
 1642TIP3    H129121   4.023   6.734  16.873  0.2512  0.2876  0.0460
 1642TIP3    H229122   4.150   6.665  16.829  0.6466  2.1178 -1.8044
 1643TIP3   OH229123   7.144   5.458  16.890  0.3813  0.0728 -0.0160
 1643TIP3    H129124   7.062   5.433  16.846  0.2837  0.1656  0.1118
 1643TIP3    H229125   7.211   5.405  16.848  0.1046 -0.8012  0.6054
 1644TIP3   OH229126   4.975   2.590  15.969  0.1278 -0.1881 -0.1068
 1644TIP3    H129127   4.970   2.681  15.942 -0.7175 -0.4431 -0.8247
 1644TIP3    H229128   4.963   2.540  15.889 -1.5348 -0.9491  0.5867
 1645TIP3   OH229129   7.744   5.369  16.162  0.1217 -0.5674  0.2998
 1645TIP3    H129130   7.717   5.443  16.107 -0.1634 -0.6884  0.2739
 1645TIP3    H229131   7.838   5.380  16.174 -0.0279  0.1914  0.8687
 1646TIP3   OH229132   1.106   2.768  16.630 -0.0587 -0.3427  0.0735
 1646TIP3    H129133   1.053   2.760  16.709  0.1943 -1.2966  0.1625
 1646TIP3    H229134   1.165   2.692  16.633  0.0151 -0.3472 -0.9823
 1647TIP3   OH229135   4.661   3.806  16.046 -0.4583 -0.4001 -0.0624
 1647TIP3    H129136   4.590   3.754  16.083 -1.2621  0.6461 -0.0745
 1647TIP3    H229137   4.623   3.846  15.968  0.0699  0.3237  0.0341
 1648TIP3   OH229138   3.875   6.853  17.691  0.3951 -0.4177  0.8734
 1648TIP3    H129139   3.935   6.919  17.657  0.2617 -0.4213  0.6239
 1648TIP3    H229140   3.923   6.771  17.684  0.6363 -0.3231  1.3710
 1649TIP3   OH229141   1.468   6.558  16.636  0.2358  0.6122  0.2052
 1649TIP3    H129142   1.483   6.640  16.684  0.6308  0.4263  0.4031
 1649TIP3    H229143   1.483   6.489  16.701 -0.9973  0.4009  0.2839
 1650TIP3   OH229144   7.356   5.427  16.496 -0.0193  0.1751  0.7964
 1650TIP3    H129145   7.434   5.479  16.479  0.2481 -0.3886  0.2271
 1650TIP3    H229146   7.293   5.457  16.431  0.7762 -1.5062 -0.8501
 1651TIP3   OH229147   3.901   6.057  17.232 -0.1936 -0.0492 -0.3234
 1651TIP3    H129148   3.821   6.006  17.245  0.2243 -0.7766 -0.5486
 1651TIP3    H229149   3.895   6.128  17.296 -0.6240 -0.5774  0.2393
 1652TIP3   OH229150   1.321   6.897  17.635  0.2478  0.1983  0.5262
 1652TIP3    H129151   1.233   6.927  17.658 -0.7272 -1.1226 -1.1914
 1652TIP3    H229152   1.310   6.802  17.623  1.7857  0.0968 -0.2194
 1653TIP3   OH229153   1.621   5.758  17.136  0.2266 -0.5125  0.1533
 1653TIP3    H129154   1.547   5.749  17.196 -2.3266 -1.4737 -2.8308
 1653TIP3    H229155   1.645   5.851  17.141 -0.5364 -0.3842  1.8937
 1654TIP3   OH229156   5.283   5.222  16.928  0.4075  0.4850  0.1583
 1654TIP3    H129157   5.307   5.203  17.019  1.5613 -2.4551 -0.6276
 1654TIP3    H229158   5.195   5.259  16.934 -0.3983 -1.5191  2.4214
 1655TIP3   OH229159   0.876   0.510  16.970  0.1960  0.0284 -0.1444
 1655TIP3    H129160   0.927   0.475  17.043 -0.1852 -1.9344 -0.7603
 1655TIP3    H229161   0.935   0.503  16.895 -0.6105 -1.3408 -0.6792
 1656TIP3   OH229162   7.270   4.147  16.703  0.0737  0.0734 -0.0695
 1656TIP3    H129163   7.312   4.223  16.665  0.8708 -0.4127 -0.1899
 1656TIP3    H229164   7.245   4.175  16.792 -0.2986  0.6887 -0.3625
 1657TIP3   OH229165   0.868   4.315  16.342  0.1469 -0.0891 -0.5211
 1657TIP3    H129166   0.804   4.377  16.380  0.1514 -0.6018  0.3620
 1657TIP3    H229167   0.921   4.287  16.417  0.5867 -0.6457 -1.0298
 1658TIP3   OH229168   2.841   4.422  17.589 -0.1317 -0.3970 -0.2158
 1658TIP3    H129169   2.910   4.489  17.580 -1.9546  1.3635 -2.3481
 1658TIP3    H229170   2.812   4.430  17.679  1.5981 -0.3093  0.3691
 1659TIP3   OH229171   8.175   2.439  17.279  0.0356  1.2766  0.2713
 1659TIP3    H129172   8.270   2.434  17.277  0.0380  0.1488 -2.7805
 1659TIP3    H229173   8.156   2.532  17.285  1.3150  1.5235  0.7639
 1660TIP3   OH229174   6.609   1.211  17.375 -0.3856 -0.1766 -0.4374
 1660TIP3    H129175   6.567   1.163  17.304 -0.6119  0.0286 -0.4447
 1660TIP3    H229176   6.537   1.232  17.435 -0.4637  1.0092 -0.9229
 1661TIP3   OH229177   2.775   6.796  17.125  0.1049  0.8559 -0.1417
 1661TIP3    H129178   2.713   6.819  17.055  1.2068  1.1197 -1.0580
 1661TIP3    H229179   2.800   6.706  17.106 -0.6749  0.4302  0.7637
 1662TIP3   OH229180   6.239   2.743  16.035 -0.1931 -0.0136 -0.6147
 1662TIP3    H129181   6.220   2.669  16.092  1.0978 -0.4330 -0.7098
 1662TIP3    H229182   6.161   2.753  15.981 -0.4130 -1.2399 -0.5352
 1663TIP3   OH229183   4.794   7.360  16.959 -0.1699  0.0482 -0.0351
 1663TIP3    H129184   4.854   7.433  16.977  0.3413 -0.3004 -0.3073
 1663TIP3    H229185   4.818   7.330  16.871 -1.3943  0.5259 -0.5585
 1664TIP3   OH229186   6.411   7.055  16.687 -0.1697  0.3414  0.3146
 1664TIP3    H129187   6.471   7.128  16.673  0.0384  0.3293  1.1057
 1664TIP3    H229188   6.371   7.040  16.601  0.4462  0.7990 -0.0592
 1665TIP3   OH229189   0.636   8.437  17.878 -0.2005 -0.4128 -0.4456
 1665TIP3    H129190   0.678   8.505  17.825 -0.2449  0.1540  0.2253
 1665TIP3    H229191   0.700   8.367  17.884  0.2926  0.0532 -0.2101
 1666TIP3   OH229192   0.601   2.154  15.453  0.4856 -0.0600  0.4691
 1666TIP3    H129193   0.689   2.176  15.423  0.3936  1.8309  1.4370
 1666TIP3    H229194   0.556   2.238  15.460 -1.3662 -0.9722  0.1395
 1667TIP3   OH229195   2.589   5.798  16.078  0.4263  0.3428  0.1750
 1667TIP3    H129196   2.497   5.799  16.102  0.6055  1.1126  0.9149
 1667TIP3    H229197   2.595   5.851  15.999  0.2194  0.1847  0.0546
 1668TIP3   OH229198   0.347   5.122  16.260 -1.0456 -0.0510 -0.4281
 1668TIP3    H129199   0.378   5.059  16.195 -0.5756 -0.0702 -0.1816
 1668TIP3    H229200   0.255   5.135  16.237 -0.9794 -0.3332 -0.8772
 1669TIP3   OH229201   0.900   2.789  17.990  0.5590  0.4899  0.4511
 1669TIP3    H129202   0.944   2.868  18.022  1.9774 -0.8525  2.0261
 1669TIP3    H229203   0.960   2.753  17.924 -1.2367  1.9551 -2.1422
 1670TIP3   OH229204   3.984   7.873  15.624  0.1153  0.2755 -0.0746
 1670TIP3    H129205   4.051   7.815  15.661  0.6830  1.5724  0.9874
 1670TIP3    H229206   3.915   7.876  15.691  0.0442  0.7444 -0.1650
 1671TIP3   OH229207   0.140   6.908  17.747 -0.2138  0.6307 -0.3982
 1671TIP3    H129208   0.227   6.909  17.787 -0.1235 -3.2467 -0.1557
 1671TIP3    H229209   0.152   6.861  17.665 -1.5014  3.4427 -2.3751
 1672TIP3   OH229210   1.355   0.726  16.294  0.6606 -0.3511 -0.1148
 1672TIP3    H129211   1.400   0.733  16.210 -0.9711 -1.8637 -1.2128
 1672TIP3    H229212   1.273   0.775  16.281 -0.0261 -1.3697  0.2392
 1673TIP3   OH229213   2.905   0.539  16.727  0.5624 -0.2604  0.7806
 1673TIP3    H129214   2.954   0.602  16.780  0.9884  0.0505  0.0337
 1673TIP3    H229215   2.903   0.459  16.781  1.3719 -0.0897  1.0844
 1674TIP3   OH229216   5.157   6.784  15.953  0.2791  0.0459 -0.3899
 1674TIP3    H129217   5.192   6.822  15.873 -1.0339 -1.7604 -1.8928
 1674TIP3    H229218   5.062   6.792  15.944  0.0087 -2.3126 -0.1705
 1675TIP3   OH229219   2.339   1.223  16.566  0.4240  0.4320 -0.0403
 1675TIP3    H129220   2.394   1.276  16.509 -0.9366  0.4423 -1.4083
 1675TIP3    H229221   2.358   1.132  16.540 -0.0248  0.4277 -0.3739
 1676TIP3   OH229222   2.448   5.797  16.921 -0.2568  0.1987 -0.3684
 1676TIP3    H129223   2.498   5.731  16.874 -1.8303 -0.9871 -0.4332
 1676TIP3    H229224   2.409   5.750  16.995  0.4898  1.5807  0.9697
 1677TIP3   OH229225   2.760   4.615  15.832 -0.0191  0.1253 -0.0799
 1677TIP3    H129226   2.703   4.539  15.821  1.3862 -0.7311 -1.8365
 1677TIP3    H229227   2.789   4.610  15.923  0.3764 -1.7011 -0.2762
 1678TIP3   OH229228   2.829   5.942  18.121 -0.2269 -0.2362 -0.1880
 1678TIP3    H129229   2.902   6.004  18.127 -0.2777 -0.2743  4.0577
 1678TIP3    H229230   2.754   5.995  18.094  0.4982  0.7280 -0.3555
 1679TIP3   OH229231   6.566   0.514  17.629 -0.3040 -0.1075  0.0261
 1679TIP3    H129232   6.560   0.556  17.714 -0.9350  0.2355 -0.1822
 1679TIP3    H229233   6.644   0.459  17.635  1.3382  2.1060 -0.1463
 1680TIP3   OH229234   2.085   8.352  15.695 -0.4725  1.2928  0.4686
 1680TIP3    H129235   2.100   8.371  15.788  0.2441  3.4562 -0.0364
 1680TIP3    H229236   2.096   8.436  15.651 -2.1025  0.5904 -1.4538
 1681TIP3   OH229237   0.696   1.547  16.067  0.3033 -0.4151  0.2344
 1681TIP3    H129238   0.733   1.569  16.153  0.3062 -0.4971  0.2558
 1681TIP3    H229239   0.771   1.519  16.015  0.0841 -2.0910  0.7531
 1682TIP3   OH229240   8.171   5.635  16.216 -0.5394  0.1046  0.3991
 1682TIP3    H129241   8.143   5.716  16.260 -0.7808  2.0064 -2.9019
 1682TIP3    H229242   8.262   5.653  16.191 -0.2958 -1.0616  0.4201
 1683TIP3   OH229243   2.372   5.080  15.517 -0.4699 -0.4501  0.4333
 1683TIP3    H129244   2.324   5.163  15.515  1.0178  0.4229 -0.9006
 1683TIP3    H229245   2.303   5.013  15.511 -1.5933  0.7400 -0.8122
 1684TIP3   OH229246   3.714   0.465  15.934  0.3029  0.1059 -0.2836
 1684TIP3    H129247   3.700   0.552  15.896 -1.3531 -0.4388 -1.0402
 1684TIP3    H229248   3.682   0.472  16.024  0.3519  0.3199 -0.2826
 1685TIP3   OH229249   1.213   5.797  17.630  0.5994  0.0618 -0.3647
 1685TIP3    H129250   1.169   5.831  17.552 -0.3193  1.9921  0.9091
 1685TIP3    H229251   1.261   5.720  17.599 -0.3286  0.3226 -2.6573
 1686TIP3   OH229252   1.203   1.245  16.498  0.4494  0.0367  0.1233
 1686TIP3    H129253   1.263   1.173  16.480 -0.6231 -0.9910  0.4953
 1686TIP3    H229254   1.151   1.214  16.573 -0.9136  0.6482 -0.5403
 1687TIP3   OH229255   6.160   7.518  16.000  0.1184  0.0886 -0.3266
 1687TIP3    H129256   6.234   7.526  15.940 -0.0581 -2.5029 -1.0321
 1687TIP3    H229257   6.101   7.589  15.975  0.6738 -0.0771 -2.3300
 1688TIP3   OH229258   7.601   8.116  17.932 -0.0348 -0.0434 -0.0357
 1688TIP3    H129259   7.557   8.054  17.990  0.8057  0.6240  1.3827
 1688TIP3    H229260   7.682   8.138  17.978  0.1783  1.3032 -0.9899
 1689TIP3   OH229261   5.499   7.753  17.633  0.5458  0.2192  0.0936
 1689TIP3    H129262   5.426   7.692  17.631 -0.0929  0.9757 -0.4202
 1689TIP3    H229263   5.524   7.757  17.726 -0.9779  0.9848  0.5180
 1690TIP3   OH229264   4.626   1.460  15.852  0.7434 -0.1256 -0.1305
 1690TIP3    H129265   4.638   1.397  15.782 -0.4674 -2.1604  1.3770
 1690TIP3    H229266   4.533   1.452  15.876  0.8271  1.4215  0.8553
 1691TIP3   OH229267   6.081   5.959  17.563  0.1995  0.3444  0.2647
 1691TIP3    H129268   6.033   5.880  17.540  3.3849 -2.1316  1.4089
 1691TIP3    H229269   6.073   6.015  17.486  1.3770 -2.9604 -2.5278
 1692TIP3   OH229270   7.541   4.972  17.185 -0.7684 -0.1846 -0.7578
 1692TIP3    H129271   7.516   4.890  17.142 -0.5895 -0.0481 -1.1287
 1692TIP3    H229272   7.619   5.001  17.138  0.0194 -0.5348  0.2981
 1693TIP3   OH229273   0.276   1.527  16.839  0.1388  0.4900  0.2955
 1693TIP3    H129274   0.235   1.447  16.806 -0.2929  1.3315 -1.3572
 1693TIP3    H229275   0.348   1.544  16.778  0.7920  0.8900  1.1534
 1694TIP3   OH229276   7.100   6.508  17.912 -0.1959  0.1427 -0.1821
 1694TIP3    H129277   7.089   6.506  17.817 -0.8639  1.4277 -0.1612
 1694TIP3    H229278   7.066   6.424  17.942 -1.4895  0.3567 -0.9572
 1695TIP3   OH229279   4.915   1.648  16.839 -0.4044  0.1116 -0.2990
 1695TIP3    H129280   4.912   1.556  16.813  0.0132 -0.3325  1.1396
 1695TIP3    H229281   5.001   1.679  16.808 -1.2657  0.5898 -2.4394
 1696TIP3   OH229282   6.508   6.277  15.761 -0.6505  0.2179 -0.2998
 1696TIP3    H129283   6.463   6.359  15.742  1.7800  1.2594 -2.1637
 1696TIP3    H229284   6.563   6.296  15.837  0.0774  0.4170 -0.8654
 1697TIP3   OH229285   2.002   6.586  17.193 -0.0442 -0.0793  0.2430
 1697TIP3    H129286   2.057   6.656  17.157  0.0432  0.1575  0.8238
 1697TIP3    H229287   1.912   6.620  17.186  0.1505  1.8264  3.9575
 1698TIP3   OH229288   3.160   5.201  16.972  0.0195 -0.0117 -0.3341
 1698TIP3    H129289   3.116   5.208  17.057  1.4635  1.3517  0.3653
 1698TIP3    H229290   3.252   5.185  16.994  0.3519 -0.0177 -1.6506
 1699TIP3   OH229291   3.050   1.836  17.712  0.2263 -0.0327  0.2310
 1699TIP3    H129292   3.138   1.819  17.678  1.2187 -1.9933  3.4307
 1699TIP3    H229293   3.061   1.911  17.770  0.0414 -0.8866  1.4008
 1700TIP3   OH229294   4.302   6.151  17.308 -0.0359 -0.1246  0.2548
 1700TIP3    H129295   4.369   6.147  17.377  0.3485 -2.5096 -0.1763
 1700TIP3    H229296   4.292   6.245  17.291  0.5326  0.5018  2.8694
 1701TIP3   OH229297   3.139   8.422  15.720 -0.1367 -0.1119 -0.0877
 1701TIP3    H129298   3.154   8.340  15.767  0.6336  0.9584  1.6502
 1701TIP3    H229299   3.122   8.395  15.630 -1.1895 -2.2391  0.6739
 1702TIP3   OH229300   0.839   6.275  16.146 -0.0781 -0.1194  0.0967
 1702TIP3    H129301   0.887   6.216  16.204  0.1626 -0.1453 -0.1233
 1702TIP3    H229302   0.866   6.363  16.173 -0.1217 -0.1251  0.1583
 1703TIP3   OH229303   7.793   7.829  17.232  0.2760 -0.4184  0.1431
 1703TIP3    H129304   7.877   7.860  17.199  0.6575 -1.6426 -0.1048
 1703TIP3    H229305   7.787   7.738  17.200 -1.3405 -0.2150 -0.2285
 1704TIP3   OH229306   6.386   6.396  16.291  0.3115 -0.1475 -0.3654
 1704TIP3    H129307   6.463   6.364  16.246  0.4251  0.5762 -0.6997
 1704TIP3    H229308   6.314   6.384  16.229  0.1622 -0.7197 -0.0946
 1705TIP3   OH229309   0.424   3.097  17.187  0.1992 -0.0724 -0.1811
 1705TIP3    H129310   0.498   3.077  17.245  0.3514 -0.8448 -0.6312
 1705TIP3    H229311   0.388   3.011  17.164 -0.2314  0.2577 -0.7495
 1706TIP3   OH229312   7.471   4.317  16.303 -0.2259 -0.3035  0.0237
 1706TIP3    H129313   7.487   4.222  16.301 -0.2758 -0.3452  1.0940
 1706TIP3    H229314   7.558   4.356  16.313 -0.2954 -0.2949  0.6477
 1707TIP3   OH229315   4.127   0.138  16.585 -0.2991 -0.2089 -0.2392
 1707TIP3    H129316   4.217   0.104  16.586 -0.1011  0.3190  0.1327
 1707TIP3    H229317   4.124   0.195  16.509 -0.5566 -0.8319 -0.7101
 1708TIP3   OH229318   8.377   2.683  17.876 -0.3053  0.1852 -0.5108
 1708TIP3    H129319   8.470   2.682  17.854  0.1781 -3.3890  1.0928
 1708TIP3    H229320   8.333   2.651  17.797  0.0614 -0.2038 -0.5602
 1709TIP3   OH229321   8.231   7.567  17.319 -0.4411  0.2612 -0.0047
 1709TIP3    H129322   8.295   7.619  17.272  0.4640 -0.3430  0.5420
 1709TIP3    H229323   8.195   7.626  17.385 -0.2137  0.5015 -0.0976
 1710TIP3   OH229324   5.369   7.777  16.141 -0.2250 -0.2603 -0.1094
 1710TIP3    H129325   5.426   7.754  16.068  0.4371  1.1173 -0.0460
 1710TIP3    H229326   5.281   7.783  16.103 -0.1881 -1.3492 -0.4078
 1711TIP3   OH229327   4.205   1.825  16.443 -0.0133  0.1844  0.0232
 1711TIP3    H129328   4.185   1.744  16.489 -1.7713  0.5555 -0.0325
 1711TIP3    H229329   4.159   1.893  16.492  0.1008  0.9233 -0.8627
 1712TIP3   OH229330   3.895   3.655  17.750 -0.4345  0.9463  0.1454
 1712TIP3    H129331   3.847   3.733  17.778  1.6870  3.2627 -2.1182
 1712TIP3    H229332   3.847   3.624  17.673 -2.4323 -1.3949  2.1424
 1713TIP3   OH229333   6.969   4.735  16.182  0.6234 -0.1679 -0.0473
 1713TIP3    H129334   6.900   4.801  16.189  0.6700 -0.1459  0.2415
 1713TIP3    H229335   6.925   4.657  16.147  0.7251  0.2427 -1.0947
 1714TIP3   OH229336   1.904   5.744  16.905  0.5377 -0.0765  0.6814
 1714TIP3    H129337   1.930   5.685  16.976 -1.2402  0.2181  1.6520
 1714TIP3    H229338   1.977   5.805  16.896  1.2817 -0.8273  1.4738
 1715TIP3   OH229339   7.750   0.351  15.755 -0.2568 -0.2006  0.3993
 1715TIP3    H129340   7.744   0.444  15.774  1.2203 -0.0370  0.1522
 1715TIP3    H229341   7.782   0.311  15.837  0.2479 -0.3189  0.1495
 1716TIP3   OH229342   4.137   3.972  18.052 -0.5098 -0.0526 -0.1187
 1716TIP3    H129343   4.159   4.036  17.984 -0.5677 -0.5067 -0.5738
 1716TIP3    H229344   4.214   3.917  18.059 -0.7342 -0.3876 -0.2615
 1717TIP3   OH229345   5.722   0.568  17.581  0.3603 -0.9439 -0.5155
 1717TIP3    H129346   5.778   0.644  17.591  1.3733 -1.7256 -0.0237
 1717TIP3    H229347   5.753   0.525  17.502 -0.4299 -0.6807 -0.9822
 1718TIP3   OH229348   1.725   3.746  17.460 -0.1673  0.0205  0.1711
 1718TIP3    H129349   1.684   3.687  17.524  1.0608 -1.5109 -0.3889
 1718TIP3    H229350   1.720   3.832  17.501  1.1813 -0.9882  2.7005
 1719TIP3   OH229351   6.327   3.382  17.154  0.0411 -0.2158 -0.3408
 1719TIP3    H129352   6.420   3.388  17.132 -0.4164  1.1739 -2.1480
 1719TIP3    H229353   6.296   3.473  17.155 -0.7955 -0.4247  2.8444
 1720TIP3   OH229354   2.078   3.671  16.278 -0.0426 -0.2002 -0.2648
 1720TIP3    H129355   2.066   3.606  16.208 -1.0138  1.5265 -1.8129
 1720TIP3    H229356   2.119   3.746  16.234 -0.8247  1.0042  0.9788
 1721TIP3   OH229357   3.522   2.505  17.762 -0.3875 -0.0128 -0.0566
 1721TIP3    H129358   3.466   2.566  17.810 -0.2118 -0.0182  0.1546
 1721TIP3    H229359   3.475   2.490  17.679  0.3775  1.7167 -0.8472
 1722TIP3   OH229360   6.753   5.366  17.723 -0.0152 -0.0304  0.1435
 1722TIP3    H129361   6.697   5.437  17.754  1.2813  1.3996 -0.6216
 1722TIP3    H229362   6.837   5.381  17.766  0.3407 -0.9813 -0.1905
 1723TIP3   OH229363   7.764   7.314  16.565  0.3468 -0.0261  0.6410
 1723TIP3    H129364   7.847   7.286  16.527  0.5166  1.6091 -0.2726
 1723TIP3    H229365   7.725   7.371  16.499 -1.2060 -0.2379  1.3301
 1724TIP3   OH229366   7.407   3.259  15.968  0.5696  0.0584 -0.1019
 1724TIP3    H129367   7.416   3.308  16.049  0.7872 -0.6486  0.3136
 1724TIP3    H229368   7.325   3.289  15.930 -1.7240 -2.4439  2.4066
 1725TIP3   OH229369   7.536   0.507  16.730  1.0481  0.7684  0.1268
 1725TIP3    H129370   7.536   0.594  16.769  2.1089  0.4051  0.9818
 1725TIP3    H229371   7.533   0.524  16.635 -2.3827  1.6327  0.2684
 1726TIP3   OH229372   7.928   7.513  17.561 -0.3182  0.6094 -1.3664
 1726TIP3    H129373   7.926   7.461  17.480 -0.3994 -0.6212 -0.5988
 1726TIP3    H229374   7.959   7.452  17.628 -0.6242  1.5045 -0.3841
 1727TIP3   OH229375   8.374   6.513  16.994 -0.2972 -0.1310  0.1873
 1727TIP3    H129376   8.448   6.541  16.940 -0.1629  0.2951  0.5894
 1727TIP3    H229377   8.391   6.420  17.011  0.0540 -0.0782  0.1277
 1728TIP3   OH229378   4.139   1.744  17.273  1.1115 -0.3914  0.7649
 1728TIP3    H129379   4.164   1.652  17.274 -1.7390 -1.3349 -1.5404
 1728TIP3    H229380   4.068   1.750  17.338  1.5912  0.2952  1.2373
 1729TIP3   OH229381   6.161   0.055  17.199 -0.0142 -0.0376  0.7371
 1729TIP3    H129382   6.178  -0.034  17.170 -1.8022  0.0131 -0.6588
 1729TIP3    H229383   6.076   0.077  17.161  1.5298  3.2541 -1.3168
 1730TIP3   OH229384   7.746   6.553  17.719  0.0471  0.3664  0.0121
 1730TIP3    H129385   7.680   6.610  17.758 -0.5242 -0.1406 -0.2147
 1730TIP3    H229386   7.729   6.557  17.625  0.8675  0.8892 -0.1290
 1731TIP3   OH229387   1.900   0.988  16.096 -0.1932  0.5925  0.6595
 1731TIP3    H129388   1.827   0.939  16.134 -0.6818  1.6962  1.1952
 1731TIP3    H229389   1.951   1.017  16.172 -0.1724  1.2972  0.3862
 1732TIP3   OH229390   7.577   3.737  16.513 -0.0577  0.1579  0.2818
 1732TIP3    H129391   7.637   3.703  16.579  0.3810  1.5709  0.6385
 1732TIP3    H229392   7.631   3.792  16.456 -0.9739  1.3963  0.5700
 1733TIP3   OH229393   1.227   8.213  15.495  0.0858 -0.0324 -0.5207
 1733TIP3    H129394   1.214   8.246  15.583  0.8435  1.0872 -0.8090
 1733TIP3    H229395   1.314   8.245  15.470 -1.5834  3.0471 -3.1268
 1734TIP3   OH229396   6.573   5.865  16.414 -0.1476  0.1253  0.2324
 1734TIP3    H129397   6.544   5.774  16.411  0.3927 -0.0628  0.6495
 1734TIP3    H229398   6.664   5.861  16.441  1.1000  0.5567 -3.3433
 1735TIP3   OH229399   5.533   4.360  17.362  0.0611  0.1944  0.0947
 1735TIP3    H129400   5.458   4.404  17.321  0.4777  0.1845 -0.7029
 1735TIP3    H229401   5.536   4.274  17.320  0.3408  0.0849  0.3385
 1736TIP3   OH229402   5.840   3.393  17.352  0.4505 -0.0000 -0.0443
 1736TIP3    H129403   5.862   3.303  17.330 -1.5130 -0.2688 -1.1082
 1736TIP3    H229404   5.908   3.445  17.311  1.1146 -0.9461 -0.1750
 1737TIP3   OH229405   3.422   0.499  15.351  0.2005  0.2356 -0.1793
 1737TIP3    H129406   3.446   0.521  15.441 -0.0956 -0.8646  0.1824
 1737TIP3    H229407   3.431   0.581  15.303 -1.5861  1.3430  1.2541
 1738TIP3   OH229408   1.110   2.111  15.334  0.4437 -0.4379 -0.2921
 1738TIP3    H129409   1.035   2.098  15.276  0.3088 -0.3738 -0.1329
 1738TIP3    H229410   1.182   2.135  15.275  0.8190 -2.2986 -0.6526
 1739TIP3   OH229411   7.577   5.656  17.112  0.2296  0.0334  0.0540
 1739TIP3    H129412   7.603   5.730  17.058  1.2843 -0.0560  0.4136
 1739TIP3    H229413   7.623   5.669  17.195 -0.5357 -0.3860  0.5518
 1740TIP3   OH229414   2.387   1.240  16.248  0.2489 -0.3615  0.4456
 1740TIP3    H129415   2.326   1.188  16.196  0.5689 -1.6104  1.2889
 1740TIP3    H229416   2.434   1.293  16.183  0.3046 -1.5278 -0.4972
 1741TIP3   OH229417   3.551   2.675  16.129 -0.0049  0.6903  0.0438
 1741TIP3    H129418   3.583   2.760  16.158 -0.4886  0.6297  0.7740
 1741TIP3    H229419   3.630   2.623  16.115  0.2824  1.1836 -0.1736
 1742TIP3   OH229420   1.118   8.269  15.735 -0.0133 -0.1339 -0.2081
 1742TIP3    H129421   1.053   8.337  15.717 -0.6744 -0.4132  0.9884
 1742TIP3    H229422   1.067   8.190  15.751  0.5040 -0.1153  1.8555
 1743TIP3   OH229423   2.669   4.959  16.811 -0.3482  0.6198 -0.3818
 1743TIP3    H129424   2.712   4.879  16.840  2.3043  0.3223 -4.3922
 1743TIP3    H229425   2.584   4.930  16.776 -0.5635  0.0202  0.6092
 1744TIP3   OH229426   0.819   0.133  15.928  0.2843 -0.5471  0.6790
 1744TIP3    H129427   0.849   0.189  15.856 -0.8789  1.1459  1.4552
 1744TIP3    H229428   0.760   0.188  15.979 -1.2044 -2.5949  1.3073
 1745TIP3   OH229429   2.746   6.029  15.809 -0.5470  0.3658  0.0754
 1745TIP3    H129430   2.780   6.056  15.724  0.0998  0.6016  0.4027
 1745TIP3    H229431   2.677   5.966  15.788 -1.1356  1.2249 -0.6589
 1746TIP3   OH229432   6.240   6.607  18.054  0.4437 -0.2788 -0.8294
 1746TIP3    H129433   6.219   6.660  18.131 -0.5484  0.8041 -1.8070
 1746TIP3    H229434   6.293   6.663  17.999  0.3385 -0.6951 -1.3709
 1747TIP3   OH229435   0.250   4.588  17.464 -0.1057  0.4258  0.1526
 1747TIP3    H129436   0.267   4.594  17.558 -0.5649 -0.9470  0.3409
 1747TIP3    H229437   0.216   4.500  17.451  0.1155  0.5306 -1.3361
 1748TIP3   OH229438   7.015   0.544  17.676  0.4957 -0.2102 -0.8594
 1748TIP3    H129439   7.030   0.634  17.705 -0.4387 -0.6221  1.0394
 1748TIP3    H229440   7.097   0.519  17.633  0.9011  1.4063 -1.1269
 1749TIP3   OH229441   8.237   8.240  17.970  0.4520  0.0778 -0.7386
 1749TIP3    H129442   8.225   8.312  17.908 -1.3537  1.0866  0.6983
 1749TIP3    H229443   8.156   8.190  17.964  0.4937 -0.1418  0.3937
 1750TIP3   OH229444   7.258   7.619  17.106  0.0448 -0.0440 -0.2439
 1750TIP3    H129445   7.287   7.701  17.146 -0.3096  0.6146 -1.2887
 1750TIP3    H229446   7.255   7.557  17.178  3.6203 -0.0769  0.0412
 1751TIP3   OH229447   6.805   0.982  16.398 -0.3071 -0.0853 -0.1114
 1751TIP3    H129448   6.895   1.013  16.384  0.1584 -1.5879 -0.6028
 1751TIP3    H229449   6.765   0.983  16.311 -0.1350 -1.2707 -0.2165
 1752TIP3   OH229450   4.074   7.749  17.529  0.5031  0.6113 -0.1610
 1752TIP3    H129451   4.152   7.756  17.474 -0.4142  0.1082 -1.5496
 1752TIP3    H229452   4.109   7.742  17.618  2.0052  1.5797 -0.6292
 1753TIP3   OH229453   7.968   3.517  16.636 -0.6560  0.1176  0.1496
 1753TIP3    H129454   7.964   3.514  16.540 -0.5915 -0.0977  0.1525
 1753TIP3    H229455   8.021   3.593  16.656  1.9444 -1.5177 -0.0464
 1754TIP3   OH229456   7.263   1.676  17.081 -0.3812 -0.0235 -0.1470
 1754TIP3    H129457   7.262   1.636  16.994 -0.6057 -0.8604  0.2327
 1754TIP3    H229458   7.351   1.710  17.091 -1.2243  3.2161 -2.0881
 1755TIP3   OH229459   7.813   4.318  17.363  0.0780 -0.3891 -0.4210
 1755TIP3    H129460   7.839   4.268  17.286  1.1713  0.7361 -0.8143
 1755TIP3    H229461   7.803   4.408  17.332 -1.8541 -0.3216  0.2690
 1756TIP3   OH229462   2.018   2.379  18.091 -0.0131 -0.3206  0.1736
 1756TIP3    H129463   2.092   2.439  18.089  1.2344 -1.8022 -1.6621
 1756TIP3    H229464   2.004   2.361  18.184  2.6564 -0.8205  0.5464
 1757TIP3   OH229465   7.566   7.568  17.038 -0.0293  0.4291 -0.1368
 1757TIP3    H129466   7.620   7.523  17.103 -1.8508 -1.0345  0.4675
 1757TIP3    H229467   7.477   7.565  17.074 -0.9849  0.2827 -2.3046
 1758TIP3   OH229468   6.568   6.029  15.635  0.4350 -0.1099 -0.3399
 1758TIP3    H129469   6.659   6.030  15.665  0.3178  1.6963  0.0722
 1758TIP3    H229470   6.533   6.115  15.660 -1.7323 -1.1582  0.5500
 1759TIP3   OH229471   5.114   2.303  17.336  0.1201 -0.0317  0.5762
 1759TIP3    H129472   5.032   2.281  17.381 -0.1013  0.0045  0.1945
 1759TIP3    H229473   5.179   2.244  17.376 -0.0868 -0.0510  0.8899
 1760TIP3   OH229474   8.408   4.208  16.627  0.6149  0.1735  0.7070
 1760TIP3    H129475   8.483   4.268  16.628  0.5675  0.2760 -0.6092
 1760TIP3    H229476   8.439   4.131  16.580 -0.9166  1.4064 -2.6332
 1761TIP3   OH229477   0.174   6.790  17.135 -0.0967  0.4341  0.2394
 1761TIP3    H129478   0.259   6.754  17.157 -0.8559 -1.5769  0.0720
 1761TIP3    H229479   0.113   6.745  17.194 -1.0824  1.7121  0.2420
 1762TIP3   OH229480   4.316   8.144  16.630  0.1650  0.3824 -0.2671
 1762TIP3    H129481   4.321   8.075  16.696 -0.1636  1.0877  0.5185
 1762TIP3    H229482   4.231   8.132  16.588 -0.3125  0.8747  0.5291
 1763TIP3   OH229483   3.272   1.336  16.303 -0.4464  0.0527 -0.4639
 1763TIP3    H129484   3.308   1.352  16.390  0.4779 -0.1207 -0.8075
 1763TIP3    H229485   3.345   1.301  16.252 -1.1134 -0.3678 -1.1613
 1764TIP3   OH229486   3.891   4.290  16.928 -0.4380 -0.4770  0.0443
 1764TIP3    H129487   3.889   4.272  17.022 -0.2771 -0.9370 -0.0334
 1764TIP3    H229488   3.853   4.377  16.918 -0.2103 -0.3180  0.5621
 1765TIP3   OH229489   1.104   1.963  17.986 -0.6510 -0.0526  0.1938
 1765TIP3    H129490   1.050   2.005  18.053  0.8460  0.0177  1.3940
 1765TIP3    H229491   1.143   2.036  17.938 -1.5063 -0.1047 -0.6152
 1766TIP3   OH229492   5.302   6.624  17.769 -0.4219  0.5803  0.4043
 1766TIP3    H129493   5.372   6.576  17.724 -0.5395 -0.1095  0.9430
 1766TIP3    H229494   5.338   6.712  17.782 -1.1990  1.5667 -3.0361
 1767TIP3   OH229495   2.496   6.479  14.959 -0.0715  0.4187  0.4211
 1767TIP3    H129496   2.590   6.488  14.948 -0.2473  0.4016 -1.2573
 1767TIP3    H229497   2.482   6.384  14.968 -0.0409  0.2952 -0.6861
 1768TIP3   OH229498   1.257   4.639  16.256 -0.1980 -0.0071  0.1062
 1768TIP3    H129499   1.337   4.635  16.204  1.1999  1.2386  2.0332
 1768TIP3    H229500   1.266   4.566  16.318 -0.7868 -0.1201  0.0651
 1769TIP3   OH229501   3.831   1.498  17.129  0.4317  0.3465  0.3870
 1769TIP3    H129502   3.810   1.432  17.195 -0.6384  0.3101  0.0292
 1769TIP3    H229503   3.805   1.458  17.046  1.2224  0.6212 -0.0046
 1770TIP3   OH229504   3.369   8.316  17.248  0.5601 -0.1088 -0.4427
 1770TIP3    H129505   3.293   8.258  17.255 -0.2719  1.0313  0.0346
 1770TIP3    H229506   3.367   8.347  17.158  0.7094 -0.3947 -0.5486
 1771TIP3   OH229507   0.944   7.241  15.565  0.4145  0.4015 -0.2974
 1771TIP3    H129508   0.858   7.209  15.538  0.1648  1.5516 -0.9305
 1771TIP3    H229509   0.978   7.286  15.488  2.6261 -2.0210 -0.8358
 1772TIP3   OH229510   8.127   5.914  16.287  0.2369 -0.1965 -0.1682
 1772TIP3    H129511   8.181   5.897  16.209 -1.1424  1.6559 -1.6276
 1772TIP3    H229512   8.086   5.999  16.270 -2.1454 -0.9212  1.4279
 1773TIP3   OH229513   5.288   5.142  17.329  0.0251  0.4272 -0.2821
 1773TIP3    H129514   5.241   5.078  17.276 -0.6168 -0.2728  1.0980
 1773TIP3    H229515   5.276   5.225  17.282 -0.6324 -0.1496 -1.1578
 1774TIP3   OH229516   3.298   1.636  16.518 -0.3256 -0.4488 -0.1069
 1774TIP3    H129517   3.223   1.585  16.487  0.1009  0.0292 -2.0486
 1774TIP3    H229518   3.275   1.727  16.498 -0.2874 -0.0196  1.6337
 1775TIP3   OH229519   6.923   5.985  17.945 -0.3663 -0.3435 -0.1844
 1775TIP3    H129520   6.947   5.921  17.878 -0.3583 -1.8312  1.1884
 1775TIP3    H229521   6.830   5.967  17.964 -0.4344  0.2148  0.0410
 1776TIP3   OH229522   6.621   5.645  17.191  0.1475  0.4310 -0.2205
 1776TIP3    H129523   6.570   5.649  17.271 -2.6766  1.2276 -1.9308
 1776TIP3    H229524   6.644   5.736  17.172 -0.9328  0.4931 -1.3138
 1777TIP3   OH229525   6.092   7.107  16.352 -0.2223 -0.0540 -0.0206
 1777TIP3    H129526   6.066   7.015  16.354 -2.0865  0.4386  0.4930
 1777TIP3    H229527   6.010   7.155  16.343  0.7629  1.5521 -0.9526
 1778TIP3   OH229528   5.729   0.677  16.729 -0.3223 -0.1399 -0.4140
 1778TIP3    H129529   5.758   0.698  16.818 -1.6556  1.0748 -0.2262
 1778TIP3    H229530   5.636   0.701  16.729 -0.3676 -0.2558 -2.1037
 1779TIP3   OH229531   5.001   8.426  16.620 -0.2668 -0.6245  0.6868
 1779TIP3    H129532   5.087   8.466  16.614 -0.6203  0.1065  0.3111
 1779TIP3    H229533   4.954   8.479  16.685  0.4487 -2.7325  3.1020
 1780TIP3   OH229534   2.975   5.962  15.409  0.1362  0.5681 -0.0827
 1780TIP3    H129535   2.941   5.947  15.321  2.1111 -2.0847 -0.5003
 1780TIP3    H229536   3.066   5.987  15.396  1.1035 -1.9626  1.1827
 1781TIP3   OH229537   5.160   5.670  17.196 -0.3186 -0.0819 -0.1605
 1781TIP3    H129538   5.110   5.687  17.275 -0.6561  0.1411 -0.4218
 1781TIP3    H229539   5.159   5.752  17.147 -1.8012 -0.7556 -1.3412
 1782TIP3   OH229540   2.186   2.592  18.054 -0.3800 -0.0249  0.3170
 1782TIP3    H129541   2.169   2.580  17.960 -1.0042 -0.0647  0.4330
 1782TIP3    H229542   2.261   2.653  18.057  0.5694 -1.1205 -0.2148
 1783TIP3   OH229543   7.149   4.137  17.339  0.5369  0.4023 -0.3190
 1783TIP3    H129544   7.146   4.194  17.416 -1.6307 -1.1382  0.8727
 1783TIP3    H229545   7.123   4.193  17.266 -0.8662  1.1329  0.6968
 1784TIP3   OH229546   8.202   0.434  16.235 -0.1063  0.0384 -0.6253
 1784TIP3    H129547   8.251   0.353  16.227  2.0609  1.2475 -0.4309
 1784TIP3    H229548   8.130   0.425  16.173  0.2694 -1.8775 -0.8368
 1785TIP3   OH229549   7.234   1.847  17.556  0.0551 -0.4322  0.4310
 1785TIP3    H129550   7.175   1.852  17.481 -0.6848  0.9531  1.0652
 1785TIP3    H229551   7.219   1.760  17.593 -1.1802 -0.3083  0.2591
 1786TIP3   OH229552   6.699   1.583  15.482 -0.1668  0.1601 -0.0125
 1786TIP3    H129553   6.780   1.634  15.485  0.2555 -0.5194  0.2761
 1786TIP3    H229554   6.692   1.543  15.569 -1.4887  1.2334  0.4213
 1787TIP3   OH229555   0.399   2.986  17.619  0.0326 -0.4110 -0.6180
 1787TIP3    H129556   0.479   3.037  17.602  0.1741 -1.0197 -1.8734
 1787TIP3    H229557   0.394   2.981  17.714  0.7999  0.7162 -0.4960
 1788TIP3   OH229558   5.665   2.583  16.843  0.0621 -0.2225 -0.0049
 1788TIP3    H129559   5.570   2.576  16.854  0.2757 -1.4488  1.4462
 1788TIP3    H229560   5.690   2.501  16.800  0.4169  0.2822 -0.7670
 1789TIP3   OH229561   2.517   5.132  16.064  0.3754 -0.3074 -0.0592
 1789TIP3    H129562   2.492   5.159  16.152 -1.2441 -3.4060  0.5926
 1789TIP3    H229563   2.592   5.073  16.078 -0.1856 -1.1820 -0.6681
 1790TIP3   OH229564   1.824   0.004  16.506 -0.7412  0.2437 -0.7588
 1790TIP3    H129565   1.760  -0.066  16.493  0.0911 -0.6074 -0.3176
 1790TIP3    H229566   1.909  -0.039  16.503 -0.2626  0.8082  1.9939
 1791TIP3   OH229567   3.326   4.173  17.175  0.2452 -0.7301  0.4464
 1791TIP3    H129568   3.342   4.081  17.156  0.8056 -0.2272 -1.7974
 1791TIP3    H229569   3.321   4.177  17.271 -0.4658 -3.1679  0.5930
 1792TIP3   OH229570   6.647   2.098  16.865  0.8950  0.6277  0.1322
 1792TIP3    H129571   6.686   2.174  16.909  1.0831  0.8525 -0.4241
 1792TIP3    H229572   6.597   2.054  16.934  0.4304  1.5008  0.3626
 1793TIP3   OH229573   8.106   0.373  18.198 -0.3917 -0.1820 -0.0453
 1793TIP3    H129574   8.034   0.363  18.259 -0.4111  0.5578  0.0689
 1793TIP3    H229575   8.110   0.467  18.181  0.2033 -0.2740 -0.4632
 1794TIP3   OH229576   2.387   8.257  16.441 -0.0026  0.6321 -0.2017
 1794TIP3    H129577   2.418   8.243  16.530  1.4045  2.8223 -0.2827
 1794TIP3    H229578   2.398   8.172  16.398 -0.0998 -0.2773  1.5046
 1795TIP3   OH229579   8.191   3.331  16.893  0.5177  0.6934  0.0366
 1795TIP3    H129580   8.164   3.246  16.858 -0.1131  0.5854  0.7697
 1795TIP3    H229581   8.287   3.330  16.887  0.4617  0.4310 -1.0777
 1796TIP3   OH229582   0.662   7.470  16.297 -0.5975 -0.2360 -0.0233
 1796TIP3    H129583   0.621   7.556  16.295  0.4313  0.2691 -0.1966
 1796TIP3    H229584   0.709   7.468  16.381  2.2319  0.7879 -1.4523
 1797TIP3   OH229585   6.674   3.426  16.377 -0.9773 -0.7484  0.4229
 1797TIP3    H129586   6.678   3.380  16.294  0.3162 -0.1711  0.1375
 1797TIP3    H229587   6.629   3.508  16.357  0.2842 -0.1246  0.0179
 1798TIP3   OH229588   3.439   7.253  16.365 -0.3166 -0.6464 -0.4246
 1798TIP3    H129589   3.518   7.302  16.388 -0.5506 -0.8008  0.7699
 1798TIP3    H229590   3.392   7.312  16.305 -0.0956  0.1597  0.1721
 1799TIP3   OH229591   0.482   0.081  15.606 -0.5216 -0.4458 -0.6047
 1799TIP3    H129592   0.505   0.148  15.670  0.0026 -0.1866 -1.0502
 1799TIP3    H229593   0.563   0.066  15.557 -0.5155 -1.7232 -0.2335
 1800TIP3   OH229594   1.858   3.030  17.942 -0.0358 -0.4877  0.0318
 1800TIP3    H129595   1.923   3.089  17.981  0.0459 -0.2731 -0.4295
 1800TIP3    H229596   1.774   3.063  17.972 -0.0242  0.1978 -0.6757
 1801TIP3   OH229597   4.089   8.035  16.551 -0.0448  0.3298 -0.2048
 1801TIP3    H129598   4.084   8.130  16.559 -0.0942  0.2122  1.6628
 1801TIP3    H229599   4.003   8.009  16.516 -0.0262  0.9607 -0.7338
 1802TIP3   OH229600   4.730   2.963  16.393 -0.0842  0.9299  0.4913
 1802TIP3    H129601   4.819   2.932  16.377 -0.7145 -0.4586 -0.5341
 1802TIP3    H229602   4.697   2.905  16.461 -1.1485 -0.5205 -1.1739
 1803TIP3   OH229603   7.657   3.236  17.272 -0.1277 -0.1368  0.3978
 1803TIP3    H129604   7.645   3.322  17.313 -1.0389  0.2491 -0.6179
 1803TIP3    H229605   7.704   3.184  17.338  1.6096  1.5159  0.5587
 1804TIP3   OH229606   8.019   7.390  17.341  0.3614  0.3360  0.3746
 1804TIP3    H129607   8.067   7.309  17.325  0.5025  0.4801  0.0487
 1804TIP3    H229608   8.086   7.458  17.342  0.1879  0.5164  0.0928
 1805TIP3   OH229609   8.236   5.276  16.056 -0.3958 -0.0303 -0.0856
 1805TIP3    H129610   8.260   5.209  15.991  0.5237  0.3754 -0.1860
 1805TIP3    H229611   8.307   5.340  16.051 -1.0919  0.7802  0.2560
 1806TIP3   OH229612   4.335   1.605  15.845  0.5422 -0.1122 -0.3542
 1806TIP3    H129613   4.298   1.524  15.809 -1.6362  0.2822  0.8356
 1806TIP3    H229614   4.314   1.600  15.939  2.3181  0.8483  0.1415
 1807TIP3   OH229615   2.416   4.822  17.276 -1.0875  0.2702 -0.0220
 1807TIP3    H129616   2.425   4.917  17.279  0.3573  0.1503  0.4196
 1807TIP3    H229617   2.335   4.803  17.324 -1.0742  1.2447  0.3965
 1808TIP3   OH229618   4.217   0.483  17.783  0.3430  0.1816  0.1163
 1808TIP3    H129619   4.287   0.466  17.846  0.2521  1.9364  0.7237
 1808TIP3    H229620   4.234   0.571  17.750 -1.1211  0.3344 -0.3168
 1809TIP3   OH229621   0.218   1.413  17.658 -0.0453  0.1437  0.1672
 1809TIP3    H129622   0.248   1.410  17.567  1.2248  0.5643  0.5449
 1809TIP3    H229623   0.141   1.469  17.656 -1.3906 -1.6191 -0.9767
 1810TIP3   OH229624   2.580   8.201  15.508  0.1698  0.7491 -0.0761
 1810TIP3    H129625   2.599   8.286  15.546 -0.1671  1.1807 -0.8470
 1810TIP3    H229626   2.485   8.197  15.504  0.1722  0.1412  0.3799
 1811TIP3   OH229627   1.984   7.808  15.857 -0.2476 -0.6441  0.1588
 1811TIP3    H129628   1.949   7.726  15.891  0.8199 -0.3376  2.0893
 1811TIP3    H229629   1.960   7.807  15.764 -1.2403 -2.5915  0.3897
 1812TIP3   OH229630   0.470   5.299  17.366 -0.3883 -0.4634 -0.6822
 1812TIP3    H129631   0.424   5.366  17.316 -2.5840 -1.5275 -0.1915
 1812TIP3    H229632   0.521   5.349  17.430  0.1440  0.7984 -2.0284
 1813TIP3   OH229633   6.722   5.097  17.133  0.5972  0.4674  0.4306
 1813TIP3    H129634   6.705   5.050  17.052  1.8439  0.6810  0.0310
 1813TIP3    H229635   6.641   5.146  17.150 -0.3329 -0.9855  0.3073
 1814TIP3   OH229636   2.686   1.984  15.489 -0.6656  0.0801 -0.1230
 1814TIP3    H129637   2.729   2.067  15.467  1.4323  0.2740  3.7801
 1814TIP3    H229638   2.758   1.921  15.493 -2.1371 -1.8815 -2.3428
 1815TIP3   OH229639   3.802   1.754  17.236  0.2383 -0.5125  0.2213
 1815TIP3    H129640   3.807   1.659  17.228  0.2694 -0.5638  0.7673
 1815TIP3    H229641   3.743   1.769  17.310 -1.0992 -0.0727 -0.8850
 1816TIP3   OH229642   1.745   7.618  16.578  0.1401 -0.3194  0.2048
 1816TIP3    H129643   1.781   7.538  16.615 -0.0043 -0.7606 -0.5840
 1816TIP3    H229644   1.697   7.589  16.500 -0.3703  0.4697  0.2122
 1817TIP3   OH229645   4.140   3.312  17.089  0.2477  0.1615  0.4305
 1817TIP3    H129646   4.181   3.274  17.167  1.2533 -1.1691 -0.6969
 1817TIP3    H229647   4.052   3.274  17.087  0.9204 -1.4554 -0.1670
 1818TIP3   OH229648   0.491   4.677  17.826  0.0597  0.0704  0.4279
 1818TIP3    H129649   0.571   4.730  17.822 -0.0934  0.2584 -0.4887
 1818TIP3    H229650   0.420   4.740  17.808 -0.3778  0.0473  1.9192
 1819TIP3   OH229651   6.569   0.094  17.716  0.0528  0.3337 -0.6049
 1819TIP3    H129652   6.475   0.110  17.711 -0.1069 -0.2723  0.2104
 1819TIP3    H229653   6.577   0.013  17.766  1.0537  1.0565  0.4616
 1820TIP3   OH229654   2.190   6.392  17.197  0.0320 -0.6991  0.0593
 1820TIP3    H129655   2.109   6.433  17.226 -0.4554 -1.5739 -0.0196
 1820TIP3    H229656   2.228   6.454  17.136  0.5981  0.7616  1.8153
 1821TIP3   OH229657   2.342   6.996  16.404  0.0238 -0.2516 -0.0246
 1821TIP3    H129658   2.316   7.071  16.351  0.6411  0.3075  0.4424
 1821TIP3    H229659   2.259   6.952  16.425 -0.5467  1.2834  1.1311
 1822TIP3   OH229660   1.739   7.168  17.178 -0.0266  0.2900  0.5553
 1822TIP3    H129661   1.723   7.187  17.271  0.1963  2.2730  0.2345
 1822TIP3    H229662   1.834   7.162  17.171 -0.0151  0.6294  0.3827
 1823TIP3   OH229663   1.375   5.751  17.259  0.0237  0.8161  0.0260
 1823TIP3    H129664   1.365   5.828  17.316 -0.9727  0.1876  0.7304
 1823TIP3    H229665   1.298   5.752  17.203 -0.6215 -0.3072  0.8503
 1824TIP3   OH229666   0.679   8.102  16.472  0.1025  1.1159  0.4207
 1824TIP3    H129667   0.717   8.173  16.524 -0.3746  0.9601  0.9974
 1824TIP3    H229668   0.585   8.123  16.469  0.4398  2.8002 -2.9910
 1825TIP3   OH229669   2.439   3.042  16.454 -0.2862 -0.4595  0.3912
 1825TIP3    H129670   2.377   3.095  16.404 -0.3312 -1.5460 -0.7464
 1825TIP3    H229671   2.436   2.957  16.412 -0.8520 -1.6561  2.6967
 1826TIP3   OH229672   2.338   3.969  16.834  0.2633 -0.0297  0.3864
 1826TIP3    H129673   2.420   3.936  16.871  1.0285  2.1282  0.7629
 1826TIP3    H229674   2.313   3.904  16.768  1.4196 -1.5287  1.3649
 1827TIP3   OH229675   4.510   4.603  16.453 -0.2912  0.1437  0.6026
 1827TIP3    H129676   4.526   4.617  16.359  0.7051  0.8576  0.8541
 1827TIP3    H229677   4.598   4.606  16.492 -0.8049  1.2279  1.7306
 1828TIP3   OH229678   1.504   6.317  17.576 -0.0292 -0.5400  0.3371
 1828TIP3    H129679   1.452   6.256  17.627  0.6077 -1.7043 -0.3608
 1828TIP3    H229680   1.587   6.325  17.623  0.2026 -0.8738 -0.0087
 1829TIP3   OH229681   1.901   6.944  16.386 -0.1034  0.4513 -0.1120
 1829TIP3    H129682   1.922   7.036  16.396 -2.2966  1.2160 -1.6151
 1829TIP3    H229683   1.856   6.939  16.301  0.3668 -2.0853 -0.3003
 1830TIP3   OH229684   4.643   2.762  16.153 -0.0993 -0.2940 -0.5641
 1830TIP3    H129685   4.615   2.694  16.092 -0.4187  1.0861 -2.0020
 1830TIP3    H229686   4.676   2.833  16.098  0.4243  0.6518  0.8982
 1831TIP3   OH229687   3.514   0.744  16.285 -0.4850  0.1448  0.1222
 1831TIP3    H129688   3.579   0.776  16.349 -0.3217  1.0565 -0.4795
 1831TIP3    H229689   3.499   0.819  16.228 -0.6085 -0.6706 -0.9359
 1832TIP3   OH229690   0.455   3.247  17.458  0.3165  0.0558  0.2546
 1832TIP3    H129691   0.529   3.186  17.458 -0.2724 -0.7492  2.2587
 1832TIP3    H229692   0.493   3.331  17.432  1.7677 -0.4950  0.4854
 1833TIP3   OH229693   6.119   0.144  16.208  0.2853 -0.5511  0.7131
 1833TIP3    H129694   6.178   0.132  16.133  1.1398  1.3617  1.0319
 1833TIP3    H229695   6.034   0.114  16.176  1.1723 -2.3832 -0.1038
 1834TIP3   OH229696   1.971   3.407  17.489  0.1013 -0.0649 -0.1869
 1834TIP3    H129697   2.056   3.364  17.474  0.8307  1.3527 -0.3176
 1834TIP3    H229698   1.938   3.425  17.401  0.6875  1.2867 -0.1448
 1835TIP3   OH229699   3.048   1.394  16.189  0.0558 -0.1976  0.2621
 1835TIP3    H129700   3.011   1.333  16.125  0.0726 -1.7736  1.7115
 1835TIP3    H229701   3.120   1.347  16.229 -0.8543  0.1526  2.4805
 1836TIP3   OH229702   2.502   1.425  16.050  0.1092 -0.0871 -0.4066
 1836TIP3    H129703   2.463   1.504  16.013  2.7812  1.0263 -1.0275
 1836TIP3    H229704   2.513   1.366  15.975 -0.2002 -0.3497 -0.2519
 1837TIP3   OH229705   3.946   4.068  16.001 -0.4053 -0.9808  0.3310
 1837TIP3    H129706   4.003   4.094  15.928  1.5940 -0.5169  1.9540
 1837TIP3    H229707   3.979   3.983  16.029  0.4478 -0.1348  2.1202
 1838TIP3   OH229708   6.039   5.371  17.227  0.2284 -0.1166 -0.5855
 1838TIP3    H129709   6.085   5.289  17.244  0.3821  0.0277 -0.3023
 1838TIP3    H229710   6.008   5.401  17.313 -3.0846 -1.7472 -1.0627
 1839TIP3   OH229711   5.089   0.384  17.573  0.4202 -0.1650  0.4373
 1839TIP3    H129712   5.101   0.445  17.645 -0.7976 -0.6782  1.1133
 1839TIP3    H229713   4.994   0.383  17.558  0.5967 -0.5081 -0.7881
 1840TIP3   OH229714   8.205   2.926  17.262  0.2723 -0.1023  0.3010
 1840TIP3    H129715   8.112   2.947  17.268 -0.0436  0.3432 -3.8286
 1840TIP3    H229716   8.249   2.994  17.313 -1.5622 -0.9567  3.2842
 1841TIP3   OH229717   0.146   5.585  17.140 -0.1295 -0.0784 -0.3975
 1841TIP3    H129718   0.125   5.673  17.108 -0.3688 -0.4551 -1.2971
 1841TIP3    H229719   0.134   5.591  17.235  1.3412  1.2769 -0.2434
 1842TIP3   OH229720   1.245   3.498  16.454  0.2959 -0.5611 -0.4928
 1842TIP3    H129721   1.174   3.459  16.403  1.4197 -0.1048 -2.4919
 1842TIP3    H229722   1.232   3.592  16.445  2.0344 -0.4330 -2.2879
 1843TIP3   OH229723   0.085   2.523  16.070  0.7142  0.1211  0.1816
 1843TIP3    H129724   0.007   2.535  16.015  0.4703  0.9500  0.6878
 1843TIP3    H229725   0.052   2.480  16.149  0.5268  1.5655  0.9270
 1844TIP3   OH229726   3.908   0.892  17.115  0.0450 -0.2424 -0.1488
 1844TIP3    H129727   3.969   0.833  17.070  0.4029 -0.4668  0.6080
 1844TIP3    H229728   3.965   0.955  17.159 -0.2120 -0.9761  1.2993
 1845TIP3   OH229729   0.030   8.105  17.928 -0.1859  0.1589  0.3073
 1845TIP3    H129730   0.095   8.171  17.905 -0.8837  0.3688 -1.1687
 1845TIP3    H229731  -0.050   8.154  17.947 -0.2591 -0.1667  0.8673
 1846TIP3   OH229732   0.974   6.645  16.120 -0.4362  0.3721  0.0332
 1846TIP3    H129733   0.925   6.727  16.132 -1.6127  0.0200 -1.8774
 1846TIP3    H229734   0.949   6.592  16.195 -0.8446  1.2202  0.5187
 1847TIP3   OH229735   7.365   7.663  17.568  0.4340  0.2350 -0.4551
 1847TIP3    H129736   7.409   7.598  17.513  0.0419 -0.5021  0.0969
 1847TIP3    H229737   7.272   7.644  17.558  0.3149  0.7408 -0.3249
 1848TIP3   OH229738   5.063   3.373  16.266 -0.6642 -0.6099 -0.0440
 1848TIP3    H129739   5.041   3.313  16.195 -3.9851 -0.3984  0.6485
 1848TIP3    H229740   5.030   3.458  16.236 -0.6847 -0.2043  1.1018
 1849TIP3   OH229741   0.562   0.851  16.887 -0.3505  0.2951 -0.4130
 1849TIP3    H129742   0.525   0.874  16.801 -0.8958  2.1750  0.2742
 1849TIP3    H229743   0.521   0.913  16.948  0.5001 -0.5903  1.1123
 1850TIP3   OH229744   1.312   7.445  17.866  0.2578  0.4786 -0.0292
 1850TIP3    H129745   1.239   7.446  17.927 -2.0115  0.3093 -2.5595
 1850TIP3    H229746   1.336   7.537  17.856  0.2735  0.5551  0.6639
 1851TIP3   OH229747   3.959   6.402  15.866 -0.0642  0.2725 -0.5000
 1851TIP3    H129748   3.897   6.341  15.827  1.2124 -0.3320 -1.6639
 1851TIP3    H229749   4.019   6.347  15.916 -1.0437  0.9440  1.4902
 1852TIP3   OH229750   1.852   1.338  17.835 -0.1053 -0.1066  0.1553
 1852TIP3    H129751   1.844   1.427  17.800  1.1573 -0.3724 -0.9175
 1852TIP3    H229752   1.937   1.337  17.879  0.3684 -1.0302 -0.7239
 1853TIP3   OH229753   1.146   6.025  17.760 -0.4037 -0.2240  0.2674
 1853TIP3    H129754   1.162   5.951  17.702  0.1955  1.2756 -1.5887
 1853TIP3    H229755   1.066   6.065  17.727  0.6987  1.4766 -0.4985
 1854TIP3   OH229756   2.719   1.676  17.805 -0.0437  0.6398  0.2564
 1854TIP3    H129757   2.634   1.636  17.790 -0.7747  2.2283 -0.0165
 1854TIP3    H229758   2.782   1.608  17.779 -1.1730 -0.9532  1.4701
 1855TIP3   OH229759   6.102   7.855  17.721  0.5123  0.1588  0.1807
 1855TIP3    H129760   6.063   7.843  17.808 -1.0634  0.9090 -0.3889
 1855TIP3    H229761   6.165   7.926  17.733 -1.2091  1.7598  0.3296
 1856TIP3   OH229762   3.476   2.006  17.673  0.7783  0.4183 -0.0359
 1856TIP3    H129763   3.524   2.088  17.688  0.1595  0.9443 -0.7930
 1856TIP3    H229764   3.424   1.994  17.752 -0.7014  1.9043 -0.7056
 1857TIP3   OH229765   1.029   1.046  17.605 -0.0240  0.1740  0.1532
 1857TIP3    H129766   1.109   1.070  17.652 -0.2697  1.2575  0.0617
 1857TIP3    H229767   1.000   1.128  17.565 -0.1603 -0.5958 -1.3955
 1858TIP3   OH229768   0.162   7.018  16.320  0.3136 -0.2409  0.1571
 1858TIP3    H129769   0.104   6.955  16.361 -0.2480  1.2364  1.7637
 1858TIP3    H229770   0.195   7.071  16.393  1.9464  0.3601 -0.9661
 1859TIP3   OH229771   3.150   7.731  16.246 -0.3083  0.0750  0.5436
 1859TIP3    H129772   3.089   7.745  16.174  1.0878 -1.4436 -1.0287
 1859TIP3    H229773   3.095   7.714  16.322 -1.8595 -0.8646 -0.7369
 1860TIP3   OH229774   6.940   5.272  17.491 -0.2765  0.6755 -0.8866
 1860TIP3    H129775   6.956   5.340  17.426 -2.1208  0.1610 -1.9623
 1860TIP3    H229776   6.892   5.317  17.561  0.6452  0.9764 -0.4418
 1861TIP3   OH229777   8.445   1.409  15.474  0.1800  0.0823 -0.2321
 1861TIP3    H129778   8.354   1.436  15.467  0.0681 -0.3092 -0.3362
 1861TIP3    H229779   8.496   1.489  15.460 -0.1380  0.2204 -0.5994
 1862TIP3   OH229780   3.475   2.663  18.023  0.3724  0.1576 -0.2283
 1862TIP3    H129781   3.559   2.628  18.053 -0.2081  0.4785  1.9404
 1862TIP3    H229782   3.499   2.738  17.967  1.5307  0.8044  1.0809
 1863TIP3   OH229783   4.882   2.508  17.620 -0.4172  0.0115 -0.1176
 1863TIP3    H129784   4.790   2.492  17.597  0.3831 -2.3165 -2.0771
 1863TIP3    H229785   4.903   2.438  17.682  0.6029 -0.9306 -1.4632
 1864TIP3   OH229786   6.495   5.837  17.790  0.1542  0.0124 -0.3000
 1864TIP3    H129787   6.488   5.905  17.857  0.6338 -0.3044  0.0788
 1864TIP3    H229788   6.556   5.873  17.725 -0.8285  0.5992 -0.9240
 1865TIP3   OH229789   6.938   0.282  16.742  0.1486  0.8495  0.3449
 1865TIP3    H129790   7.032   0.288  16.727 -0.1215 -0.1213 -2.3033
 1865TIP3    H229791   6.921   0.188  16.752 -0.6204  0.9541  0.0969
 1866TIP3   OH229792   5.267   7.768  17.351  0.1373  0.7247 -0.2176
 1866TIP3    H129793   5.263   7.767  17.446  3.3586 -0.2361  0.0254
 1866TIP3    H229794   5.290   7.858  17.329 -1.3940  1.1438 -0.1900
 1867TIP3   OH229795   4.618   5.032  17.427  0.5054 -0.7882  0.7009
 1867TIP3    H129796   4.711   5.025  17.408  0.8027  0.4571  1.5429
 1867TIP3    H229797   4.590   4.943  17.447  1.6011 -1.1227  0.7769
 1868TIP3   OH229798   3.565   2.453  16.523 -0.7522 -0.2464 -0.2823
 1868TIP3    H129799   3.625   2.427  16.453 -0.6211 -0.5389 -0.0654
 1868TIP3    H229800   3.482   2.472  16.479 -1.3589 -2.6264 -0.3200
 1869TIP3   OH229801   5.894   3.076  16.169 -0.1786 -0.2925  0.6116
 1869TIP3    H129802   5.954   3.149  16.180  1.4497 -1.6285  1.1102
 1869TIP3    H229803   5.947   3.006  16.130 -2.2346 -0.5053 -2.1656
 1870TIP3   OH229804   3.701   1.935  17.902 -0.2612  0.4252  0.3359
 1870TIP3    H129805   3.789   1.906  17.922 -1.0468 -1.3318  1.4847
 1870TIP3    H229806   3.659   1.859  17.861 -1.8206  0.4796  1.6893
 1871TIP3   OH229807   8.077   2.844  18.069  0.2606  0.1981  0.4434
 1871TIP3    H129808   8.088   2.837  18.164  1.5079  0.2387  0.3119
 1871TIP3    H229809   8.097   2.935  18.049 -2.1021  0.7716  0.3752
 1872TIP3   OH229810   4.111   4.068  17.389 -0.0935  0.7602  0.0707
 1872TIP3    H129811   4.191   4.018  17.373 -0.8177  0.1662 -2.2007
 1872TIP3    H229812   4.139   4.146  17.436  1.6333  0.0269  0.3054
 1873TIP3   OH229813   0.776   6.733  16.674 -0.0423  0.0987  0.0171
 1873TIP3    H129814   0.721   6.759  16.599 -0.1033  0.6105  0.2369
 1873TIP3    H229815   0.726   6.663  16.717  0.2073 -0.5267 -0.6853
 1874TIP3   OH229816   0.011   0.529  16.622  0.6065  0.0028 -0.4284
 1874TIP3    H129817   0.058   0.492  16.696 -1.7407 -0.9071  0.7138
 1874TIP3    H229818  -0.015   0.616  16.650 -1.0058 -0.6439  0.2471
 1875TIP3   OH229819   4.822   4.617  17.435  0.0440  0.4294 -0.3165
 1875TIP3    H129820   4.840   4.632  17.342 -0.2608  0.9004 -0.3022
 1875TIP3    H229821   4.873   4.685  17.480  1.4611 -0.7612 -0.0309
 1876TIP3   OH229822   2.156   7.446  16.343 -0.1754  0.2829 -0.0751
 1876TIP3    H129823   2.132   7.497  16.420 -0.6628  0.3478 -0.2647
 1876TIP3    H229824   2.182   7.511  16.278 -0.7130  0.2910 -0.2882
 1877TIP3   OH229825   1.547   4.898  15.930  0.2467  0.1372 -0.2177
 1877TIP3    H129826   1.473   4.946  15.968  0.3619  1.5126 -1.6294
 1877TIP3    H229827   1.507   4.823  15.887 -0.5252  1.5328 -2.0333
 1878TIP3   OH229828   0.892   7.081  17.257 -0.3513 -0.1934 -1.1352
 1878TIP3    H129829   0.826   7.012  17.260 -1.3588  0.6837  2.2174
 1878TIP3    H229830   0.974   7.037  17.280 -1.2497 -0.2716  2.6734
 1879TIP3   OH229831   7.292   7.843  17.307 -0.3738  0.0663  0.0071
 1879TIP3    H129832   7.309   7.818  17.398  2.2512 -0.1008 -0.4401
 1879TIP3    H229833   7.280   7.938  17.310 -0.6000  0.0273  0.5466
 1880TIP3   OH229834   3.718   7.839  17.106 -0.4957  0.4754  0.5453
 1880TIP3    H129835   3.651   7.833  17.175 -1.3547  2.5594 -0.0354
 1880TIP3    H229836   3.674   7.883  17.034  1.3923  1.5208 -0.0332
 1881TIP3   OH229837   6.831   7.899  16.276 -0.4529 -0.8840 -0.5592
 1881TIP3    H129838   6.806   7.815  16.315 -0.7262 -1.3136 -1.6224
 1881TIP3    H229839   6.926   7.903  16.288 -0.3014 -1.7906 -1.3215
 1882TIP3   OH229840   6.136   5.476  16.425  0.0656  0.1958  0.1940
 1882TIP3    H129841   6.131   5.459  16.520  0.2367  0.7701  0.3050
 1882TIP3    H229842   6.160   5.568  16.418  0.2277  0.1099 -0.4128
 1883TIP3   OH229843   0.082   1.810  15.870  0.1748 -0.0016  0.7026
 1883TIP3    H129844   0.150   1.877  15.883 -0.0591  0.6047 -0.9938
 1883TIP3    H229845   0.004   1.846  15.912  0.5118 -0.0711  1.4165
 1884TIP3   OH229846   0.910   0.128  16.983  0.6911  0.0046 -0.4569
 1884TIP3    H129847   0.871   0.190  16.922  2.0798 -1.2927 -2.7907
 1884TIP3    H229848   0.964   0.182  17.041  1.3960  1.0735 -2.0410
 1885TIP3   OH229849   3.290   2.147  15.651  0.1014  0.5118  1.2727
 1885TIP3    H129850   3.377   2.176  15.679  0.1330  1.7204  0.0099
 1885TIP3    H229851   3.235   2.226  15.656 -0.7057 -0.0245  1.1557
 1886TIP3   OH229852   7.316   6.930  17.818 -0.3054 -0.5838 -0.6476
 1886TIP3    H129853   7.338   6.865  17.884 -0.7212 -0.6453 -0.5660
 1886TIP3    H229854   7.290   6.878  17.741  0.6024 -0.5144 -1.0104
 1887TIP3   OH229855   1.823   7.827  17.225 -0.1024 -0.3059  0.6518
 1887TIP3    H129856   1.824   7.908  17.277  3.7994  1.1086 -1.2510
 1887TIP3    H229857   1.747   7.837  17.167 -0.1913  1.6061  1.0180
 1888TIP3   OH229858   4.246   1.904  16.165  0.1196  0.4651 -0.2148
 1888TIP3    H129859   4.205   1.881  16.248 -0.8061 -0.2786 -0.8546
 1888TIP3    H229860   4.338   1.883  16.176 -0.1817 -0.6552  0.2673
 1889TIP3   OH229861   0.763   3.714  17.833  0.5523  0.3978  0.0305
 1889TIP3    H129862   0.829   3.755  17.777  0.2184  0.0897 -0.5940
 1889TIP3    H229863   0.808   3.700  17.917  0.9242  1.2384 -0.0235
 1890TIP3   OH229864   4.295   6.027  16.570 -0.0288  0.2675 -0.5199
 1890TIP3    H129865   4.227   5.967  16.538 -0.2623  0.8731 -1.2106
 1890TIP3    H229866   4.320   5.992  16.655 -0.7513 -0.3355 -0.5408
 1891TIP3   OH229867   3.233   3.903  17.238 -0.1170 -0.8092 -0.6218
 1891TIP3    H129868   3.262   3.819  17.203  1.9462 -0.6358  0.4885
 1891TIP3    H229869   3.176   3.880  17.312 -2.2000 -1.1605 -2.2392
 1892TIP3   OH229870   1.173   5.326  16.292 -0.0542 -0.0622  0.2934
 1892TIP3    H129871   1.194   5.360  16.205 -0.0657 -1.9590 -0.5066
 1892TIP3    H229872   1.083   5.292  16.284  0.3915 -1.4124  0.6297
 1893TIP3   OH229873   5.900   1.377  17.123 -0.4652 -0.4568  0.2798
 1893TIP3    H129874   5.848   1.337  17.193 -0.1251  2.3129  2.3040
 1893TIP3    H229875   5.857   1.350  17.042 -1.8820 -2.4680  1.6117
 1894TIP3   OH229876   6.870   0.010  17.317  0.2628  0.4080  0.9181
 1894TIP3    H129877   6.869  -0.064  17.378 -3.9479  0.0724  0.7422
 1894TIP3    H229878   6.887   0.087  17.372  0.5858 -0.2796  1.7992
 1895TIP3   OH229879   2.236   0.897  16.200 -0.2982 -0.6157 -0.0048
 1895TIP3    H129880   2.205   0.974  16.153 -1.0907 -0.3555  0.9302
 1895TIP3    H229881   2.248   0.926  16.290 -0.8137 -1.6289  0.4094
 1896TIP3   OH229882   4.432   4.322  17.644 -0.0954 -0.4503 -0.4948
 1896TIP3    H129883   4.486   4.384  17.596 -1.0073 -0.0800 -1.0790
 1896TIP3    H229884   4.343   4.357  17.636 -0.3649 -0.7587  0.8869
 1897TIP3   OH229885   1.129   5.098  17.809  0.4900  0.7358 -0.0868
 1897TIP3    H129886   1.128   5.074  17.716 -0.7669 -1.2382  0.3541
 1897TIP3    H229887   1.214   5.138  17.823  2.0023 -1.7294 -1.4644
 1898TIP3   OH229888   1.163   6.614  17.326  0.4646 -0.1695  0.7529
 1898TIP3    H129889   1.222   6.669  17.276 -0.3492 -0.1828 -0.2387
 1898TIP3    H229890   1.118   6.561  17.261  0.2179 -1.0101  1.5877
 1899TIP3   OH229891   4.422   2.561  17.591  0.4547 -0.0937 -0.0141
 1899TIP3    H129892   4.396   2.652  17.576 -1.1191 -0.5959 -0.5137
 1899TIP3    H229893   4.339   2.513  17.595  1.3070 -1.8726 -2.0883
 1900TIP3   OH229894   7.199   8.174  16.443 -0.3968 -0.5932 -0.2118
 1900TIP3    H129895   7.213   8.134  16.357 -2.3451 -1.4246 -0.2158
 1900TIP3    H229896   7.107   8.201  16.441  0.0118  1.0075  0.9852
 1901TIP3   OH229897   5.490   4.452  16.695 -0.7375 -0.3920  0.4028
 1901TIP3    H129898   5.432   4.393  16.647 -0.1366 -1.3647  0.8480
 1901TIP3    H229899   5.536   4.500  16.626 -0.8877 -0.7835  0.0196
 1902TIP3   OH229900   7.612   5.822  18.019  0.5981  0.2563 -0.1794
 1902TIP3    H129901   7.656   5.816  17.934 -0.7697 -0.5888 -0.8722
 1902TIP3    H229902   7.683   5.818  18.083  1.6156  0.1914 -1.2618
 1903TIP3   OH229903   5.256   3.274  15.878  0.2641 -0.1350 -0.4570
 1903TIP3    H129904   5.315   3.199  15.885  1.1208  0.5226 -0.3287
 1903TIP3    H229905   5.306   3.347  15.917 -0.4447  0.5449 -0.7930
 1904TIP3   OH229906   0.390   4.788  17.305 -0.1909  0.5964 -0.9243
 1904TIP3    H129907   0.317   4.847  17.283 -1.4900 -0.7613 -0.3863
 1904TIP3    H229908   0.349   4.704  17.325  1.2571  0.4587  2.0756
 1905TIP3   OH229909   7.295   3.009  16.099 -0.0244 -0.2159  0.3062
 1905TIP3    H129910   7.383   3.002  16.062  0.0587  0.9483  0.2270
 1905TIP3    H229911   7.273   3.102  16.090 -1.2224 -0.4740  0.4233
 1906TIP3   OH229912   3.058   4.241  16.693  0.2301 -0.6349 -0.7465
 1906TIP3    H129913   3.101   4.278  16.769 -0.3691 -1.1954 -0.1194
 1906TIP3    H229914   2.995   4.178  16.729 -0.5554 -0.4060 -1.6613
 1907TIP3   OH229915   4.410   2.622  15.990  0.6207 -0.6733  0.1433
 1907TIP3    H129916   4.338   2.561  15.978  0.2591 -0.4429  1.0176
 1907TIP3    H229917   4.390   2.667  16.072  1.5819 -0.3587  0.2253
 1908TIP3   OH229918   8.097   4.680  16.557 -0.1329  0.0241  0.1188
 1908TIP3    H129919   8.140   4.595  16.568 -1.0117 -0.7748 -2.0489
 1908TIP3    H229920   8.127   4.732  16.631 -0.6458 -2.6138  2.3265
 1909TIP3   OH229921   0.289   2.749  16.282  0.3136  0.8605  0.1062
 1909TIP3    H129922   0.322   2.664  16.255  1.4091  1.0578  0.7674
 1909TIP3    H229923   0.335   2.768  16.364  0.3773  2.2553 -0.2227
 1910TIP3   OH229924   0.052   1.471  17.324  0.1270 -0.2613  0.0610
 1910TIP3    H129925   0.067   1.564  17.340 -3.0302  0.4025 -0.1630
 1910TIP3    H229926   0.101   1.452  17.244  1.2020  1.0669  0.3703
 1911TIP3   OH229927   5.019   2.035  17.199 -0.2861 -0.0205 -0.5907
 1911TIP3    H129928   5.064   2.063  17.279 -0.6771  0.2819 -0.4739
 1911TIP3    H229929   4.969   1.958  17.226 -1.7607  1.0543 -0.1075
 1912TIP3   OH229930   3.095   8.434  16.021 -0.0737  0.0984 -0.2577
 1912TIP3    H129931   3.068   8.499  15.956 -0.6511 -1.9159 -2.1218
 1912TIP3    H229932   3.020   8.374  16.027  1.1019 -1.3693  0.1374
 1913TIP3   OH229933   1.980   5.135  17.055 -0.1117  0.4700 -0.2230
 1913TIP3    H129934   1.956   5.114  17.145 -0.5387 -0.4442 -0.5385
 1913TIP3    H229935   2.066   5.177  17.062  0.2951 -0.4616  0.5310
 1914TIP3   OH229936   2.327   1.189  17.523  0.3460 -0.0824  0.1767
 1914TIP3    H129937   2.252   1.233  17.565  1.4382  0.9735  1.0837
 1914TIP3    H229938   2.306   1.096  17.530 -0.0374  0.0958  2.1535
 1915TIP3   OH229939   5.776   8.031  15.416 -0.2518  0.2040  0.3110
 1915TIP3    H129940   5.768   8.126  15.411  0.4117  0.2341 -0.3695
 1915TIP3    H229941   5.688   8.000  15.435 -0.9325  0.8211 -1.5813
 1916TIP3   OH229942   0.871   3.530  16.404  0.4176  0.2186 -0.1542
 1916TIP3    H129943   0.807   3.582  16.355 -2.2284 -1.2692  1.4691
 1916TIP3    H229944   0.939   3.508  16.340 -1.2358  0.9891 -2.2959
 1917TIP3   OH229945   3.818   7.792  16.107 -0.0961 -0.4884  0.5946
 1917TIP3    H129946   3.903   7.755  16.085 -0.1018  0.8132 -2.1007
 1917TIP3    H229947   3.838   7.873  16.154  0.1500 -0.3816  0.3075
 1918TIP3   OH229948   6.565   0.552  16.708 -0.1612 -0.0036 -0.3692
 1918TIP3    H129949   6.596   0.640  16.689  1.6798 -0.4395  0.3697
 1918TIP3    H229950   6.498   0.563  16.775 -0.0233  0.8320 -0.3631
 1919TIP3   OH229951   2.142   8.034  15.793  0.3488  0.7730 -0.1637
 1919TIP3    H129952   2.146   8.094  15.868 -2.8615  0.8180  0.1129
 1919TIP3    H229953   2.113   7.951  15.831  0.7185  0.2215 -1.0846
 1920TIP3   OH229954   3.951   8.026  16.231 -0.7869 -0.5919  0.2645
 1920TIP3    H129955   3.921   8.047  16.319  0.3320  3.2291 -0.0842
 1920TIP3    H229956   4.034   7.980  16.244 -0.8069 -0.3760  1.1925
 1921TIP3   OH229957   1.113   7.409  17.459  0.3112 -0.1895 -0.0052
 1921TIP3    H129958   1.053   7.335  17.449 -0.4122  0.6137 -2.2305
 1921TIP3    H229959   1.082   7.474  17.395  1.0280  1.9783  1.7242
 1922TIP3   OH229960   8.238   5.341  17.821  0.2065  0.2848  0.2513
 1922TIP3    H129961   8.152   5.379  17.837  0.5718  1.0156  0.5562
 1922TIP3    H229962   8.221   5.252  17.790 -0.7318  1.0925 -1.7046
 1923TIP3   OH229963   5.220   0.972  17.198 -0.1060 -0.0209 -0.6923
 1923TIP3    H129964   5.197   0.885  17.230 -2.2926  0.6261 -0.3635
 1923TIP3    H229965   5.276   1.009  17.266 -3.1752  0.6311  1.6908
 1924TIP3   OH229966   8.340   7.166  15.673 -0.3387  0.2089 -0.5314
 1924TIP3    H129967   8.318   7.117  15.752 -1.2214 -0.6740 -1.2964
 1924TIP3    H229968   8.382   7.246  15.705 -0.6022 -0.1653  0.8161
 1925TIP3   OH229969   1.428   0.025  16.732  0.1959 -0.1837  0.1674
 1925TIP3    H129970   1.482  -0.049  16.705  0.5387  0.0757  0.1301
 1925TIP3    H229971   1.370   0.041  16.657 -0.6910 -1.1514  0.6276
 1926TIP3   OH229972   3.703   1.191  17.943 -0.3166 -0.4085 -0.0120
 1926TIP3    H129973   3.747   1.271  17.914 -1.3533  0.1362 -0.1649
 1926TIP3    H229974   3.773   1.134  17.974  0.4302  0.6854  0.3808
 1927TIP3   OH229975   5.603   4.531  16.934  0.4598 -0.2997  0.4026
 1927TIP3    H129976   5.538   4.506  16.868 -0.6199  0.4219  1.1689
 1927TIP3    H229977   5.643   4.611  16.899  0.0102 -0.0150  0.5363
 1928TIP3   OH229978   5.699   7.809  16.353  0.1527 -0.0542 -0.0086
 1928TIP3    H129979   5.622   7.858  16.382  1.9099  2.4213  0.7465
 1928TIP3    H229980   5.755   7.804  16.431  0.9332 -1.5249 -0.6220
 1929TIP3   OH229981   3.100   5.257  15.675  0.4506 -0.2984  0.2872
 1929TIP3    H129982   3.125   5.165  15.666  1.2697 -0.4152  2.8833
 1929TIP3    H229983   3.183   5.305  15.672  0.1309  0.2560  0.0973
 1930TIP3   OH229984   3.684   2.405  17.169  0.2477 -0.2579  0.1448
 1930TIP3    H129985   3.599   2.438  17.139 -0.6045 -1.2464  1.3408
 1930TIP3    H229986   3.745   2.478  17.154 -0.9986  0.8251  0.1416
 1931TIP3   OH229987   6.455   8.066  17.012 -0.3746 -0.2066  0.6412
 1931TIP3    H129988   6.393   8.084  16.942 -1.9295  2.3300  2.4883
 1931TIP3    H229989   6.423   7.985  17.052 -0.3472 -0.8528 -0.6045
 1932TIP3   OH229990   2.356   4.550  16.921  0.4187 -0.3150 -0.1924
 1932TIP3    H129991   2.394   4.608  16.987 -2.4612  1.7229 -0.1520
 1932TIP3    H229992   2.419   4.550  16.849  2.3293 -0.3944  1.3802
 1933TIP3   OH229993   4.477   6.446  17.614 -0.0349  0.1662 -0.0190
 1933TIP3    H129994   4.496   6.539  17.620 -3.5058  1.1043 -1.1436
 1933TIP3    H229995   4.458   6.431  17.521  0.2365 -1.6272  0.1764
 1934TIP3   OH229996   1.717   5.195  15.895 -0.6725  0.5108 -0.0886
 1934TIP3    H129997   1.636   5.223  15.938 -2.1759  0.6903 -2.7893
 1934TIP3    H229998   1.763   5.277  15.877 -1.0612  0.6086 -0.6584
 1935TIP3   OH229999   6.014   6.254  16.502 -0.1721  0.0058 -0.2683
 1935TIP3    H130000   6.092   6.305  16.522 -0.2710  0.8969 -1.9512
 1935TIP3    H230001   5.942   6.317  16.506 -0.3163  0.0457 -2.2018
 1936TIP3   OH230002   1.933   2.992  17.610  0.3614  0.0278  0.0079
 1936TIP3    H130003   1.886   3.071  17.584 -1.2659 -1.3219 -1.4325
 1936TIP3    H230004   1.900   2.924  17.550  0.5433 -2.0824  2.1512
 1937TIP3   OH230005   5.105   2.586  16.375 -0.4498 -0.0678  0.0446
 1937TIP3    H130006   5.016   2.612  16.398 -0.3655 -1.0849  1.6508
 1937TIP3    H230007   5.103   2.579  16.279 -2.0143  0.2096  0.0264
 1938TIP3   OH230008   4.500   1.835  16.173 -0.2251 -0.2936 -0.5275
 1938TIP3    H130009   4.482   1.744  16.194  2.5505 -0.7440  0.3264
 1938TIP3    H230010   4.507   1.837  16.077 -0.1237 -1.0140 -0.5399
 1939TIP3   OH230011   3.384   0.238  15.656 -0.0808 -0.0519  0.0954
 1939TIP3    H130012   3.324   0.298  15.613 -0.3833 -0.0901  0.4562
 1939TIP3    H230013   3.364   0.153  15.616 -1.3093 -0.3408  1.2330
 1940TIP3   OH230014   2.275   6.220  15.597  0.2476  0.5466  0.2344
 1940TIP3    H130015   2.272   6.305  15.551  2.0451  1.4469  1.6621
 1940TIP3    H230016   2.367   6.194  15.593 -0.2232 -1.2256  0.0966
 1941TIP3   OH230017   0.056   6.531  15.534 -0.4325 -0.2705  0.3310
 1941TIP3    H130018   0.142   6.552  15.496 -0.7445  1.3118  0.4376
 1941TIP3    H230019  -0.007   6.571  15.474 -1.0740 -0.7404  0.6771
 1942TIP3   OH230020   6.951   2.330  16.443  0.0135  0.0012 -0.2419
 1942TIP3    H130021   6.963   2.235  16.449 -0.5672 -0.0946 -0.5508
 1942TIP3    H230022   6.997   2.355  16.363 -0.4030 -0.1195 -0.5218
 1943TIP3   OH230023   6.153   7.644  17.243  0.1444  0.1794  0.2347
 1943TIP3    H130024   6.241   7.617  17.268  0.0712 -0.9013 -0.5938
 1943TIP3    H230025   6.122   7.697  17.316  0.6885 -1.1773  1.4870
 1944TIP3   OH230026   2.902   5.678  16.176  0.0554  0.7116  0.1172
 1944TIP3    H130027   2.958   5.649  16.248 -1.5415 -0.0742  1.1281
 1944TIP3    H230028   2.907   5.607  16.111  0.0414  0.5100  0.3323
 1945TIP3   OH230029   1.096   1.540  16.769 -0.2002 -0.1426  0.4032
 1945TIP3    H130030   1.185   1.544  16.736 -1.1398  0.5720 -2.2628
 1945TIP3    H230031   1.106   1.528  16.864  2.7141  2.5940  0.5772
 1946TIP3   OH230032   2.461   2.174  17.296 -0.5588 -0.2857  0.3195
 1946TIP3    H130033   2.460   2.166  17.392  0.1942 -0.5348  0.3079
 1946TIP3    H230034   2.461   2.083  17.265 -1.7336 -0.2205  0.0574
 1947TIP3   OH230035   0.717   2.583  16.439  0.2881 -0.2941 -0.6440
 1947TIP3    H130036   0.717   2.576  16.344  1.2009  0.4860 -0.7100
 1947TIP3    H230037   0.708   2.676  16.456 -1.9935 -0.5780  0.0847
 1948TIP3   OH230038   4.894   6.405  17.084 -0.5850  0.4683 -0.8163
 1948TIP3    H130039   4.859   6.417  17.172 -0.9731  3.8393 -1.3005
 1948TIP3    H230040   4.989   6.400  17.096 -0.6761  0.2008 -0.1702
 1949TIP3   OH230041   6.102   2.267  16.586  0.2050  0.3191  0.7122
 1949TIP3    H130042   6.074   2.315  16.664  3.0156  1.1484  1.3010
 1949TIP3    H230043   6.089   2.328  16.514 -1.6784 -0.1832  0.5623
 1950TIP3   OH230044   1.104   2.208  16.871  0.4989 -0.0666  0.3934
 1950TIP3    H130045   1.068   2.182  16.956 -1.0739  2.1128  0.4987
 1950TIP3    H230046   1.027   2.233  16.819  1.5312  0.0184 -1.1751
 1951TIP3   OH230047   7.765   2.428  15.976 -0.5210  0.1073 -0.1147
 1951TIP3    H130048   7.741   2.397  15.889 -1.1630  0.7561 -0.1772
 1951TIP3    H230049   7.712   2.507  15.989 -0.6040 -0.1072  0.9562
 1952TIP3   OH230050   2.935   4.901  16.993  0.0526 -0.2671 -0.5593
 1952TIP3    H130051   3.012   4.921  17.045  0.4123  1.6163 -1.6917
 1952TIP3    H230052   2.865   4.887  17.057  0.8599  0.2118  0.4572
 1953TIP3   OH230053   4.705   5.282  15.894 -0.0324 -0.1001 -0.9355
 1953TIP3    H130054   4.610   5.279  15.893 -0.0809  0.8119 -0.4165
 1953TIP3    H230055   4.727   5.339  15.968  0.9479 -1.2779 -0.2766
 1954TIP3   OH230056   2.457   4.315  17.287 -0.1208 -0.3810 -0.6696
 1954TIP3    H130057   2.493   4.401  17.265  0.2721 -0.7234 -1.3888
 1954TIP3    H230058   2.377   4.334  17.335  1.2204  0.4418  1.4322
 1955TIP3   OH230059   5.660   1.168  17.554  0.1286 -0.1954  0.1733
 1955TIP3    H130060   5.618   1.085  17.532 -1.8745  0.9031 -0.4662
 1955TIP3    H230061   5.688   1.158  17.645  0.2375 -1.6690 -0.0010
 1956TIP3   OH230062   3.199   3.150  17.906  0.0780  0.5622 -0.4829
 1956TIP3    H130063   3.114   3.184  17.933 -0.2778 -0.5017 -0.1820
 1956TIP3    H230064   3.190   3.055  17.916  1.0848  0.3918 -1.0804
 1957TIP3   OH230065   3.920   2.244  17.505 -0.5849  0.3809  0.3706
 1957TIP3    H130066   3.926   2.301  17.582 -1.0932  0.6891  0.1927
 1957TIP3    H230067   3.911   2.156  17.541 -1.2021  0.5614  0.6748
 1958TIP3   OH230068   2.064   2.876  18.001  0.1860 -0.3970 -0.1737
 1958TIP3    H130069   2.048   2.789  18.037 -1.9830  0.1268  0.2789
 1958TIP3    H230070   1.977   2.913  17.987  1.0350  1.7871 -0.1606
 1959TIP3   OH230071   3.800   1.667  17.679  0.0609 -0.4930 -0.1024
 1959TIP3    H130072   3.789   1.595  17.617  1.9572 -3.1303  2.3794
 1959TIP3    H230073   3.710   1.691  17.704 -0.6293 -2.5523 -0.4320
 1960TIP3   OH230074   1.290   8.173  16.383 -0.0766 -0.2360 -0.3163
 1960TIP3    H130075   1.255   8.261  16.390  2.1195  0.6133  1.0020
 1960TIP3    H230076   1.296   8.141  16.473  0.6328 -1.0850 -0.6394
 1961TIP3   OH230077   7.452   3.059  17.524 -0.5965  0.5351 -0.4062
 1961TIP3    H130078   7.485   3.024  17.441  3.3868  0.0678  1.1645
 1961TIP3    H230079   7.409   2.985  17.566  2.3483 -0.9353  0.2407
 1962TIP3   OH230080   7.383   4.901  17.506 -0.3065 -0.1738 -0.1288
 1962TIP3    H130081   7.313   4.877  17.445  1.6040 -0.9814 -2.1446
 1962TIP3    H230082   7.420   4.818  17.535  0.2586  0.2401  0.3625
 1963TIP3   OH230083   7.393   1.115  15.672  0.2880 -0.5022  0.3318
 1963TIP3    H130084   7.362   1.199  15.706  0.2840 -0.4362  0.1672
 1963TIP3    H230085   7.321   1.082  15.619  0.8676  0.1496 -0.9118
 1964TIP3   OH230086   0.197   1.599  16.210 -0.2359 -0.0692  0.1716
 1964TIP3    H130087   0.232   1.597  16.121 -0.1993  0.2562  0.1755
 1964TIP3    H230088   0.111   1.639  16.201 -0.4588 -0.5401  0.2104
 1965TIP3   OH230089   1.577   1.873  15.836 -0.5511  0.0600 -0.2995
 1965TIP3    H130090   1.545   1.801  15.781 -2.2510  0.3697  0.2313
 1965TIP3    H230091   1.587   1.947  15.776 -0.2777 -0.1970 -0.5730
 1966TIP3   OH230092   2.100   4.166  17.840  0.2742  0.0631 -0.6481
 1966TIP3    H130093   2.035   4.113  17.793  1.9232 -0.4446 -2.4792
 1966TIP3    H230094   2.086   4.145  17.932 -0.5379 -1.9210 -1.1756
 1967TIP3   OH230095   3.438   6.783  17.075  0.3689  0.4489 -0.0480
 1967TIP3    H130096   3.407   6.695  17.095 -0.6938  0.1072 -2.7661
 1967TIP3    H230097   3.533   6.774  17.068  0.2207 -0.6253 -0.8718
 1968TIP3   OH230098   6.554   0.232  17.468 -0.1859 -0.9552  1.0806
 1968TIP3    H130099   6.564   0.141  17.496  0.1198 -0.6180  2.1254
 1968TIP3    H230100   6.630   0.276  17.506  1.3360 -0.7960 -1.8820
 1969TIP3   OH230101   3.631   6.548  17.371  0.1113  0.4439 -0.0145
 1969TIP3    H130102   3.547   6.568  17.413 -0.1987  1.4141 -1.0367
 1969TIP3    H230103   3.625   6.454  17.351 -0.9465  0.5886 -0.4782
 1970TIP3   OH230104   2.722   1.248  16.782  0.6255 -1.1041  0.1766
 1970TIP3    H130105   2.800   1.298  16.804  0.3707 -0.1822 -0.9361
 1970TIP3    H230106   2.670   1.249  16.863  0.1268  1.4130 -0.0944
 1971TIP3   OH230107   5.336   6.165  15.965 -0.1158 -0.7277 -0.1238
 1971TIP3    H130108   5.411   6.223  15.980 -1.1888  0.4298  1.0692
 1971TIP3    H230109   5.312   6.135  16.052 -1.6069 -0.3230 -0.3749
 1972TIP3   OH230110   6.799   3.400  17.535 -0.0874  0.1029 -0.3227
 1972TIP3    H130111   6.747   3.389  17.456  0.2699  2.6787 -1.0199
 1972TIP3    H230112   6.736   3.427  17.602 -0.3107 -1.5638  0.1783
 1973TIP3   OH230113   6.152   1.696  15.832  0.4014 -0.4272 -0.7021
 1973TIP3    H130114   6.203   1.621  15.802 -0.7571 -1.1570 -0.9139
 1973TIP3    H230115   6.063   1.662  15.844 -0.0698  0.8202 -0.4341
 1974TIP3   OH230116   4.060   0.079  15.950  0.2040 -0.0602  0.3917
 1974TIP3    H130117   3.986   0.126  15.988  0.3177  2.1891 -1.8626
 1974TIP3    H230118   4.132   0.094  16.011 -0.6422 -0.3028  1.4653
 1975TIP3   OH230119   2.810   2.136  17.854  0.5426  0.0721 -0.0646
 1975TIP3    H130120   2.786   2.086  17.776 -0.9471 -0.5404  0.7590
 1975TIP3    H230121   2.757   2.099  17.924  0.4793  1.8275  0.8786
 1976TIP3   OH230122   6.296   4.442  17.536 -0.1865 -0.2653  0.0298
 1976TIP3    H130123   6.234   4.503  17.495  1.5558  0.5237 -1.5848
 1976TIP3    H230124   6.247   4.361  17.545 -1.5271  0.3950 -0.9702
 1977TIP3   OH230125   2.387   7.054  17.101  0.5136 -0.5990 -0.7494
 1977TIP3    H130126   2.452   7.021  17.163 -1.0833 -1.7373  0.3912
 1977TIP3    H230127   2.355   6.976  17.056  0.6706  0.0675 -2.0644
 1978TIP3   OH230128   4.519   0.511  16.647 -0.3755  0.0692  0.0584
 1978TIP3    H130129   4.435   0.557  16.648 -0.4871 -0.1312 -0.1789
 1978TIP3    H230130   4.577   0.567  16.699 -0.2470  0.9755 -1.0269
 1979TIP3   OH230131   6.422   5.464  16.572 -0.2693 -0.5832 -0.0011
 1979TIP3    H130132   6.381   5.389  16.529  0.5570 -1.5382  0.8126
 1979TIP3    H230133   6.403   5.452  16.665 -0.4004  0.4053  0.1161
 1980TIP3   OH230134   5.586   5.236  16.222  0.2336  0.7206  0.2929
 1980TIP3    H130135   5.516   5.210  16.163 -0.7941  1.6266  1.0609
 1980TIP3    H230136   5.542   5.251  16.306  1.3348  1.3574  0.7781
 1981TIP3   OH230137   7.341   5.604  17.782  0.2048  0.5256 -0.1804
 1981TIP3    H130138   7.292   5.596  17.864 -0.3897 -0.1070 -0.5922
 1981TIP3    H230139   7.391   5.522  17.777 -1.7488 -0.6564 -1.7166
 1982TIP3   OH230140   5.754   6.001  16.877  0.0840  0.2925 -0.2769
 1982TIP3    H130141   5.730   5.957  16.796 -0.8875  1.3880 -0.6136
 1982TIP3    H230142   5.671   6.031  16.914  0.6585  1.3735  0.1916
 1983TIP3   OH230143   7.735   4.630  17.387  0.0794  0.4399 -0.5187
 1983TIP3    H130144   7.674   4.569  17.430  2.8201 -2.2587 -0.1004
 1983TIP3    H230145   7.759   4.692  17.455 -1.9622  1.4602 -0.6496
 1984TIP3   OH230146   8.362   7.999  16.745  0.3877  0.4252 -0.3964
 1984TIP3    H130147   8.353   7.961  16.832  0.0337 -0.3600 -0.7701
 1984TIP3    H230148   8.272   8.013  16.715  0.5098  0.9342 -0.5435
 1985TIP3   OH230149   1.879   4.331  16.857 -0.5626 -0.5591 -0.2051
 1985TIP3    H130150   1.855   4.377  16.776 -0.8611 -0.2112  0.0762
 1985TIP3    H230151   1.859   4.394  16.926  2.4471  0.3364 -0.0020
 1986TIP3   OH230152   0.846   7.760  17.094  0.4597  0.3558 -0.2897
 1986TIP3    H130153   0.927   7.804  17.066  0.9172 -0.1590  0.1973
 1986TIP3    H230154   0.778   7.798  17.039  0.7802  1.9080  0.3293
 1987TIP3   OH230155   5.486   5.557  16.837 -0.1735 -0.2613 -0.1517
 1987TIP3    H130156   5.528   5.640  16.816 -2.0694  0.7293 -0.1863
 1987TIP3    H230157   5.392   5.574  16.830 -0.6604 -2.0472  1.1910
 1988TIP3   OH230158   5.571   3.983  16.840  0.2644 -0.4961 -0.4504
 1988TIP3    H130159   5.579   3.910  16.902  0.8201  0.2607  0.3926
 1988TIP3    H230160   5.660   3.998  16.810 -0.2924 -2.6541 -3.6346
 1989TIP3   OH230161   3.777   7.103  16.797 -0.1201 -0.2063  0.2634
 1989TIP3    H130162   3.851   7.156  16.768 -0.0878  0.2833  1.2144
 1989TIP3    H230163   3.806   7.063  16.879 -0.7677 -0.3066  0.4489
 1990TIP3   OH230164   0.842   1.933  15.639 -0.0520  0.1309 -0.6371
 1990TIP3    H130165   0.827   1.869  15.570 -1.0698 -0.0026 -0.3125
 1990TIP3    H230166   0.912   1.989  15.606 -1.0090  0.5119 -2.0996
 1991TIP3   OH230167   5.965   6.948  17.383 -0.1371 -0.1202 -0.2908
 1991TIP3    H130168   5.913   6.941  17.302  0.9243 -0.3140 -0.9739
 1991TIP3    H230169   5.970   6.858  17.415  2.0884 -0.6006 -1.7504
 1992TIP3   OH230170   0.470   6.905  16.969  0.2720  0.1832 -0.2484
 1992TIP3    H130171   0.403   6.858  16.919  0.3847  0.6985 -0.9040
 1992TIP3    H230172   0.499   6.843  17.036 -1.6119  0.2932  0.7413
 1993TIP3   OH230173   5.815   7.018  16.940 -0.2419 -0.5991  0.3044
 1993TIP3    H130174   5.837   6.959  16.867  2.4286 -0.5950  1.0020
 1993TIP3    H230175   5.854   6.976  17.017 -2.0980 -0.0711  1.5891
 1994TIP3   OH230176   7.184   0.518  16.734  0.0186  0.5511 -0.4483
 1994TIP3    H130177   7.147   0.603  16.708  2.2510  1.7649  0.0995
 1994TIP3    H230178   7.220   0.534  16.821  1.5144 -0.6201 -0.8179
 1995TIP3   OH230179   2.653   4.044  17.637  0.1266 -0.1876  0.8262
 1995TIP3    H130180   2.654   4.092  17.554  1.5874  0.2416  1.0629
 1995TIP3    H230181   2.746   4.028  17.656 -0.2751 -2.0150  1.3927
 1996TIP3   OH230182   2.845   7.148  17.458 -0.2050  0.3989 -0.5190
 1996TIP3    H130183   2.807   7.138  17.371 -1.0328  0.0103 -0.1215
 1996TIP3    H230184   2.877   7.061  17.481  0.5016  0.6182 -0.6512
 1997TIP3   OH230185   4.132   0.940  17.469 -0.2914  0.5034  0.5237
 1997TIP3    H130186   4.119   0.865  17.411 -2.1544 -0.3416  1.9041
 1997TIP3    H230187   4.214   0.979  17.441 -0.0632 -1.1321 -1.2575
 1998TIP3   OH230188   1.021   6.563  17.085  0.1006 -0.4124  0.8006
 1998TIP3    H130189   1.023   6.550  16.990  0.8970 -2.1102  1.0269
 1998TIP3    H230190   0.960   6.636  17.097 -0.5148 -0.5764 -0.9687
 1999TIP3   OH230191   3.897   2.832  15.964 -0.2034  0.1035  0.4690
 1999TIP3    H130192   3.944   2.770  15.908  0.1361  0.2276  0.6149
 1999TIP3    H230193   3.935   2.917  15.942 -0.9588  0.3172 -0.0338
 2000TIP3   OH230194   3.538   7.278  17.160 -0.0434 -0.3788 -0.6436
 2000TIP3    H130195   3.454   7.247  17.196  0.9918 -1.0008  1.3787
 2000TIP3    H230196   3.570   7.205  17.108 -0.1675 -0.6216 -0.3807
 2001TIP3   OH230197   8.369   7.367  17.446  0.2964  0.3337  0.0364
 2001TIP3    H130198   8.446   7.352  17.391  0.1729  0.7682 -0.2620
 2001TIP3    H230199   8.333   7.450  17.415  1.8949  2.1586  2.7055
 2002TIP3   OH230200   5.322   0.429  17.418 -0.2328 -0.5933 -0.7083
 2002TIP3    H130201   5.268   0.360  17.457 -0.9505 -0.1503 -0.8862
 2002TIP3    H230202   5.361   0.474  17.493  1.0852 -1.8232 -0.6155
 2003TIP3   OH230203   2.027   6.075  16.042  0.8354  0.0187  0.3675
 2003TIP3    H130204   2.082   6.050  15.969  0.7866  0.7743  0.0659
 2003TIP3    H230205   1.944   6.103  16.002 -0.3583 -2.4888  0.8742
 2004TIP3   OH230206   1.028   8.059  16.516  0.4286  0.4836  0.0275
 2004TIP3    H130207   1.003   8.099  16.433 -1.5063 -0.3829  0.1542
 2004TIP3    H230208   1.083   7.985  16.491 -0.9285 -0.3496 -0.5760
 2005TIP3   OH230209   2.692   1.945  16.689  0.1404  0.1635  0.1788
 2005TIP3    H130210   2.725   1.875  16.745 -0.7461 -0.0140  0.4998
 2005TIP3    H230211   2.676   2.018  16.749  0.1171  0.3006  0.0056
 2006TIP3   OH230212   7.419   8.287  16.300 -0.5418  0.2592 -0.0320
 2006TIP3    H130213   7.340   8.247  16.339 -0.9854  0.3792 -0.7886
 2006TIP3    H230214   7.399   8.292  16.207  1.8845 -3.3324 -0.9305
 2007TIP3   OH230215   7.074   3.526  17.647 -0.0342  0.0801  0.0270
 2007TIP3    H130216   7.135   3.474  17.699 -0.7859 -0.7534  0.0942
 2007TIP3    H230217   7.116   3.612  17.639  1.9993 -0.9690 -1.4420
 2008TIP3   OH230218   1.154   5.028  16.382  0.5929 -0.0367 -0.2287
 2008TIP3    H130219   1.245   5.003  16.367  0.3616 -0.6760 -0.6174
 2008TIP3    H230220   1.158   5.101  16.444  1.4748  1.0748 -1.5394
 2009TIP3   OH230221   0.694   5.567  16.701  0.2845 -0.0568  0.0642
 2009TIP3    H130222   0.738   5.562  16.786 -0.6518 -0.6762  0.5225
 2009TIP3    H230223   0.685   5.476  16.673 -1.2279  0.0120  0.2550
 2010TIP3   OH230224   0.043   6.827  16.447  0.2012  0.2931  0.0017
 2010TIP3    H130225  -0.021   6.768  16.407 -0.5529  2.3625 -2.0849
 2010TIP3    H230226   0.025   6.821  16.541 -0.2947 -2.2071 -0.1844
 2011TIP3   OH230227   3.201   6.657  15.785  0.0349 -0.0443  0.1553
 2011TIP3    H130228   3.250   6.580  15.815 -0.3688 -0.5367 -0.4108
 2011TIP3    H230229   3.244   6.731  15.826  0.4668 -0.5741  0.6709
 2012TIP3   OH230230   2.753   0.351  17.569 -0.1828  0.1670 -0.4323
 2012TIP3    H130231   2.683   0.338  17.633 -1.3789  2.7222 -1.0625
 2012TIP3    H230232   2.813   0.412  17.611 -0.5258  1.1789 -1.3559
 2013TIP3   OH230233   7.160   2.929  17.782  0.2492 -0.4690 -0.3155
 2013TIP3    H130234   7.066   2.915  17.791  0.1775  1.2603  4.1525
 2013TIP3    H230235   7.200   2.858  17.834  1.6590 -2.2037 -3.5038
 2014TIP3   OH230236   2.272   4.012  17.418  0.3239  0.6420  0.3384
 2014TIP3    H130237   2.288   4.042  17.508 -1.0602 -0.0659  0.8452
 2014TIP3    H230238   2.290   4.089  17.364 -0.8269  1.7126  1.4123
 2015TIP3   OH230239   1.085   6.659  16.467  0.7316 -0.2590 -0.1191
 2015TIP3    H130240   1.005   6.630  16.424  1.3025 -0.1411 -1.3172
 2015TIP3    H230241   1.141   6.581  16.469  0.2109 -0.6253  1.6920
 2016TIP3   OH230242   3.578   4.509  16.846 -0.2381 -0.7723 -0.0208
 2016TIP3    H130243   3.655   4.529  16.792 -0.1577 -1.4431 -0.1575
 2016TIP3    H230244   3.607   4.528  16.936 -0.2415 -0.0526 -0.1613
 2017TIP3   OH230245   0.934   3.179  16.388  0.5212 -0.0784 -0.1155
 2017TIP3    H130246   1.016   3.228  16.395  2.0731 -2.2914 -1.2585
 2017TIP3    H230247   0.950   3.099  16.438  0.0170 -1.6192 -2.2580
 2018TIP3   OH230248   7.787   0.483  16.848 -0.0435  0.3222  0.0093
 2018TIP3    H130249   7.721   0.543  16.811 -1.6332 -1.8957 -0.9808
 2018TIP3    H230250   7.735   0.414  16.890  1.6966 -0.8323  0.3455
 2019TIP3   OH230251   8.021   7.294  15.654 -0.4740  0.4353 -0.6544
 2019TIP3    H130252   8.079   7.324  15.723 -0.8899 -0.9457  0.3238
 2019TIP3    H230253   8.075   7.296  15.575  0.8310 -0.5380  0.1757
 2020TIP3   OH230254   8.420   3.347  16.201  0.0754 -0.0201  0.4514
 2020TIP3    H130255   8.385   3.358  16.113  2.5670 -1.9332 -0.9015
 2020TIP3    H230256   8.443   3.255  16.207 -2.3188 -0.6075  4.1265
 2021TIP3   OH230257   8.229   3.082  17.873 -0.6402  0.1208 -0.8479
 2021TIP3    H130258   8.290   3.125  17.813  0.2836 -0.3927 -0.3128
 2021TIP3    H230259   8.156   3.143  17.882  0.5524  1.5031 -0.2270
 2022TIP3   OH230260   8.443   3.955  17.251 -0.1538  0.3119 -0.5753
 2022TIP3    H130261   8.348   3.950  17.248 -0.1148 -1.8083  0.0680
 2022TIP3    H230262   8.470   3.964  17.160 -0.9456  0.3214 -0.8177
 2023TIP3   OH230263   1.286   8.311  17.327  0.1734 -0.1836  0.6270
 2023TIP3    H130264   1.359   8.334  17.269 -0.5904  1.9272  0.4227
 2023TIP3    H230265   1.311   8.347  17.412  0.0588 -0.8509  0.9508
 2024TIP3   OH230266   6.263   0.461  17.637 -0.6430  0.1289  0.6990
 2024TIP3    H130267   6.353   0.471  17.605 -0.2636  0.0574  1.7269
 2024TIP3    H230268   6.256   0.522  17.710 -0.9985 -0.8614  1.5112
 2025TIP3   OH230269   1.570   2.936  17.670  0.1723 -0.2777 -0.0489
 2025TIP3    H130270   1.486   2.904  17.635  0.9080  1.0011 -3.3969
 2025TIP3    H230271   1.634   2.908  17.605  1.7320  2.3275  0.2565
 2026TIP3   OH230272   6.749   0.307  17.668  0.0140 -0.0120 -0.6181
 2026TIP3    H130273   6.798   0.331  17.747  0.7248  0.3356 -1.1561
 2026TIP3    H230274   6.678   0.251  17.700  0.8140 -0.5967  0.1653
 2027TIP3   OH230275   7.510   6.651  16.662  0.0450  0.1797 -0.8469
 2027TIP3    H130276   7.500   6.642  16.567  0.5876  1.0464 -0.9934
 2027TIP3    H230277   7.435   6.704  16.689  0.4437  0.7992 -0.9447
 2028TIP3   OH230278   5.992   4.358  16.834 -0.6364 -0.3484  0.2913
 2028TIP3    H130279   5.956   4.287  16.781 -1.0799  0.6967 -0.8626
 2028TIP3    H230280   5.941   4.356  16.915  0.9449 -2.8342  1.3341
 2029TIP3   OH230281   2.270   6.877  16.931 -0.1642 -0.1268 -0.2027
 2029TIP3    H130282   2.323   6.832  16.865 -1.7963 -1.0453 -0.9463
 2029TIP3    H230283   2.223   6.808  16.976 -0.9962  0.6713  0.1975
 2030TIP3   OH230284   2.312   1.030  16.924  0.3707 -0.1727  0.1502
 2030TIP3    H130285   2.366   1.108  16.921 -0.9353  0.7612  0.2210
 2030TIP3    H230286   2.226   1.059  16.895  0.4261 -2.1129 -2.3710
 2031TIP3   OH230287   2.993   1.926  16.917 -0.3169 -0.1095 -0.0784
 2031TIP3    H130288   2.907   1.946  16.954 -0.2179  0.2231 -0.0271
 2031TIP3    H230289   2.974   1.900  16.826 -0.5915 -1.2619  0.2871
 2032TIP3   OH230290   1.810   3.226  17.594 -0.2314 -0.2059 -0.1276
 2032TIP3    H130291   1.719   3.246  17.573 -0.3558 -1.9962 -1.5634
 2032TIP3    H230292   1.860   3.270  17.525 -0.2661 -1.6548 -1.1327
 2033TIP3   OH230293   0.656   0.964  17.607  0.4673 -0.2436  0.2932
 2033TIP3    H130294   0.569   0.937  17.578  0.9346 -0.9631 -0.4812
 2033TIP3    H230295   0.709   0.962  17.528  1.2838 -0.1679  0.8264
 2034TIP3   OH230296   6.366   7.281  16.304 -0.0979  0.2514  0.3981
 2034TIP3    H130297   6.281   7.254  16.269  0.5661  0.0756 -1.1963
 2034TIP3    H230298   6.423   7.206  16.289  0.7682  1.0117 -0.2536
 2035TIP3   OH230299   1.660   1.916  16.909 -0.1430  0.0109  0.5703
 2035TIP3    H130300   1.699   1.994  16.869  0.1717  0.2123  1.2615
 2035TIP3    H230301   1.635   1.943  16.997  0.3286 -0.7675  0.9575
 2036TIP3   OH230302   2.597   5.903  15.480  1.0622  0.3116  0.2529
 2036TIP3    H130303   2.666   5.836  15.487  0.5352 -0.1240  1.4827
 2036TIP3    H230304   2.515   5.853  15.483  0.6699  0.9557  0.4331
 2037TIP3   OH230305   0.714   4.922  16.336 -0.0621  0.4284  0.3767
 2037TIP3    H130306   0.783   4.983  16.308  2.3345 -2.2663 -0.0765
 2037TIP3    H230307   0.674   4.892  16.255  0.4170 -0.3515  0.4201
 2038TIP3   OH230308   7.165   4.678  17.841 -0.5526  0.6892  0.6429
 2038TIP3    H130309   7.114   4.734  17.900  0.0193 -0.1788  2.0041
 2038TIP3    H230310   7.138   4.589  17.863  0.7145  0.2782  0.6254
 2039TIP3   OH230311   3.524   4.310  17.611 -0.0747 -0.4069  0.5962
 2039TIP3    H130312   3.591   4.366  17.573  1.0748 -1.3970  1.0728
 2039TIP3    H230313   3.507   4.348  17.697  0.5640 -0.6591  0.8442
 2040TIP3   OH230314   7.149   6.934  17.524  0.0096 -0.3113  0.1037
 2040TIP3    H130315   7.107   6.852  17.498 -0.7822  0.3927 -0.9027
 2040TIP3    H230316   7.159   6.984  17.443  0.1611  0.7307  0.7357
 2041TIP3   OH230317   5.905   7.933  16.815 -0.4554 -0.0124 -0.2603
 2041TIP3    H130318   5.836   7.935  16.749  1.2529  1.6019 -2.1100
 2041TIP3    H230319   5.973   7.877  16.778  0.3582  0.5899  0.2766
 2042TIP3   OH230320   0.206   8.411  16.988  0.1170 -0.4270  0.7992
 2042TIP3    H130321   0.204   8.441  17.079  0.2728 -1.5427  1.1905
 2042TIP3    H230322   0.119   8.431  16.954 -0.1479 -0.5571  1.3909
 2043TIP3   OH230323   5.421   5.856  17.453 -0.0458 -0.4455  0.3271
 2043TIP3    H130324   5.473   5.930  17.485  0.2979 -0.0247 -1.1244
 2043TIP3    H230325   5.388   5.814  17.532 -0.9516  1.7687  1.2056
 2044TIP3   OH230326   4.132   7.219  16.929 -0.7179  0.3774 -0.6064
 2044TIP3    H130327   4.114   7.156  16.859 -0.1846 -0.2285 -0.2064
 2044TIP3    H230328   4.207   7.183  16.976  0.7912  2.2102 -1.4713
 2045TIP3   OH230329   2.545   6.342  15.970 -0.1022 -0.1230 -0.0989
 2045TIP3    H130330   2.478   6.397  16.011 -0.4335  1.2889 -2.3484
 2045TIP3    H230331   2.498   6.265  15.939 -0.3677  0.0757 -0.1940
 2046TIP3   OH230332   2.223   4.106  17.053  0.3446  0.6265  0.6537
 2046TIP3    H130333   2.217   4.196  17.021  1.1458  0.2932 -0.4977
 2046TIP3    H230334   2.269   4.059  16.983  0.0749 -0.6428  1.3082
 2047TIP3   OH230335   7.350   7.217  15.951 -0.3251 -0.1226  0.5235
 2047TIP3    H130336   7.428   7.178  15.911 -0.6584 -0.6882  0.4173
 2047TIP3    H230337   7.343   7.303  15.911 -0.7278 -0.7222 -0.7533
 2048TIP3   OH230338   1.794   1.080  15.589 -0.2880  0.3373 -0.0900
 2048TIP3    H130339   1.738   1.064  15.665 -0.3451  2.9289  0.5027
 2048TIP3    H230340   1.754   1.154  15.544  0.9261  0.2196 -1.4575
 2049TIP3   OH230341   0.576   4.181  17.471  0.5463  0.3607  0.2042
 2049TIP3    H130342   0.650   4.129  17.441 -0.3848 -0.7641 -0.1872
 2049TIP3    H230343   0.601   4.209  17.560  0.9173 -1.0189  0.5491
 2050TIP3   OH230344   4.667   2.072  17.228 -0.6245 -0.1173  0.3358
 2050TIP3    H130345   4.629   2.013  17.163  1.2399 -0.7650 -0.2571
 2050TIP3    H230346   4.611   2.149  17.227 -0.7888 -0.1918 -1.9240
 2051TIP3   OH230347   0.288   4.005  16.367  0.1046  0.4191  0.5180
 2051TIP3    H130348   0.322   4.064  16.300 -0.0407  1.1010  1.0298
 2051TIP3    H230349   0.195   3.998  16.347  0.6484 -2.4069 -1.6104
 2052TIP3   OH230350   3.477   6.989  16.310  0.0566 -0.2399 -0.0329
 2052TIP3    H130351   3.477   7.084  16.320 -0.6241 -0.3282  0.9082
 2052TIP3    H230352   3.509   6.975  16.221  2.1234  0.7903  0.4709
 2053TIP3   OH230353   6.196   6.888  16.955 -0.2986 -0.7817 -0.4154
 2053TIP3    H130354   6.181   6.802  16.994 -0.6418 -0.0356  1.1807
 2053TIP3    H230355   6.151   6.949  17.013 -0.3405  0.4675 -1.6905
 2054TIP3   OH230356   8.363   6.433  17.587 -0.8223 -0.0474 -0.6119
 2054TIP3    H130357   8.369   6.370  17.659 -0.4366  0.6083 -0.0559
 2054TIP3    H230358   8.430   6.405  17.525 -1.4514 -0.8771 -0.9411
 2055TIP3   OH230359   2.608   0.044  15.610  0.0919 -0.7030  0.2975
 2055TIP3    H130360   2.602   0.132  15.648  1.6190 -0.0555 -0.8303
 2055TIP3    H230361   2.695   0.042  15.570 -1.0080 -1.6812 -2.2517
 2056TIP3   OH230362   5.288   8.394  17.572 -0.6054  0.0002  0.1007
 2056TIP3    H130363   5.254   8.477  17.607  0.7398  1.1852 -1.2965
 2056TIP3    H230364   5.383   8.402  17.579 -0.3724 -0.5312 -1.9673
 2057TIP3   OH230365   5.328   3.695  16.744 -0.2415  0.1525 -0.2628
 2057TIP3    H130366   5.316   3.724  16.834 -2.0590 -0.3748 -0.2976
 2057TIP3    H230367   5.311   3.601  16.746 -0.1111  0.0995 -1.1219
 2058TIP3   OH230368   1.310   6.616  16.932  0.1636  0.0557  0.1352
 2058TIP3    H130369   1.234   6.671  16.951  1.1566  1.8020 -0.7135
 2058TIP3    H230370   1.379   6.678  16.907  0.6384 -1.6249 -3.3838
 2059TIP3   OH230371   1.087   1.554  17.758  0.4516 -0.1996 -0.2605
 2059TIP3    H130372   1.014   1.544  17.819  1.6583  0.1313  1.2993
 2059TIP3    H230373   1.143   1.620  17.799  3.1373 -2.5848  0.1626
 2060TIP3   OH230374   4.245   6.827  17.496  0.3748 -0.1703  0.1473
 2060TIP3    H130375   4.195   6.892  17.447  1.1658  0.4223  0.0939
 2060TIP3    H230376   4.180   6.778  17.545 -0.1896  1.3069  0.9612
 2061TIP3   OH230377   1.782   1.619  17.738  0.7462 -0.0649  0.1077
 2061TIP3    H130378   1.825   1.703  17.755  2.0911 -0.8280  0.7028
 2061TIP3    H230379   1.769   1.617  17.643  0.0330  1.1134  0.1721
 2062TIP3   OH230380   2.924   0.698  17.045  0.1397  0.0817 -0.0006
 2062TIP3    H130381   2.975   0.618  17.038 -1.6017 -1.0836 -0.1131
 2062TIP3    H230382   2.980   0.759  17.093  1.7154 -1.0055 -0.3911
 2063TIP3   OH230383   5.390   0.300  17.680 -0.4005  0.1848 -0.1583
 2063TIP3    H130384   5.400   0.395  17.674 -0.1119  0.1118 -0.9268
 2063TIP3    H230385   5.435   0.276  17.761  2.7800  0.2944 -1.7416
 2064TIP3   OH230386   6.685   4.272  16.229 -0.7482  0.4322 -0.2514
 2064TIP3    H130387   6.601   4.299  16.191 -0.6518  1.1610  0.0461
 2064TIP3    H230388   6.668   4.184  16.263 -1.1425  0.2159 -0.9784
 2065TIP3   OH230389   0.332   5.554  16.451 -0.7051 -0.0827  0.7864
 2065TIP3    H130390   0.370   5.639  16.427  0.7433 -0.2383  2.3112
 2065TIP3    H230391   0.402   5.491  16.436 -0.7695 -0.5825  2.3798
 2066TIP3   OH230392   0.440   3.915  17.547  0.4092  0.1042  0.4493
 2066TIP3    H130393   0.481   3.983  17.494  1.1894 -2.1250 -2.0540
 2066TIP3    H230394   0.348   3.915  17.519  0.2651  0.5192  0.9122
 2067TIP3   OH230395   0.420   0.391  17.433  0.0426  0.3342 -0.0713
 2067TIP3    H130396   0.392   0.483  17.434 -1.3930 -0.0948 -0.1233
 2067TIP3    H230397   0.498   0.390  17.489 -0.1990  1.5016  0.3221
 2068TIP3   OH230398   5.901   7.363  16.112 -0.6285 -0.3059 -0.4754
 2068TIP3    H130399   5.908   7.455  16.089  1.5381 -0.1466  0.6024
 2068TIP3    H230400   5.875   7.320  16.030 -0.1817  1.0614 -1.3779
 2069TIP3   OH230401   3.871   3.295  17.023  0.6572 -0.6122  0.3408
 2069TIP3    H130402   3.825   3.230  16.970 -0.3627  0.6614 -0.3927
 2069TIP3    H230403   3.831   3.379  16.998  3.5651  0.6388 -0.6118
 2070TIP3   OH230404   0.634   5.599  17.308  0.1894  0.0480 -0.1764
 2070TIP3    H130405   0.575   5.618  17.381  0.2888  2.0108 -0.5396
 2070TIP3    H230406   0.577   5.560  17.241  0.3292 -3.0127  1.3189
 2071TIP3   OH230407   0.429   6.840  17.842  0.3196 -0.2354 -0.0110
 2071TIP3    H130408   0.524   6.831  17.850  0.2889 -0.8151 -0.2445
 2071TIP3    H230409   0.407   6.790  17.763  0.0228  1.2277 -0.8876
 2072TIP3   OH230410   5.455   5.221  16.491 -0.6106  0.2017  0.8647
 2072TIP3    H130411   5.480   5.276  16.565  0.7534  1.5407 -0.5305
 2072TIP3    H230412   5.366   5.249  16.468  0.2588  2.3021 -0.1685
 2073TIP3   OH230413   4.689   7.182  16.565  0.1032  0.5283 -0.0740
 2073TIP3    H130414   4.597   7.157  16.553 -0.5285  1.7797  1.6620
 2073TIP3    H230415   4.710   7.153  16.653  1.0896  1.0818 -0.1163
 2074TIP3   OH230416   0.384   7.615  16.746  0.0060  0.2498  0.5118
 2074TIP3    H130417   0.305   7.667  16.730 -0.4676 -0.5352  0.2728
 2074TIP3    H230418   0.456   7.673  16.718 -0.3212  1.6328  2.3313
 2075TIP3   OH230419   6.456   7.348  17.780 -0.4244 -0.1956 -0.1429
 2075TIP3    H130420   6.444   7.441  17.764  0.4614 -0.0580 -0.0749
 2075TIP3    H230421   6.456   7.339  17.876  0.4578 -0.1170 -0.1277
 2076TIP3   OH230422   4.390   7.172  16.668  0.0577 -0.1924  0.0764
 2076TIP3    H130423   4.373   7.086  16.706  0.6721 -0.9988 -1.3971
 2076TIP3    H230424   4.414   7.226  16.743 -3.9591 -0.2243  1.6063
 2077TIP3   OH230425   7.622   6.293  17.314 -0.1099  0.0304 -0.1822
 2077TIP3    H130426   7.718   6.288  17.323 -0.1338 -2.0678 -0.4882
 2077TIP3    H230427   7.608   6.302  17.220 -0.2173  0.2599 -0.1440
 2078TIP3   OH230428   2.027   1.525  17.138  0.0340 -0.4291 -0.2757
 2078TIP3    H130429   2.022   1.436  17.103 -1.5310 -0.6539  0.3995
 2078TIP3    H230430   1.942   1.563  17.115 -1.1602 -0.6426  3.2764
 2079TIP3   OH230431   4.103   0.709  17.030 -0.0758 -0.0750  0.5519
 2079TIP3    H130432   4.133   0.786  16.982 -0.2467 -0.3704 -0.0403
 2079TIP3    H230433   4.164   0.700  17.103 -1.4210  2.0220  2.0493
 2080TIP3   OH230434   6.121   5.919  16.847  0.0980  0.2527 -0.8014
 2080TIP3    H130435   6.199   5.916  16.792 -1.2190 -0.2588 -2.7312
 2080TIP3    H230436   6.049   5.935  16.786 -1.2173  1.8644  1.0367
 2081TIP3   OH230437   4.408   3.375  17.077  0.8945 -0.2185 -0.6377
 2081TIP3    H130438   4.319   3.344  17.095  1.1581 -0.5654  0.0883
 2081TIP3    H230439   4.398   3.470  17.070  0.7201 -0.0647  1.1559
 2082TIP3   OH230440   0.664   7.735  17.938  0.2316 -0.3448 -0.4598
 2082TIP3    H130441   0.753   7.710  17.917  0.3324  0.1082 -0.5781
 2082TIP3    H230442   0.655   7.714  18.031  1.5229  2.5230  0.4363
 2083TIP3   OH230443   5.986   1.869  16.237  0.2904 -0.1121 -0.3610
 2083TIP3    H130444   6.061   1.892  16.292  1.0703  0.7132 -1.7167
 2083TIP3    H230445   5.982   1.773  16.240  0.6191 -0.0968  0.7277
 2084TIP3   OH230446   7.254   2.466  17.151 -0.3780 -0.3927 -0.2770
 2084TIP3    H130447   7.311   2.396  17.183  0.2085  1.1911  2.5037
 2084TIP3    H230448   7.298   2.499  17.073 -0.9316 -3.3227 -1.9696
 2085TIP3   OH230449   3.559   1.732  17.782  0.0827 -0.3788 -0.1811
 2085TIP3    H130450   3.514   1.660  17.739  0.4411 -1.4591  1.1978
 2085TIP3    H230451   3.495   1.768  17.843  0.3874 -0.4988  0.2115
 2086TIP3   OH230452   3.105   1.427  17.036 -0.1559 -0.6956 -0.1288
 2086TIP3    H130453   3.167   1.465  16.974  1.1964 -0.8247  1.1023
 2086TIP3    H230454   3.158   1.371  17.092 -1.2235 -0.0702  1.5796
 2087TIP3   OH230455   7.039   8.415  16.476  0.3052  0.2387  0.0057
 2087TIP3    H130456   7.035   8.510  16.462  0.2881  0.0254 -1.5975
 2087TIP3    H230457   7.004   8.377  16.396 -0.3556 -1.1363  0.9123
 2088TIP3   OH230458   3.679   1.350  16.969 -0.5632 -0.5345  0.0679
 2088TIP3    H130459   3.588   1.324  16.985 -0.9895  0.5847 -0.4120
 2088TIP3    H230460   3.717   1.276  16.922 -0.9077 -1.4667  1.2045
 2089TIP3   OH230461   7.399   1.324  17.472 -0.0016 -0.0398  0.6635
 2089TIP3    H130462   7.347   1.344  17.394 -0.7343  0.1685  1.1955
 2089TIP3    H230463   7.480   1.374  17.460  0.1072 -0.3989 -0.1932
 2090TIP3   OH230464   0.880   8.276  16.616  0.6374 -0.0727  0.5097
 2090TIP3    H130465   0.933   8.307  16.690  1.2292  2.2893 -0.7776
 2090TIP3    H230466   0.939   8.219  16.567  1.6597  1.5649 -0.2480
 2091TIP3   OH230467   7.946   3.930  16.808 -0.0634 -0.3896  0.0567
 2091TIP3    H130468   8.003   3.860  16.778 -0.9663 -1.9842  1.8538
 2091TIP3    H230469   7.897   3.956  16.730  0.4583 -1.6093 -0.7033
 2092TIP3   OH230470   4.983   5.066  16.779 -0.3544  0.0318 -0.5353
 2092TIP3    H130471   4.928   5.070  16.701 -0.3413 -0.1305 -0.5530
 2092TIP3    H230472   4.967   4.979  16.816 -1.4879  0.6353  0.4687
 2093TIP3   OH230473   5.881   4.426  17.255 -0.6362  0.7662  0.9750
 2093TIP3    H130474   5.822   4.501  17.249  0.6298  1.8188  1.2218
 2093TIP3    H230475   5.960   4.461  17.296  0.1088 -0.6334  0.7894
 2094TIP3   OH230476   0.705   4.177  17.166  0.4641  0.0431 -0.2649
 2094TIP3    H130477   0.734   4.135  17.247 -3.2687 -1.1987  0.6153
 2094TIP3    H230478   0.711   4.271  17.183  0.7460 -0.2025  1.0521
 2095TIP3   OH230479   4.046   3.100  16.246 -0.5530  0.4114 -0.8470
 2095TIP3    H130480   4.072   3.013  16.275  1.8029  1.4819  0.4835
 2095TIP3    H230481   4.030   3.090  16.152 -1.2932 -1.6170 -0.5476
 2096TIP3   OH230482   4.382   3.656  17.003 -0.4228 -0.8170  0.0345
 2096TIP3    H130483   4.359   3.729  16.945 -0.6625  0.1393  1.3004
 2096TIP3    H230484   4.477   3.655  17.003 -0.3080  1.4763  2.3262
 2097TIP3   OH230485   0.743   3.383  17.165 -0.6753 -0.5602  0.4452
 2097TIP3    H130486   0.666   3.420  17.209  0.4399 -0.1027  2.1161
 2097TIP3    H230487   0.796   3.459  17.141 -0.5702 -0.8865 -0.3775
 2098TIP3   OH230488   0.062   8.251  17.428  0.2450  0.3582 -0.2032
 2098TIP3    H130489   0.126   8.283  17.492  1.8232 -0.0318 -1.5137
 2098TIP3    H230490   0.072   8.309  17.353 -2.2099  1.3744  0.1508
 2099TIP3   OH230491   7.439   0.387  17.653  0.0750  0.4204 -0.3878
 2099TIP3    H130492   7.371   0.430  17.601 -0.3776  1.0832  0.7087
 2099TIP3    H230493   7.460   0.308  17.604 -2.4353 -0.5131 -0.1339
 2100TIP3   OH230494   8.381   5.806  17.950 -0.0701  0.5805  0.0360
 2100TIP3    H130495   8.329   5.862  18.008 -0.5188 -0.1947  0.3826
 2100TIP3    H230496   8.438   5.868  17.903 -0.1680  1.2788  0.8136
 2101TIP3   OH230497   3.840   7.890  16.609 -0.0504  0.1421 -0.2693
 2101TIP3    H130498   3.797   7.972  16.635  1.2745  1.0804 -0.9545
 2101TIP3    H230499   3.852   7.843  16.692 -0.0326  1.0341  0.2489
 2102TIP3   OH230500   2.665   0.691  17.133 -0.1264  0.8105  0.3539
 2102TIP3    H130501   2.756   0.711  17.110 -0.4391  2.3578  0.3141
 2102TIP3    H230502   2.664   0.688  17.228 -0.1717  1.6614  0.3915
 2103TIP3   OH230503   2.930   1.107  17.137 -0.6222  1.1360 -0.0533
 2103TIP3    H130504   2.899   1.193  17.165  0.7244  2.1002 -1.3397
 2103TIP3    H230505   2.888   1.092  17.052 -0.3425  0.8461 -0.1440
 2104TIP3   OH230506   3.082   5.802  16.576 -0.5747  0.0481 -0.8688
 2104TIP3    H130507   3.094   5.896  16.566 -2.5738  0.7036  1.7126
 2104TIP3    H230508   3.154   5.774  16.633 -1.4860  0.6260  0.6329
 2105TIP3   OH230509   0.348   2.310  16.233 -0.2582  0.0563 -0.0480
 2105TIP3    H130510   0.347   2.398  16.196 -0.0328  0.3669  0.6533
 2105TIP3    H230511   0.426   2.270  16.195  0.8504  0.9030  1.2406
 2106TIP3   OH230512   5.557   0.049  16.928 -0.1334 -0.1981  0.3489
 2106TIP3    H130513   5.562  -0.047  16.923  2.8051 -0.1348  0.4060
 2106TIP3    H230514   5.591   0.070  17.016  2.1127  0.9356 -0.7014
 2107TIP3   OH230515   6.408   5.728  17.402 -0.5608  0.0082 -0.0871
 2107TIP3    H130516   6.361   5.793  17.350 -0.2436 -0.0103 -0.3934
 2107TIP3    H230517   6.341   5.663  17.424 -1.4911  1.6375  2.2853
 2108TIP3   OH230518   8.019   3.860  17.890  0.1945  0.1287  0.3209
 2108TIP3    H130519   8.105   3.851  17.849 -1.0722 -1.4266 -2.2628
 2108TIP3    H230520   7.997   3.952  17.880  0.4489  0.0259 -1.5484
 2109TIP3   OH230521   6.414   5.036  17.486  0.5438  0.0087 -0.4349
 2109TIP3    H130522   6.424   5.080  17.571  0.1099  1.5476 -1.1441
 2109TIP3    H230523   6.339   4.978  17.498  0.9066 -0.2997  0.4232
 2110TIP3   OH230524   5.447   6.517  16.319 -0.0682  0.1123 -0.4261
 2110TIP3    H130525   5.487   6.464  16.387  1.7564  2.0786  0.1286
 2110TIP3    H230526   5.399   6.585  16.366 -2.1643 -0.8007 -1.1211
 2111TIP3   OH230527   0.874   3.357  16.646  0.4545  0.2322 -0.1391
 2111TIP3    H130528   0.862   3.398  16.561 -2.1004  0.4264  0.2490
 2111TIP3    H230529   0.832   3.271  16.637 -0.1450  0.3871  0.9956
 2112TIP3   OH230530   6.260   0.676  17.832 -0.0678 -0.6316 -0.7748
 2112TIP3    H130531   6.206   0.676  17.911  1.7199 -1.1152  0.5161
 2112TIP3    H230532   6.224   0.746  17.778  1.4845  3.0294  2.5159
 2113TIP3   OH230533   6.931   4.519  16.633 -0.3882  0.1543 -0.0046
 2113TIP3    H130534   6.899   4.602  16.599 -2.9683 -0.5099  0.5487
 2113TIP3    H230535   6.878   4.453  16.588 -1.9010 -0.8959  3.0175
 2114TIP3   OH230536   7.819   7.731  16.567  0.2417  0.7020 -0.1144
 2114TIP3    H130537   7.805   7.638  16.588  0.5238  0.5525 -0.5707
 2114TIP3    H230538   7.830   7.773  16.652 -2.1151  0.7023  0.2395
 2115TIP3   OH230539   2.473   5.352  17.738  0.4328 -0.5433  0.1062
 2115TIP3    H130540   2.391   5.381  17.779 -0.2387  0.0350 -1.5190
 2115TIP3    H230541   2.445   5.287  17.674  1.2727 -0.4839 -0.3252
 2116TIP3   OH230542   6.818   0.980  17.373  0.0366  0.7042  0.2163
 2116TIP3    H130543   6.833   1.054  17.314 -1.5427  1.1533  0.3165
 2116TIP3    H230544   6.864   1.004  17.453  0.8948  0.8117 -0.2987
 2117TIP3   OH230545   3.192   4.177  17.554  0.2960  0.1668 -0.4825
 2117TIP3    H130546   3.219   4.241  17.620  0.1661  1.1376 -1.3414
 2117TIP3    H230547   3.262   4.177  17.490 -0.5794  0.9154 -1.4846
 2118TIP3   OH230548   0.114   6.009  17.459 -0.3793  0.5807 -0.6558
 2118TIP3    H130549   0.181   6.056  17.508  0.4517 -1.3126  0.0911
 2118TIP3    H230550   0.158   5.931  17.426 -2.0336 -0.3432 -0.7640
 2119TIP3   OH230551   0.369   3.260  16.707  0.0224 -0.5456 -0.0022
 2119TIP3    H130552   0.431   3.219  16.647 -0.9089 -0.7652 -0.8244
 2119TIP3    H230553   0.303   3.193  16.725 -1.3690  0.4646 -1.1527
 2120TIP3   OH230554   6.006   0.978  16.379  0.0144  0.0319 -0.4772
 2120TIP3    H130555   6.054   0.941  16.453  0.8981  1.4653 -0.2893
 2120TIP3    H230556   5.938   0.914  16.360  0.7187 -1.0824  0.5918
 2121TIP3   OH230557   7.270   4.018  18.140 -0.2982 -0.3566 -0.0227
 2121TIP3    H130558   7.294   4.087  18.078  0.1813  1.6602  2.2274
 2121TIP3    H230559   7.319   3.941  18.111  0.0227  0.5264 -1.9986
 2122TIP3   OH230560   5.267   0.052  16.509 -0.1752 -0.2382 -0.5198
 2122TIP3    H130561   5.362   0.062  16.503 -0.0077 -1.0009  0.6417
 2122TIP3    H230562   5.246  -0.014  16.443  0.4483 -1.9060  0.8974
 2123TIP3   OH230563   6.707   4.210  17.567 -0.1273 -0.5950  0.0794
 2123TIP3    H130564   6.645   4.141  17.593 -0.6268  0.1608  0.9337
 2123TIP3    H230565   6.658   4.291  17.576  0.5945 -0.0832 -0.5019
 2124TIP3   OH230566   0.234   1.173  16.955  0.6449  0.7120 -0.0943
 2124TIP3    H130567   0.148   1.130  16.960  0.6330  0.7146 -0.2710
 2124TIP3    H230568   0.265   1.154  16.867  0.8165  0.7324 -0.0381
 2125TIP3   OH230569   2.682   7.127  16.100 -0.0401  0.4596  0.6233
 2125TIP3    H130570   2.642   7.084  16.024  0.2197  1.4183 -0.0783
 2125TIP3    H230571   2.743   7.190  16.062  1.7569 -0.5790  1.6583
 2126TIP3   OH230572   2.320   7.227  16.271 -0.0137  0.1865  0.2972
 2126TIP3    H130573   2.404   7.271  16.255  0.5930 -1.4232 -1.2105
 2126TIP3    H230574   2.265   7.295  16.310  2.1588  1.1334  1.9338
 2127TIP3   OH230575   3.848   4.295  17.266  0.3416  0.2517 -0.0341
 2127TIP3    H130576   3.812   4.318  17.352  0.3484  0.2213 -0.0230
 2127TIP3    H230577   3.935   4.335  17.265  0.6014 -0.3043  0.2340
 2128TIP3   OH230578   6.010   1.342  17.709 -0.1704 -0.2950  0.3476
 2128TIP3    H130579   6.102   1.356  17.730 -0.2664  1.2222 -0.1218
 2128TIP3    H230580   6.010   1.321  17.615 -0.3490  0.3116  0.2113
 2129TIP3   OH230581   1.478   6.585  15.558 -0.7128 -0.0451 -0.0987
 2129TIP3    H130582   1.422   6.530  15.504 -0.3340  1.0328 -1.6660
 2129TIP3    H230583   1.480   6.669  15.512 -0.6870  1.0568  1.8341
 2130TIP3   OH230584   2.950   6.602  17.764  0.8158 -0.4168 -0.2802
 2130TIP3    H130585   2.855   6.589  17.767  0.3153  2.6440  1.0300
 2130TIP3    H230586   2.972   6.591  17.671 -1.1128  0.3116 -0.8782
 2131TIP3   OH230587   2.601   0.843  16.720  0.7161  0.6244  0.1974
 2131TIP3    H130588   2.599   0.801  16.806 -1.0110 -0.7816 -0.4644
 2131TIP3    H230589   2.618   0.771  16.659  3.0251  1.7601 -0.6230
 2132TIP3   OH230590   2.673   3.972  16.666  0.1688 -0.4180  0.5697
 2132TIP3    H130591   2.645   3.930  16.747  0.4292 -1.4219  0.1527
 2132TIP3    H230592   2.594   3.978  16.613  0.3849 -1.7166  0.0629
 2133TIP3   OH230593   1.889   5.837  15.652  0.2857  0.0066  0.0815
 2133TIP3    H130594   1.816   5.842  15.590  0.6641  2.5891 -0.2464
 2133TIP3    H230595   1.914   5.928  15.667  3.8500 -0.8029 -0.2432
 2134TIP3   OH230596   6.904   7.707  17.682 -0.9008 -0.0482  0.0960
 2134TIP3    H130597   6.983   7.681  17.635 -1.3662  0.0606 -0.7653
 2134TIP3    H230598   6.892   7.639  17.748 -0.0568 -0.0339  0.2716
 2135TIP3   OH230599   0.641   3.726  17.571  0.1690  0.7630 -0.2961
 2135TIP3    H130600   0.568   3.789  17.575  1.1103  1.9669 -1.2267
 2135TIP3    H230601   0.667   3.715  17.663 -1.0400  0.4573  0.0352
 2136TIP3   OH230602   2.068   7.032  17.802  0.2095 -0.1062 -0.0189
 2136TIP3    H130603   2.027   7.115  17.775  0.5037  0.2992  0.7474
 2136TIP3    H230604   2.142   7.059  17.856 -2.1472 -0.8912  3.9486
 2137TIP3   OH230605   3.982   7.980  15.970 -0.6471 -0.3315 -0.2204
 2137TIP3    H130606   3.892   7.964  15.942 -1.3019  0.6824  1.2015
 2137TIP3    H230607   3.974   8.032  16.050  1.2065 -0.2121 -0.0626
 2138TIP3   OH230608   0.979   4.936  17.316  0.3844 -0.2169 -0.0174
 2138TIP3    H130609   0.933   4.999  17.260 -1.4778  1.8831  3.4879
 2138TIP3    H230610   0.911   4.902  17.374  2.3243 -1.3910  1.6801
 2139TIP3   OH230611   2.732   2.919  17.413  0.1196 -0.2055 -0.6430
 2139TIP3    H130612   2.780   2.837  17.404  1.0517  0.1018  1.1959
 2139TIP3    H230613   2.763   2.957  17.495 -2.7918  0.3206  0.3550
 2140TIP3   OH230614   0.987   7.972  17.792  0.0840 -0.1738  0.1902
 2140TIP3    H130615   1.003   7.990  17.699 -1.5185 -0.3942 -0.1609
 2140TIP3    H230616   0.927   8.041  17.819 -1.7202 -1.7106  0.2884
 2141TIP3   OH230617   7.907   6.252  17.504  0.1551  0.2482 -0.6497
 2141TIP3    H130618   7.870   6.263  17.591  1.3820 -0.2851 -0.0484
 2141TIP3    H230619   7.977   6.318  17.499 -0.7557  1.1967 -1.7467
 2142TIP3   OH230620   4.591   7.718  16.370  0.4301  0.2490 -0.4154
 2142TIP3    H130621   4.646   7.753  16.440  0.4809  0.6107 -0.6290
 2142TIP3    H230622   4.652   7.673  16.312  0.9493  2.8537 -2.0479
 2143TIP3   OH230623   4.094   1.096  17.215 -0.4345 -0.1184 -0.1010
 2143TIP3    H130624   4.174   1.056  17.183  1.6374  2.7447  1.0632
 2143TIP3    H230625   4.079   1.170  17.155 -1.1097  0.4916  0.7878
 2144TIP3   OH230626   4.299   5.613  16.820  0.9811  0.2713 -0.1794
 2144TIP3    H130627   4.303   5.551  16.893 -1.5125  3.5072  3.0665
 2144TIP3    H230628   4.206   5.614  16.796  1.5021  0.4895 -2.3760
 2145TIP3   OH230629   6.951   2.724  17.816 -0.5728 -0.4011  0.6457
 2145TIP3    H130630   6.962   2.800  17.873  0.1724  0.8655 -1.1053
 2145TIP3    H230631   6.912   2.759  17.736  0.3162 -1.7295 -0.4165
 2146TIP3   OH230632   0.315   6.876  16.115  0.0249  0.3710  0.0668
 2146TIP3    H130633   0.267   6.906  16.192 -0.1207 -1.2753  0.6605
 2146TIP3    H230634   0.400   6.920  16.121 -0.4806  1.3185  0.4071
 2147TIP3   OH230635   1.780   6.682  16.996 -0.3542  0.1169 -0.4513
 2147TIP3    H130636   1.781   6.591  16.966  1.9819  0.1114 -0.5253
 2147TIP3    H230637   1.826   6.731  16.928  4.1117  0.2635  2.2356
 2148TIP3   OH230638   0.994   8.299  16.874  0.1065 -0.2281 -0.0987
 2148TIP3    H130639   0.942   8.377  16.894 -2.5617 -2.3678  2.1974
 2148TIP3    H230640   1.081   8.320  16.906 -0.5787  1.7523  0.6325
 2149TIP3   OH230641   1.515   1.610  17.864 -0.1831  0.2526  0.5013
 2149TIP3    H130642   1.595   1.580  17.908  0.5500  1.1147 -0.2163
 2149TIP3    H230643   1.515   1.565  17.780  0.0909  1.0317  0.0770
 2150TIP3   OH230644   4.220   3.398  16.799 -0.2609  0.9882 -0.1765
 2150TIP3    H130645   4.174   3.357  16.872 -3.8343 -0.1075 -2.7783
 2150TIP3    H230646   4.189   3.489  16.799 -2.1737  0.4043 -1.5610
 2151TIP3   OH230647   1.624   2.573  16.844 -0.2397  0.6945  0.4605
 2151TIP3    H130648   1.677   2.501  16.878  0.2296  0.2328 -1.1500
 2151TIP3    H230649   1.685   2.646  16.838 -0.7273  1.2955  2.1413
 2152TIP3   OH230650   4.146   2.244  17.126  0.8406 -0.2495 -0.6461
 2152TIP3    H130651   4.053   2.249  17.144  0.5904  2.0157 -2.2169
 2152TIP3    H230652   4.152   2.210  17.036  1.8157 -4.9514  0.8921
 2153TIP3   OH230653   0.003   1.633  16.799  0.2584  0.0930  0.1654
 2153TIP3    H130654   0.070   1.574  16.765 -0.6428 -0.6585 -0.3709
 2153TIP3    H230655  -0.009   1.606  16.890 -0.6588 -1.0982 -0.2659
 2154TIP3   OH230656   2.399   7.600  17.668 -0.0055 -0.0083 -0.0113
 2154TIP3    H130657   2.328   7.663  17.665  0.2321  0.2359 -0.8712
 2154TIP3    H230658   2.475   7.650  17.698  0.2831  0.2382 -1.0944
 2155TIP3   OH230659   1.671   7.771  16.845 -0.4960 -0.4499  0.7134
 2155TIP3    H130660   1.648   7.755  16.937  1.2433 -0.0692  1.2619
 2155TIP3    H230661   1.678   7.684  16.806 -0.8602 -0.6329  1.0504
 2156TIP3   OH230662   8.127   6.032  15.873  0.4219  0.4157  0.5866
 2156TIP3    H130663   8.166   5.947  15.894  0.5081  0.4613  0.6109
 2156TIP3    H230664   8.077   6.055  15.950  1.8399  1.2263  1.3158
 2157TIP3   OH230665   2.942   0.704  16.169  0.3221  0.4785  0.4343
 2157TIP3    H130666   3.036   0.684  16.171  0.4289  1.0000  2.1823
 2157TIP3    H230667   2.937   0.794  16.135  0.1395 -0.6611 -3.0281
 2158TIP3   OH230668   7.131   3.279  15.864 -0.0551  0.6667 -0.4336
 2158TIP3    H130669   7.082   3.197  15.872 -0.7377  1.0679 -0.4804
 2158TIP3    H230670   7.064   3.347  15.865  0.5461  1.2669  0.2614
 2159TIP3   OH230671   4.638   2.250  15.698  0.0783 -0.2379 -0.1443
 2159TIP3    H130672   4.697   2.243  15.773  0.3458  0.7310 -0.2481
 2159TIP3    H230673   4.696   2.251  15.622 -0.0530  0.6968 -0.2486
 2160TIP3   OH230674   4.745   3.521  16.968 -0.3050 -0.5432 -0.0817
 2160TIP3    H130675   4.683   3.493  16.901  0.1297 -1.7897 -0.0052
 2160TIP3    H230676   4.823   3.467  16.953 -0.4077 -1.2834  1.7557
 2161TIP3   OH230677   0.259   8.331  16.724  0.0424 -0.2046 -0.6331
 2161TIP3    H130678   0.259   8.421  16.689 -0.2016  0.0526  0.0212
 2161TIP3    H230679   0.252   8.342  16.818 -0.2297 -0.9281 -0.5671
 2162TIP3   OH230680   4.693   0.505  17.029  0.2762 -0.0815  0.6647
 2162TIP3    H130681   4.677   0.411  17.022 -0.2158  0.0481 -0.0676
 2162TIP3    H230682   4.758   0.513  17.099  1.5341 -1.0813 -0.3289
 2163TIP3   OH230683   2.233   1.077  15.808 -0.5290  0.1586 -0.1816
 2163TIP3    H130684   2.236   1.128  15.728  0.4958  1.1271  0.4474
 2163TIP3    H230685   2.172   1.005  15.789 -0.5395  0.5488 -1.6999
 2164TIP3   OH230686   8.047   4.676  15.815 -0.3632 -0.4552  0.5759
 2164TIP3    H130687   8.021   4.727  15.892  0.6518 -1.2394  1.4692
 2164TIP3    H230688   8.069   4.590  15.850  0.3179 -0.7661 -0.5810
 2165TIP3   OH230689   1.395   2.075  17.515  0.3152 -0.5049  0.2657
 2165TIP3    H130690   1.299   2.075  17.517  0.2922 -2.0305  0.9964
 2165TIP3    H230691   1.420   2.084  17.607  0.8368 -0.9973  0.1806
 2166TIP3   OH230692   3.449   4.043  15.921 -0.2159  0.4275 -0.3492
 2166TIP3    H130693   3.427   3.972  15.981  1.3527 -0.1946 -0.4469
 2166TIP3    H230694   3.384   4.111  15.938 -0.7076 -0.3469  0.9769
 2167TIP3   OH230695   1.557   7.506  17.728 -0.7413  0.0539  0.1807
 2167TIP3    H130696   1.571   7.426  17.778 -0.9440 -0.8726 -1.2088
 2167TIP3    H230697   1.467   7.532  17.748 -1.7428 -1.7733 -1.6766
 2168TIP3   OH230698   1.371   2.753  18.150 -0.5036  0.2204  0.2312
 2168TIP3    H130699   1.357   2.846  18.135  1.5086  0.4512 -0.4335
 2168TIP3    H230700   1.422   2.723  18.075  0.5805 -0.9666  1.3773
 2169TIP3   OH230701   7.431   5.014  17.795 -0.0917 -0.0244 -0.0900
 2169TIP3    H130702   7.411   4.995  17.703  0.8304 -1.6201 -0.0048
 2169TIP3    H230703   7.372   5.085  17.818 -0.7437  0.0289 -1.7581
 2170TIP3   OH230704   8.086   7.695  16.534 -0.1813  0.7688 -0.4197
 2170TIP3    H130705   8.110   7.660  16.620  2.1947 -0.3652 -1.4624
 2170TIP3    H230706   7.993   7.716  16.543 -0.4678 -0.9772  1.8813
 2171TIP3   OH230707   3.943   1.751  16.951  0.1105  0.2093  0.2651
 2171TIP3    H130708   3.939   1.700  17.032  0.1370 -0.5147 -0.1870
 2171TIP3    H230709   3.932   1.842  16.980  0.3766 -0.0154  1.1092
 2172TIP3   OH230710   8.346   6.031  17.603 -0.2041 -0.4752 -0.3012
 2172TIP3    H130711   8.403   6.021  17.526  0.0478 -2.0836  0.0659
 2172TIP3    H230712   8.301   5.947  17.610 -1.7332  0.3600  0.1397
 2173TIP3   OH230713   5.496   6.193  16.862  0.5219  0.0769 -0.1088
 2173TIP3    H130714   5.477   6.184  16.955  0.1798 -0.3631 -0.2177
 2173TIP3    H230715   5.548   6.273  16.856  0.0241  0.4460  0.3863
 2174TIP3   OH230716   2.514   6.220  15.088  0.2401 -0.2773 -0.0340
 2174TIP3    H130717   2.549   6.272  15.161 -0.4714  0.4368 -0.1843
 2174TIP3    H230718   2.488   6.137  15.128  0.2376 -0.0439  0.4571
 2175TIP3   OH230719   7.959   6.134  15.527 -0.1900 -0.5903  0.0338
 2175TIP3    H130720   8.024   6.097  15.586 -1.2377 -1.0338  0.9375
 2175TIP3    H230721   7.987   6.225  15.517 -1.0225  0.0777  2.8080
 2176TIP3   OH230722   4.605   8.173  16.786 -0.3928  0.6144  0.2467
 2176TIP3    H130723   4.638   8.245  16.841 -0.8714  1.0273 -0.0015
 2176TIP3    H230724   4.582   8.104  16.848 -1.8505  1.4340  0.6698
 2177TIP3   OH230725   4.778   6.526  16.482  0.1592  0.6008  0.4805
 2177TIP3    H130726   4.842   6.596  16.498  1.6394 -0.4700 -0.6093
 2177TIP3    H230727   4.696   6.573  16.465  0.6987  2.0097  1.5535
 2178TIP3   OH230728   0.411   3.117  16.421  0.2285 -0.4624  0.2080
 2178TIP3    H130729   0.480   3.127  16.355 -0.4577  0.2975 -0.4083
 2178TIP3    H230730   0.452   3.065  16.491  1.2196 -0.5664 -0.4376
 2179TIP3   OH230731   7.314   5.144  16.460  0.0554 -0.5667 -0.2300
 2179TIP3    H130732   7.221   5.164  16.472  0.3700 -0.7253  3.7346
 2179TIP3    H230733   7.357   5.230  16.464  0.3450 -0.7234  3.3218
 2180TIP3   OH230734   3.736   0.905  16.442  0.5537 -0.5466  0.6506
 2180TIP3    H130735   3.679   0.975  16.409  1.0042 -0.2434  0.5023
 2180TIP3    H230736   3.694   0.876  16.523  0.7182  0.3739  1.0839
 2181TIP3   OH230737   4.644   8.421  16.467 -0.2837 -0.5451 -0.0566
 2181TIP3    H130738   4.715   8.453  16.524 -0.3035 -0.4102 -0.1086
 2181TIP3    H230739   4.677   8.434  16.378  0.2865 -1.9285 -0.0747
 2182TIP3   OH230740   1.601   5.675  17.924 -0.8211  0.4071 -0.4879
 2182TIP3    H130741   1.512   5.711  17.917 -0.5829  0.7773 -2.1670
 2182TIP3    H230742   1.622   5.648  17.834 -0.5325 -2.8522  0.4349
 2183TIP3   OH230743   4.356   4.247  16.420  0.4924  0.4630  0.1844
 2183TIP3    H130744   4.321   4.333  16.441  0.3623  0.8888 -1.6118
 2183TIP3    H230745   4.288   4.205  16.367  1.3179  0.0254 -0.5665
 2184TIP3   OH230746   1.246   1.887  17.304  0.1449  0.1390 -0.0836
 2184TIP3    H130747   1.294   1.968  17.285 -0.5566  0.0901 -2.3048
 2184TIP3    H230748   1.226   1.893  17.397  0.2584  2.4467 -0.1438
 2185TIP3   OH230749   4.238   3.427  17.683 -0.3572 -0.7417  0.0096
 2185TIP3    H130750   4.260   3.505  17.734 -0.1478 -1.2013  0.6427
 2185TIP3    H230751   4.252   3.453  17.592 -1.2448  0.2577  0.1324
 2186TIP3   OH230752   7.243   4.390  16.920  0.2703  0.4430  0.2467
 2186TIP3    H130753   7.326   4.373  16.963  0.6621  0.0404 -0.6490
 2186TIP3    H230754   7.259   4.466  16.864 -0.4906  1.5562  1.4871
 2187TIP3   OH230755   3.882   4.161  18.012 -0.3574  0.1648 -1.1543
 2187TIP3    H130756   3.948   4.145  17.945 -2.0511 -0.9250 -2.6392
 2187TIP3    H230757   3.901   4.097  18.081  0.9988  0.8598 -0.8454
 2188TIP3   OH230758   2.076   5.655  16.147 -0.4320  0.0614 -0.0180
 2188TIP3    H130759   2.051   5.719  16.080 -0.9263 -1.9810 -1.9063
 2188TIP3    H230760   1.996   5.641  16.198 -1.3423 -1.4533 -1.7484
 2189TIP3   OH230761   7.063   2.583  16.189  0.0222  0.3041 -0.4156
 2189TIP3    H130762   7.090   2.632  16.111  0.1149 -0.7353 -1.0475
 2189TIP3    H230763   7.001   2.518  16.157  0.3332 -0.3764  0.3166
 2190TIP3   OH230764   5.132   5.035  17.087 -0.0635  0.2279  0.7293
 2190TIP3    H130765   5.075   5.034  17.010 -1.8162  2.8074  1.8338
 2190TIP3    H230766   5.195   4.965  17.072  1.5127  2.3061 -4.4101
 2191TIP3   OH230767   0.064   4.517  17.125 -0.1882  0.1852 -0.2546
 2191TIP3    H130768   0.092   4.508  17.216  1.9050  0.3043 -0.8275
 2191TIP3    H230769  -0.030   4.534  17.130 -0.4360 -1.4437  1.7901
 2192TIP3   OH230770   2.642   2.201  16.525  0.3110  0.2346  0.5817
 2192TIP3    H130771   2.575   2.184  16.590  0.1784  1.4391  0.7813
 2192TIP3    H230772   2.615   2.283  16.484  0.2721 -0.5906 -1.1528
 2193TIP3   OH230773   6.927   7.052  17.653 -0.1776  0.2548  0.1392
 2193TIP3    H130774   6.984   7.002  17.594  0.0324 -0.2785  0.7713
 2193TIP3    H230775   6.839   7.043  17.616 -0.2989 -1.3993  0.7326
 2194TIP3   OH230776   0.059   4.360  16.898 -0.3728 -0.2726  0.1427
 2194TIP3    H130777   0.069   4.396  16.986  0.3601 -0.5132  0.1654
 2194TIP3    H230778   0.056   4.437  16.841  1.1854 -0.1502  0.1883
 2195TIP3   OH230779   1.714   3.737  17.016 -0.7715  0.6403 -0.1989
 2195TIP3    H130780   1.675   3.823  17.027  1.3367  1.6322  0.0260
 2195TIP3    H230781   1.707   3.695  17.102 -1.1138  0.8827 -0.1093
 2196TIP3   OH230782   6.816   0.476  16.412  0.0069  0.2033 -0.1332
 2196TIP3    H130783   6.848   0.562  16.439 -1.9354  1.1058 -0.4954
 2196TIP3    H230784   6.809   0.482  16.316  0.3883 -0.5614 -0.2153
 2197TIP3   OH230785   3.046   2.398  17.186  0.2430  0.0862  0.0332
 2197TIP3    H130786   3.025   2.448  17.107  0.2491  1.3590  0.8136
 2197TIP3    H230787   3.138   2.417  17.203  0.0982  0.2649  0.6473
 2198TIP3   OH230788   6.389   5.228  16.309  0.3965 -0.2494  0.3860
 2198TIP3    H130789   6.330   5.178  16.253  2.0020 -1.4314 -0.3262
 2198TIP3    H230790   6.346   5.232  16.394 -1.7683  0.9569 -0.6913
 2199TIP3   OH230791   4.097   5.322  15.823 -0.1198  0.5290  0.2907
 2199TIP3    H130792   4.006   5.293  15.831  0.0426  0.1515  0.8535
 2199TIP3    H230793   4.091   5.417  15.811 -0.5616  0.6577  1.3584
 2200TIP3   OH230794   2.856   0.005  15.498 -0.2250 -0.0421 -0.0952
 2200TIP3    H130795   2.915  -0.053  15.449 -1.3223 -0.2769 -1.1990
 2200TIP3    H230796   2.887   0.093  15.478  1.7345 -0.1763  1.9491
 2201TIP3   OH230797   2.850   3.316  17.680 -0.9042 -0.2348  0.0205
 2201TIP3    H130798   2.762   3.311  17.717 -1.2016 -0.2226 -0.6675
 2201TIP3    H230799   2.889   3.393  17.721 -1.0533 -0.4902  0.6574
 2202TIP3   OH230800   0.827   5.114  17.158 -0.5914 -0.1191  0.0175
 2202TIP3    H130801   0.732   5.130  17.161 -0.7316 -0.6323 -1.0843
 2202TIP3    H230802   0.862   5.186  17.107 -0.3777  0.0522  0.3974
 2203TIP3   OH230803   4.620   4.636  16.819  0.1875  0.5915  0.1580
 2203TIP3    H130804   4.640   4.728  16.832  0.3798  0.5513  0.1558
 2203TIP3    H230805   4.655   4.616  16.731  0.9902  0.2901  0.5262
 2204TIP3   OH230806   1.658   6.253  16.441  0.1415  0.0439 -0.4570
 2204TIP3    H130807   1.696   6.328  16.396  1.7678 -0.6834 -0.3532
 2204TIP3    H230808   1.679   6.268  16.534 -0.7597  0.1417 -0.2578
 2205TIP3   OH230809   5.840   8.217  16.842  0.0512 -0.4213 -0.1102
 2205TIP3    H130810   5.864   8.125  16.846  0.1496 -0.3800  0.3184
 2205TIP3    H230811   5.907   8.257  16.787 -1.8257 -1.1740 -3.1767
 2206TIP3   OH230812   0.399   1.914  17.828  0.0124 -0.0735  0.3033
 2206TIP3    H130813   0.353   1.928  17.745  2.6714 -0.5654 -1.3689
 2206TIP3    H230814   0.354   1.839  17.868 -1.6592  0.5164 -0.3792
 2207TIP3   OH230815   5.475   5.281  16.769  0.2114  0.6655  0.0383
 2207TIP3    H130816   5.488   5.374  16.785  0.1169  0.5783  0.6847
 2207TIP3    H230817   5.428   5.250  16.847  0.7173 -0.0269  0.0824
 2208TIP3   OH230818   8.008   7.536  16.945  0.4472 -0.5362  0.4833
 2208TIP3    H130819   7.925   7.505  16.911  0.5513 -0.5431  0.2303
 2208TIP3    H230820   8.072   7.512  16.878  0.7860 -1.3132  1.0714
 2209TIP3   OH230821   8.043   8.255  16.488  0.7001  0.3006  0.0960
 2209TIP3    H130822   7.973   8.213  16.438  0.4495  1.3142 -0.4342
 2209TIP3    H230823   8.120   8.250  16.431  0.8939 -0.2070  0.3956
 2210TIP3   OH230824   7.011   3.045  17.371 -0.5626 -0.5145 -0.2590
 2210TIP3    H130825   7.031   3.130  17.408 -0.4960 -1.7363  2.8180
 2210TIP3    H230826   6.935   3.060  17.315  0.0143  1.6788 -0.5382
 2211TIP3   OH230827   8.384   0.660  17.937  0.2056 -0.3704  0.1382
 2211TIP3    H130828   8.402   0.571  17.967  0.9804  0.0475  0.9643
 2211TIP3    H230829   8.449   0.675  17.868 -0.1410 -0.5538 -0.2326
 2212TIP3   OH230830   0.038   2.643  17.439  0.3685 -0.0074 -0.2519
 2212TIP3    H130831   0.113   2.609  17.488 -0.3896 -0.1625  0.8434
 2212TIP3    H230832   0.014   2.571  17.380  2.3291  0.7832 -2.1449
 2213TIP3   OH230833   2.863   1.650  15.837  0.3039  0.7991 -0.4026
 2213TIP3    H130834   2.838   1.738  15.809 -0.3892  0.7251 -0.0356
 2213TIP3    H230835   2.842   1.594  15.762  1.2427  1.0102 -0.8382
 2214TIP3   OH230836   6.210   8.088  17.863  0.3420 -0.2382  0.1677
 2214TIP3    H130837   6.273   8.058  17.928  0.8161 -0.7068 -0.4869
 2214TIP3    H230838   6.262   8.138  17.800  0.1905 -1.1589 -0.7228
 2215TIP3   OH230839   5.887   7.429  15.827  0.3899  0.4342  0.1981
 2215TIP3    H130840   5.926   7.516  15.836 -0.4896  0.7428  1.2689
 2215TIP3    H230841   5.794   7.442  15.846  0.2832 -0.7832  0.6238
 2216TIP3   OH230842   1.091   6.898  16.222  0.3202 -0.3927 -0.3099
 2216TIP3    H130843   1.002   6.868  16.205  0.7466 -0.2014 -3.6911
 2216TIP3    H230844   1.081   6.983  16.265 -1.1641 -0.0712 -1.2448
 2217TIP3   OH230845   3.007   8.420  16.326 -0.2234  0.3130 -0.0866
 2217TIP3    H130846   2.943   8.485  16.295  0.3612  0.0198 -2.0589
 2217TIP3    H230847   3.068   8.410  16.253 -0.3559 -2.5421  0.0873
 2218TIP3   OH230848   0.277   0.698  16.724  0.3663 -0.0238  0.2060
 2218TIP3    H130849   0.264   0.779  16.676 -0.2788 -1.0904 -1.5226
 2218TIP3    H230850   0.221   0.706  16.801 -0.9268  0.5621 -0.7545
 2219TIP3   OH230851   3.270   8.241  16.474  0.1583 -0.1548 -0.2023
 2219TIP3    H130852   3.234   8.179  16.412  0.0059 -0.4627  0.1924
 2219TIP3    H230853   3.351   8.272  16.433 -0.0847 -0.1447 -0.6778
 2220TIP3   OH230854   6.164   3.803  16.404  0.6675 -0.6712 -0.1164
 2220TIP3    H130855   6.183   3.842  16.319  3.1684 -0.7313  0.3394
 2220TIP3    H230856   6.211   3.720  16.404  1.3219 -0.3468  1.5540
 2221TIP3   OH230857   3.236   2.546  18.119 -0.0206  0.2218 -0.3143
 2221TIP3    H130858   3.263   2.508  18.203  0.6475 -2.2869 -1.5577
 2221TIP3    H230859   3.317   2.578  18.080  0.0155 -0.6042 -0.9226
 2222TIP3   OH230860   2.692   5.006  17.405  0.1082  0.2620  0.1857
 2222TIP3    H130861   2.677   4.915  17.429  2.0404 -0.3628 -0.6811
 2222TIP3    H230862   2.614   5.032  17.356 -1.6206 -0.0310  2.6400
 2223TIP3   OH230863   0.230   0.556  16.483  0.3560  0.0827 -0.3848
 2223TIP3    H130864   0.298   0.530  16.545 -1.4991 -1.1973  1.2260
 2223TIP3    H230865   0.150   0.559  16.535 -1.1502 -0.2171 -2.5506
 2224TIP3   OH230866   2.345   2.382  16.031 -0.6166 -0.1525  0.1985
 2224TIP3    H130867   2.269   2.439  16.038 -0.2714  0.2877  0.4009
 2224TIP3    H230868   2.420   2.441  16.022 -0.1467 -0.5314  1.3775
 2225TIP3   OH230869   5.227   3.278  17.507  0.0645 -0.3145  0.0822
 2225TIP3    H130870   5.233   3.374  17.505  0.3762 -0.3422 -1.3905
 2225TIP3    H230871   5.311   3.249  17.472 -0.1349 -1.1231  0.2694
 2226TIP3   OH230872   5.325   1.566  17.504 -0.3028 -0.2021  0.0537
 2226TIP3    H130873   5.358   1.641  17.455  0.0296  2.0771  3.3981
 2226TIP3    H230874   5.402   1.510  17.517  0.0129  0.1314 -0.3601
 2227TIP3   OH230875   4.467   2.856  15.876 -0.4779 -0.2133  0.5666
 2227TIP3    H130876   4.553   2.851  15.832 -0.2466  1.9544  0.6502
 2227TIP3    H230877   4.458   2.772  15.921  1.3550 -0.7072  0.1010
 2228TIP3   OH230878   6.025   1.243  16.733 -0.7993  0.0919 -0.3467
 2228TIP3    H130879   5.953   1.199  16.779 -0.9235  1.0634  0.4054
 2228TIP3    H230880   6.090   1.174  16.721 -0.1259  0.0792  2.6322
 2229TIP3   OH230881   7.825   4.830  16.833 -0.4644  0.1886  0.0830
 2229TIP3    H130882   7.837   4.751  16.886 -1.4808  0.0347  0.1050
 2229TIP3    H230883   7.783   4.799  16.753  1.3663  0.3631 -1.0065
 2230TIP3   OH230884   0.963   1.578  15.698  0.5355 -0.0842  0.3336
 2230TIP3    H130885   1.059   1.580  15.688  0.3650  1.9579 -1.5027
 2230TIP3    H230886   0.931   1.544  15.614 -0.3922  1.0782  0.1892
 2231TIP3   OH230887   7.699   0.909  15.867 -0.0198 -0.1784 -0.3410
 2231TIP3    H130888   7.672   0.997  15.842  0.3616  0.0964  0.1870
 2231TIP3    H230889   7.794   0.908  15.853 -0.0774 -0.6297 -0.7101
 2232TIP3   OH230890   0.596   7.553  15.883 -0.1454 -0.1134 -0.7891
 2232TIP3    H130891   0.646   7.520  15.809  0.9669 -1.0565  0.3335
 2232TIP3    H230892   0.537   7.481  15.906  1.6024 -1.0712  1.0536
 2233TIP3   OH230893   7.819   4.691  17.733 -0.9076 -0.0602 -0.2733
 2233TIP3    H130894   7.776   4.722  17.813 -0.3268 -0.9177  0.3926
 2233TIP3    H230895   7.816   4.766  17.674 -2.2396  0.2753  0.1850
 2234TIP3   OH230896   4.991   4.619  16.248 -0.2566  0.2610  0.4413
 2234TIP3    H130897   4.983   4.711  16.274 -0.5606  0.6038 -0.7897
 2234TIP3    H230898   5.080   4.611  16.215  0.4251 -0.3895  2.2931
 2235TIP3   OH230899   2.741   7.955  17.762 -0.1669  0.1253 -0.3035
 2235TIP3    H130900   2.784   8.001  17.689  1.2992 -0.1717  0.3354
 2235TIP3    H230901   2.648   7.966  17.745  0.1064 -0.4627 -2.5716
 2236TIP3   OH230902   2.753   1.624  16.109 -0.1715 -0.3311 -0.0748
 2236TIP3    H130903   2.804   1.643  16.031  0.2742  0.5998  0.4270
 2236TIP3    H230904   2.697   1.550  16.084  0.8839 -0.8805 -0.8525
 2237TIP3   OH230905   3.067   5.091  16.088 -0.0907 -0.0478  0.0579
 2237TIP3    H130906   3.154   5.051  16.082  0.3869  0.8959  0.5086
 2237TIP3    H230907   3.014   5.025  16.134  0.4495 -0.5279  0.0049
 2238TIP3   OH230908   5.813   5.602  16.585  0.4113  0.3495  0.0646
 2238TIP3    H130909   5.840   5.618  16.495  0.0092 -0.3568 -0.1912
 2238TIP3    H230910   5.747   5.669  16.603  1.2292  1.1341  0.1904
 2239TIP3   OH230911   6.474   1.441  15.408  0.1205  0.3340 -0.0628
 2239TIP3    H130912   6.526   1.452  15.488 -1.2378  0.5919  0.8111
 2239TIP3    H230913   6.523   1.491  15.342  0.0276  2.2077  1.1885
 2240TIP3   OH230914   2.127   5.118  16.574  0.2477 -0.1458  0.2310
 2240TIP3    H130915   2.042   5.161  16.580  0.0477 -0.3440 -0.9429
 2240TIP3    H230916   2.126   5.053  16.645 -1.6139 -1.8658 -1.2406
 2241TIP3   OH230917   3.986   3.200  16.499  0.5606  0.0122  0.1259
 2241TIP3    H130918   4.037   3.151  16.563  0.5079  1.1409  1.0862
 2241TIP3    H230919   4.014   3.167  16.414  1.3549 -0.8410  0.7047
 2242TIP3   OH230920   2.386   2.480  17.604 -0.1006 -0.1432  0.0500
 2242TIP3    H130921   2.395   2.434  17.688 -0.3500 -0.0312  0.1388
 2242TIP3    H230922   2.452   2.440  17.548  0.2437 -0.0418  0.3792
 2243TIP3   OH230923   7.132   0.979  16.752  0.3005  0.2570  0.1553
 2243TIP3    H130924   7.166   0.893  16.727  0.3977  0.9365 -2.2993
 2243TIP3    H230925   7.056   0.959  16.807 -0.6473 -1.4881 -1.6359
 2244TIP3   OH230926   1.150   7.140  16.563 -0.4650 -0.1643 -0.3458
 2244TIP3    H130927   1.127   7.055  16.602  0.4150 -0.4386 -0.3914
 2244TIP3    H230928   1.193   7.188  16.634 -0.1298 -0.1171 -0.5792
 2245TIP3   OH230929   2.475   8.041  17.666 -0.2405 -0.1456 -0.0047
 2245TIP3    H130930   2.408   8.109  17.670 -0.3473 -0.2660  0.3629
 2245TIP3    H230931   2.427   7.960  17.648 -0.0003  0.0283 -1.5184
 2246TIP3   OH230932   0.021   3.696  16.809  0.1526  0.3499  0.2959
 2246TIP3    H130933   0.078   3.767  16.779 -0.3602  0.9606  0.7575
 2246TIP3    H230934   0.016   3.637  16.733 -0.7599  1.6437 -0.7037
 2247TIP3   OH230935   3.754   2.886  17.302 -0.2083 -0.7972 -0.1215
 2247TIP3    H130936   3.682   2.843  17.255 -1.3880  0.3551  0.5809
 2247TIP3    H230937   3.711   2.942  17.366  1.3111  0.5597 -0.2326
 2248TIP3   OH230938   6.669   7.136  16.866  0.7382  0.2898  0.1476
 2248TIP3    H130939   6.585   7.096  16.889  0.4589 -0.3613 -1.8036
 2248TIP3    H230940   6.653   7.230  16.871 -0.9990  0.2758 -2.7073
 2249TIP3   OH230941   7.456   0.688  17.157  0.0123 -0.1385  0.6098
 2249TIP3    H130942   7.377   0.704  17.210 -0.3361 -1.5092  0.5425
 2249TIP3    H230943   7.477   0.774  17.119  0.0527  0.8191  2.6355
 2250TIP3   OH230944   1.686   7.972  16.120 -0.0853 -0.6000  0.0836
 2250TIP3    H130945   1.741   7.894  16.127  2.1098  0.9737  1.3973
 2250TIP3    H230946   1.661   7.993  16.210  1.0273  1.3062 -0.0066
 2251TIP3   OH230947   6.491   4.070  17.678 -0.5936  0.2064  0.1710
 2251TIP3    H130948   6.459   3.985  17.648  3.8941 -1.4561 -0.6577
 2251TIP3    H230949   6.509   4.058  17.771  2.6882 -0.8731 -0.4945
 2252TIP3   OH230950   6.814   8.193  17.794  0.2646  0.6923  0.3826
 2252TIP3    H130951   6.869   8.219  17.868 -0.5297  0.6789  0.9953
 2252TIP3    H230952   6.725   8.221  17.819  0.1187  1.5483 -0.9749
 2253TIP3   OH230953   0.947   7.914  16.124  0.6848 -0.5118  0.4016
 2253TIP3    H130954   1.031   7.954  16.148 -0.1936  1.9698 -0.3661
 2253TIP3    H230955   0.905   7.895  16.208  1.8176 -1.4550  0.7930
 2254TIP3   OH230956   7.117   4.628  17.082  0.0907 -0.0013 -0.1529
 2254TIP3    H130957   7.186   4.625  17.149  1.9557 -1.1260 -1.9829
 2254TIP3    H230958   7.117   4.540  17.044 -3.6074 -0.6035  0.8442
 2255TIP3   OH230959   5.937   4.591  16.723 -0.5647  0.3545  0.2508
 2255TIP3    H130960   6.003   4.658  16.738  0.6570 -0.3384 -1.6454
 2255TIP3    H230961   5.976   4.510  16.755 -0.4568 -0.0536 -0.8497
 2256TIP3   OH230962   2.489   6.445  16.773 -0.4271 -0.4609  0.3036
 2256TIP3    H130963   2.507   6.410  16.860  0.1576  0.5575  0.6015
 2256TIP3    H230964   2.571   6.432  16.725 -0.3438  0.0941  0.2880
 2257TIP3   OH230965   0.467   5.432  17.621 -0.1337 -0.2697 -0.1148
 2257TIP3    H130966   0.471   5.456  17.714  1.0011 -2.6281  0.5369
 2257TIP3    H230967   0.382   5.389  17.611 -0.7607  1.0078 -0.4927
 2258TIP3   OH230968   2.676   0.177  16.014  0.3525  0.3238 -0.2469
 2258TIP3    H130969   2.680   0.100  15.958 -0.3912  0.5174 -0.5769
 2258TIP3    H230970   2.715   0.247  15.962  0.9312  0.1971  0.0110
 2259TIP3   OH230971   4.825   0.124  16.769 -0.8695  0.6921  0.2578
 2259TIP3    H130972   4.764   0.168  16.710  1.4560  1.7540 -1.5211
 2259TIP3    H230973   4.877   0.194  16.808 -1.3395 -0.1109  2.4992
 2260TIP3   OH230974   6.298   5.758  16.071  0.1123 -0.2144  0.3137
 2260TIP3    H130975   6.348   5.679  16.047  1.0000  0.5955 -0.6202
 2260TIP3    H230976   6.267   5.740  16.160  2.1544 -0.7406  0.9889
 2261TIP3   OH230977   3.909   5.662  16.953  0.3210  0.0849  0.2631
 2261TIP3    H130978   3.935   5.696  17.039  1.6886 -0.3274  0.0354
 2261TIP3    H230979   3.834   5.606  16.971  0.0685  0.6561  1.0705
 2262TIP3   OH230980   2.139   5.107  15.727  0.1466 -0.3762 -0.0687
 2262TIP3    H130981   2.229   5.131  15.748 -0.5864  0.9104  1.9487
 2262TIP3    H230982   2.108   5.175  15.668  0.1284 -0.1156  0.2392
 2263TIP3   OH230983   5.725   5.677  17.126  0.0454 -0.1619  0.5031
 2263TIP3    H130984   5.750   5.648  17.038  1.6151  2.7735 -0.1546
 2263TIP3    H230985   5.630   5.685  17.123  0.1618  1.2196 -1.4720
 2264TIP3   OH230986   7.388   6.241  16.223  0.2888  0.3691  0.2074
 2264TIP3    H130987   7.454   6.271  16.161  0.6385  1.2216  0.9671
 2264TIP3    H230988   7.304   6.257  16.179  0.5608 -1.5797 -1.1466
 2265TIP3   OH230989   4.527   5.272  16.179 -0.1228  0.2096 -0.2412
 2265TIP3    H130990   4.497   5.355  16.219  0.1711 -1.4436  3.9438
 2265TIP3    H230991   4.621   5.270  16.197 -0.6530 -2.4514  3.0784
 2266TIP3   OH230992   3.137   0.187  17.720 -0.0472 -0.0983 -0.1806
 2266TIP3    H130993   3.198   0.121  17.686 -1.5216 -0.2301 -2.8406
 2266TIP3    H230994   3.058   0.137  17.742 -1.4167  0.7311 -2.8400
 2267TIP3   OH230995   5.784   5.908  16.428 -0.1471 -0.8172 -0.0888
 2267TIP3    H130996   5.848   5.852  16.384 -0.6851 -0.7519 -0.9705
 2267TIP3    H230997   5.700   5.867  16.412 -0.9355  1.6902 -3.2735
 2268TIP3   OH230998   3.551   7.860  16.128 -0.1002  1.0397 -0.7214
 2268TIP3    H130999   3.508   7.784  16.168 -0.1299  2.1931  1.6419
 2268TIP3    H231000   3.640   7.829  16.109  0.2126  0.6348  1.1740
 2269TIP3   OH231001   4.096   5.334  16.456 -0.5979  0.1870  0.1003
 2269TIP3    H131002   4.110   5.345  16.362 -0.1557  1.1550  0.2688
 2269TIP3    H231003   4.071   5.242  16.466 -1.2190  0.2165 -1.0226
 2270TIP3   OH231004   7.582   7.111  15.854 -0.5518  0.5154 -0.2078
 2270TIP3    H131005   7.621   7.126  15.768 -1.0149  2.1326 -0.1768
 2270TIP3    H231006   7.657   7.102  15.914 -0.2330  0.6837 -0.5797
 2271TIP3   OH231007   1.039   4.555  16.748 -0.0352  0.2845 -0.2443
 2271TIP3    H131008   1.100   4.535  16.676  1.1216  2.1697  0.1474
 2271TIP3    H231009   1.011   4.645  16.731  0.5353  0.8970  1.8119
 2272TIP3   OH231010   4.314   3.086  15.998  0.3877  0.3230 -0.9242
 2272TIP3    H131011   4.341   3.166  16.044  0.2199 -0.3315  0.3560
 2272TIP3    H231012   4.392   3.031  15.997  0.0104 -0.2371 -0.1577
 2273TIP3   OH231013   0.918   8.414  17.600  0.3134  0.3911 -0.6354
 2273TIP3    H131014   0.854   8.448  17.536  0.5334  0.2921 -0.9097
 2273TIP3    H231015   0.867   8.356  17.656  0.2483 -0.0453 -1.1364
 2274TIP3   OH231016   6.781   5.550  16.668 -0.1344 -0.7003  0.1104
 2274TIP3    H131017   6.871   5.566  16.639 -0.5171  1.4016 -0.0810
 2274TIP3    H231018   6.791   5.494  16.745  1.2902 -1.0095 -0.2559
 2275TIP3   OH231019   3.643   5.840  15.432  0.2826  0.5459  0.0904
 2275TIP3    H131020   3.663   5.850  15.525 -1.4049 -1.7543  0.7845
 2275TIP3    H231021   3.719   5.794  15.396  0.7277  1.0136  0.4228
 2276TIP3   OH231022   0.953   1.759  17.375  0.2332  0.3460 -0.0105
 2276TIP3    H131023   0.896   1.824  17.335  0.1216 -0.2091 -0.7841
 2276TIP3    H231024   0.948   1.777  17.469 -0.1549  1.1496 -0.1792
 2277TIP3   OH231025   0.787   1.866  16.117 -0.0289  0.1773  0.0666
 2277TIP3    H131026   0.694   1.876  16.101  0.1470 -0.5706 -1.5385
 2277TIP3    H231027   0.827   1.865  16.030  1.2941 -1.2153  0.6519
 2278TIP3   OH231028   7.230   8.070  16.186 -0.8001 -0.0367 -0.4754
 2278TIP3    H131029   7.204   8.138  16.123 -0.4903  0.3652 -0.1737
 2278TIP3    H231030   7.161   8.004  16.180 -1.4037  0.5722 -0.3676
 2279TIP3   OH231031   0.376   3.503  16.911  0.3178 -0.2668 -0.4882
 2279TIP3    H131032   0.388   3.427  16.854  2.3313  0.2263 -0.7991
 2279TIP3    H231033   0.354   3.466  16.997 -0.7882 -1.0813 -1.0883
 2280TIP3   OH231034   7.651   7.453  17.794 -0.3353  0.5329 -0.4522
 2280TIP3    H131035   7.600   7.528  17.823 -2.0643 -0.2889 -1.1752
 2280TIP3    H231036   7.629   7.444  17.701  3.3829  1.8299 -1.6409
 2281TIP3   OH231037   6.858   7.764  17.301 -0.0027 -0.0319 -0.3563
 2281TIP3    H131038   6.842   7.762  17.207 -1.9143  0.9846 -0.0916
 2281TIP3    H231039   6.918   7.691  17.317  1.8674  0.8666 -2.5947
 2282TIP3   OH231040   7.316   5.312  17.068  0.0604 -0.1787  0.0874
 2282TIP3    H131041   7.407   5.341  17.061 -0.1358  0.2677 -0.7716
 2282TIP3    H231042   7.300   5.261  16.988 -1.0421  1.5054 -0.8260
 2283TIP3   OH231043   2.771   0.470  16.416 -0.0142 -0.5174  0.0863
 2283TIP3    H131044   2.861   0.499  16.397  0.1706 -0.2557  1.2632
 2283TIP3    H231045   2.740   0.533  16.481 -1.3158 -0.1919 -0.8230
 2284TIP3   OH231046   5.684   1.116  17.850  0.0883  0.5294 -0.4354
 2284TIP3    H131047   5.775   1.110  17.880 -0.6523 -0.9411  1.7690
 2284TIP3    H231048   5.642   1.175  17.914 -0.6986  0.5073 -0.9182
 2285TIP3   OH231049   0.862   2.906  17.466  0.0225  0.1615  0.1694
 2285TIP3    H131050   0.906   2.991  17.469  2.1510 -0.8961  2.7597
 2285TIP3    H231051   0.921   2.851  17.414 -0.2013 -0.3131  0.4155
 2286TIP3   OH231052   0.607   6.347  15.690  0.6477 -0.2301  0.2327
 2286TIP3    H131053   0.525   6.337  15.739 -0.6232  0.5605 -1.5707
 2286TIP3    H231054   0.615   6.442  15.677  1.0733 -0.3884 -0.7971
 2287TIP3   OH231055   1.454   4.534  17.388  0.0444 -0.1732  0.0295
 2287TIP3    H131056   1.486   4.478  17.318 -0.5876  1.6852 -1.8472
 2287TIP3    H231057   1.367   4.562  17.360  1.0035  3.1780 -0.1250
 2288TIP3   OH231058   6.589   3.022  16.780 -0.3238 -0.4072 -0.6719
 2288TIP3    H131059   6.650   3.004  16.852  0.2272 -0.0495 -1.0355
 2288TIP3    H231060   6.536   2.943  16.773 -0.0647 -0.6302 -0.1852
 2289TIP3   OH231061   8.300   5.233  16.339 -0.8008  0.0393 -0.9643
 2289TIP3    H131062   8.274   5.244  16.247  0.6392 -1.2006 -1.5676
 2289TIP3    H231063   8.396   5.235  16.337 -0.7446 -0.0809  0.5022
 2290TIP3   OH231064   4.790   3.270  16.446  0.4961  0.4431  0.0239
 2290TIP3    H131065   4.873   3.226  16.428  0.1861  0.8487 -2.8464
 2290TIP3    H231066   4.797   3.353  16.400 -1.7740  0.1305 -1.0087
 2291TIP3   OH231067   4.806   8.043  16.998  0.0851  0.3156  0.4847
 2291TIP3    H131068   4.822   7.950  16.979 -0.3021  0.5785 -1.2966
 2291TIP3    H231069   4.791   8.082  16.913  0.4723  2.0852  1.1917
 2292TIP3   OH231070   0.014   7.648  17.997 -0.0466  0.2189 -0.1453
 2292TIP3    H131071   0.039   7.632  18.088  1.0957  0.5809 -0.3846
 2292TIP3    H231072   0.062   7.582  17.947 -1.5810 -0.7588 -0.4063
 2293TIP3   OH231073   2.945   5.566  15.319  0.5619 -0.0280 -0.1536
 2293TIP3    H131074   3.013   5.542  15.256  0.4360  0.2810 -0.4097
 2293TIP3    H231075   2.935   5.488  15.375 -0.4069 -0.8793 -1.4525
 2294TIP3   OH231076   7.028   6.923  15.641  0.1402 -0.0566  0.3127
 2294TIP3    H131077   7.066   6.920  15.729  0.0207  0.8843  0.4064
 2294TIP3    H231078   7.046   6.836  15.604  1.2784 -0.0515  0.8107
 2295TIP3   OH231079   0.136   1.966  16.213 -0.1976 -0.5872  0.1319
 2295TIP3    H131080   0.184   1.983  16.132 -0.3054 -1.6159 -0.1653
 2295TIP3    H231081   0.182   2.016  16.279  0.6341 -0.6963 -0.3473
 2296TIP3   OH231082   1.691   1.988  16.305  0.3545 -0.3487  0.0238
 2296TIP3    H131083   1.726   1.921  16.363 -1.7215  0.7743  2.8527
 2296TIP3    H231084   1.681   2.065  16.361  0.8406  1.7629 -2.5987
 2297TIP3   OH231085   7.144   1.227  18.045  0.1599 -0.0165  0.4197
 2297TIP3    H131086   7.216   1.164  18.046  0.3791  0.2073 -0.2940
 2297TIP3    H231087   7.186   1.312  18.032 -0.3528 -0.1689 -3.1999
 2298TIP3   OH231088   0.212   1.804  16.596  0.0580 -0.2146 -0.0044
 2298TIP3    H131089   0.134   1.763  16.559 -0.7899  0.6042  0.8010
 2298TIP3    H231090   0.188   1.896  16.606  1.1459  0.0590  0.2377
 2299TIP3   OH231091   5.607   5.239  17.454  0.2119 -0.5154 -0.1029
 2299TIP3    H131092   5.610   5.333  17.434 -0.8319  0.0297  1.9270
 2299TIP3    H231093   5.698   5.215  17.470  0.6999 -0.3037 -2.3281
 2300TIP3   OH231094   0.140   5.618  17.994 -0.2665  0.2126 -0.2103
 2300TIP3    H131095   0.205   5.688  17.984  0.5616 -0.8262 -3.1936
 2300TIP3    H231096   0.060   5.655  17.958 -0.4498  0.3702  0.3514
 2301TIP3   OH231097   4.915   2.725  17.836 -0.7037  0.2283 -0.0612
 2301TIP3    H131098   4.838   2.682  17.874 -2.1977  2.1898 -0.7173
 2301TIP3    H231099   4.948   2.663  17.771 -0.1255 -1.7351  1.9614
 2302TIP3   OH231100   6.066   3.722  17.685 -0.2445 -0.3845 -0.0468
 2302TIP3    H131101   6.146   3.683  17.721  1.0363  1.4392 -0.7788
 2302TIP3    H231102   6.000   3.707  17.753  0.6843 -1.9361  0.5842
 2303TIP3   OH231103   1.688   2.420  16.217  0.1004 -0.1802 -0.0803
 2303TIP3    H131104   1.637   2.467  16.150 -0.9256  3.0646  2.6757
 2303TIP3    H231105   1.778   2.449  16.203  0.4995 -1.9885 -1.8296
 2304TIP3   OH231106   6.629   8.346  17.917  0.2970  0.1754  0.5225
 2304TIP3    H131107   6.716   8.385  17.929  0.2624  0.6725 -0.7373
 2304TIP3    H231108   6.570   8.404  17.964  0.3617  1.1762 -0.5879
 2305TIP3   OH231109   4.628   6.008  16.255 -0.4670  0.1571 -0.2991
 2305TIP3    H131110   4.601   5.961  16.176  2.3422 -0.4440 -1.0317
 2305TIP3    H231111   4.613   6.100  16.235 -0.2141 -0.0212 -1.3879
 2306TIP3   OH231112   5.544   4.612  16.440 -0.2413  0.2727 -0.3249
 2306TIP3    H131113   5.530   4.666  16.362 -2.2998 -0.4093 -0.4723
 2306TIP3    H231114   5.556   4.523  16.405  0.8753  0.2627  0.0444
 2307TIP3   OH231115   1.573   5.904  15.394  0.0024 -0.0597 -0.3148
 2307TIP3    H131116   1.611   5.935  15.476  0.9972 -0.4252 -0.6158
 2307TIP3    H231117   1.524   5.979  15.360 -1.3660 -0.2580  1.1501
 2308TIP3   OH231118   5.885   1.605  17.342  0.2248 -0.5895 -0.2906
 2308TIP3    H131119   5.816   1.568  17.287  0.2091  0.3521 -0.9379
 2308TIP3    H231120   5.966   1.590  17.293  0.4737 -1.5257  0.3819
 2309TIP3   OH231121   0.427   3.013  17.910 -0.4370 -0.1919 -0.6758
 2309TIP3    H131122   0.513   2.991  17.873  0.5197 -1.0055  1.7967
 2309TIP3    H231123   0.438   3.102  17.944 -0.3760 -0.4932  0.1147
 2310TIP3   OH231124   7.248   2.841  16.305  0.2638  0.1118  0.4325
 2310TIP3    H131125   7.267   2.908  16.239 -1.1828 -0.6767 -0.8539
 2310TIP3    H231126   7.305   2.768  16.282  0.3138  0.1201  0.5320
 2311TIP3   OH231127   0.565   0.699  17.245  0.3539  0.5368  0.0904
 2311TIP3    H131128   0.618   0.753  17.304  1.4454  0.5554 -0.8704
 2311TIP3    H231129   0.559   0.750  17.164 -0.5325  0.2028 -0.0692
 2312TIP3   OH231130   2.223   2.106  17.840  0.3012 -0.2399 -0.0311
 2312TIP3    H131131   2.163   2.053  17.788 -0.8735  0.7752  0.2620
 2312TIP3    H231132   2.167   2.162  17.894  1.4533  1.6362 -0.6547
 2313TIP3   OH231133   0.984   6.962  17.686  0.0783  0.5310  0.1249
 2313TIP3    H131134   1.023   6.970  17.773  1.1349  0.4907 -0.3339
 2313TIP3    H231135   0.972   7.053  17.657  2.8906  0.6276 -1.0414
 2314TIP3   OH231136   7.465   2.032  17.575 -0.1901  0.5512  0.3455
 2314TIP3    H131137   7.401   1.962  17.561  0.2397  0.3452 -0.6327
 2314TIP3    H231138   7.417   2.113  17.557 -0.0426  0.3672 -1.0041
 2315TIP3   OH231139   4.085   7.022  16.739  0.1470  0.2827  0.7732
 2315TIP3    H131140   4.057   6.931  16.752  2.0244 -0.4278  0.2007
 2315TIP3    H231141   4.115   7.025  16.648  0.5893  1.3426  0.9351
 2316TIP3   OH231142   6.277   7.540  16.238 -0.5411  0.0018  0.1791
 2316TIP3    H131143   6.317   7.459  16.269 -0.3878 -0.7529 -1.8218
 2316TIP3    H231144   6.247   7.520  16.149 -3.6269  1.1239  0.8253
 2317TIP3   OH231145   3.661   6.766  16.908  0.4113 -0.2534 -0.1816
 2317TIP3    H131146   3.735   6.736  16.855  0.5355 -0.4773  0.1195
 2317TIP3    H231147   3.685   6.743  16.998  0.8685  1.4526  0.1617
 2318TIP3   OH231148   2.401   4.909  16.994  0.0460 -0.1662 -0.2561
 2318TIP3    H131149   2.458   4.986  16.982 -1.8382  1.3971  0.3057
 2318TIP3    H231150   2.388   4.904  17.089 -0.6395 -0.5840 -0.3686
 2319TIP3   OH231151   7.311   4.724  16.249  0.1485  0.2796 -0.3852
 2319TIP3    H131152   7.395   4.757  16.216  0.6629  0.9080  1.4651
 2319TIP3    H231153   7.322   4.629  16.250  1.0433  0.3789  0.3396
 2320TIP3   OH231154   6.664   0.520  18.037 -0.6665 -0.7046 -0.1956
 2320TIP3    H131155   6.680   0.505  18.130 -0.9174 -0.7144 -0.1508
 2320TIP3    H231156   6.745   0.493  17.993 -0.3535 -0.2007  0.0669
 2321TIP3   OH231157   6.894   8.057  16.539 -0.3154 -0.4789 -0.7647
 2321TIP3    H131158   6.940   7.974  16.528  0.6404 -0.1583  0.6542
 2321TIP3    H231159   6.887   8.092  16.450  1.5361 -0.8693 -1.0979
 2322TIP3   OH231160   2.655   5.420  16.754  0.7258 -0.3945  0.0284
 2322TIP3    H131161   2.715   5.357  16.796  1.2037  0.0527  0.0289
 2322TIP3    H231162   2.697   5.505  16.767  0.0447 -0.0612  0.0985
 2323TIP3   OH231163   5.403   5.258  17.754  0.5546 -0.3743 -0.0823
 2323TIP3    H131164   5.311   5.251  17.780  0.5557 -0.8043 -0.1898
 2323TIP3    H231165   5.429   5.168  17.736  1.2477 -0.3651  0.7955
 2324TIP3   OH231166   8.413   1.128  16.359 -0.0631 -0.2165 -0.2400
 2324TIP3    H131167   8.377   1.129  16.270 -0.4918 -0.0612 -0.0678
 2324TIP3    H231168   8.448   1.215  16.372  2.2390 -0.9358 -1.1392
 2325TIP3   OH231169   7.104   1.930  16.958  0.5657 -0.1673  0.4585
 2325TIP3    H131170   7.169   1.867  16.990 -0.2151 -0.4101  1.6389
 2325TIP3    H231171   7.047   1.945  17.033 -2.3039 -1.9445 -1.1775
 2326TIP3   OH231172   7.054   5.123  16.515 -0.0977 -0.1368  0.0639
 2326TIP3    H131173   6.987   5.079  16.567  1.4163 -0.6435  1.7170
 2326TIP3    H231174   7.011   5.201  16.480 -1.2368  0.2013  2.0640
 2327TIP3   OH231175   7.404   7.394  16.869 -0.0029  0.3050 -0.5734
 2327TIP3    H131176   7.421   7.378  16.777  0.8597 -1.2976 -0.1690
 2327TIP3    H231177   7.477   7.448  16.899 -0.1164  0.5589 -0.7563
 2328TIP3   OH231178   5.867   4.470  15.621  0.1127  0.4077 -0.0043
 2328TIP3    H131179   5.886   4.456  15.528  0.1345  1.2802 -0.1368
 2328TIP3    H231180   5.773   4.458  15.629  0.3036 -1.2253  0.1594
 2329TIP3   OH231181   1.397   1.304  17.004  0.0802 -0.3506 -0.0431
 2329TIP3    H131182   1.479   1.311  16.955 -0.6597  0.3977 -1.2062
 2329TIP3    H231183   1.405   1.220  17.051  0.9371 -0.9404 -1.1968
 2330TIP3   OH231184   1.156   2.741  17.873  0.1413  0.5600  0.5808
 2330TIP3    H131185   1.149   2.652  17.909  3.1491  0.2834  0.7729
 2330TIP3    H231186   1.250   2.758  17.872 -0.3600  4.2841  1.8143
 2331TIP3   OH231187   6.418   7.258  17.467 -0.0345  0.1823  0.0800
 2331TIP3    H131188   6.369   7.180  17.441 -0.8016  0.7898 -0.3405
 2331TIP3    H231189   6.401   7.267  17.561 -0.7342  0.3887 -0.0636
 2332TIP3   OH231190   1.934   7.868  16.876 -0.3109 -0.6419  0.0635
 2332TIP3    H131191   1.934   7.915  16.793  0.6864 -0.5861  0.0936
 2332TIP3    H231192   1.842   7.846  16.890 -0.6570  0.4196 -0.4383
 2333TIP3   OH231193   2.412   2.870  15.791 -0.4074 -0.5240  0.1327
 2333TIP3    H131194   2.398   2.816  15.713  0.1760 -0.4262 -0.0407
 2333TIP3    H231195   2.504   2.896  15.787 -0.6227  0.3202  0.3178
 2334TIP3   OH231196   3.929   1.987  17.116  0.1311 -0.0829  0.0488
 2334TIP3    H131197   3.880   1.922  17.166  1.1065 -0.2234  0.8605
 2334TIP3    H231198   3.901   2.072  17.151 -0.9592 -0.0563 -0.8407
 2335TIP3   OH231199   6.635   6.938  17.326 -0.4744  0.4528 -0.5032
 2335TIP3    H131200   6.621   7.032  17.315  1.4062  0.7670 -0.6163
 2335TIP3    H231201   6.562   6.898  17.279 -0.4611  1.8609 -1.8364
 2336TIP3   OH231202   4.014   0.755  15.878 -0.2156 -0.4856 -0.0437
 2336TIP3    H131203   4.042   0.664  15.886  1.0673 -0.0960  0.1755
 2336TIP3    H231204   3.925   0.756  15.914 -0.9327 -1.9577 -1.6805
 2337TIP3   OH231205   3.519   6.153  17.658  0.2294 -0.7397  0.0960
 2337TIP3    H131206   3.563   6.216  17.715 -1.3030  0.0108  0.5190
 2337TIP3    H231207   3.438   6.198  17.631 -0.7685 -2.4072  0.1848
 2338TIP3   OH231208   7.186   6.401  16.490 -0.2657 -0.1922 -0.0167
 2338TIP3    H131209   7.193   6.486  16.447 -0.7874  0.2843  0.8285
 2338TIP3    H231210   7.276   6.369  16.495  0.0894  0.9048  0.8571
 2339TIP3   OH231211   2.182   4.298  17.416  0.7393  0.5008  0.0312
 2339TIP3    H131212   2.090   4.286  17.443  1.5578 -1.5373  2.2462
 2339TIP3    H231213   2.223   4.342  17.491  1.9893 -0.5376 -0.0206
 2340TIP3   OH231214   5.282   5.855  16.533 -0.5368  0.5022  0.1630
 2340TIP3    H131215   5.325   5.915  16.594  1.5115 -2.8057  2.2941
 2340TIP3    H231216   5.191   5.854  16.560  0.0678  0.1610  2.3644
 2341TIP3   OH231217   7.521   7.925  16.212  0.3677  0.2472  0.4042
 2341TIP3    H131218   7.491   7.971  16.291 -0.4921  1.5651 -0.6334
 2341TIP3    H231219   7.561   7.994  16.159 -0.1677 -0.3804 -0.8334
 2342TIP3   OH231220   6.723   0.788  16.593  0.4471  0.1928 -0.0137
 2342TIP3    H131221   6.752   0.864  16.542  2.4242 -0.6839 -0.3122
 2342TIP3    H231222   6.805   0.743  16.616 -0.6220 -1.3444  0.9311
 2343TIP3   OH231223   5.676   3.531  17.853  0.3129  0.1649  0.0257
 2343TIP3    H131224   5.731   3.456  17.830 -0.9793 -1.2346  1.3176
 2343TIP3    H231225   5.633   3.555  17.770  0.8648 -0.3993 -0.4373
 2344TIP3   OH231226   6.077   3.417  16.254 -0.3046  0.1519  0.4053
 2344TIP3    H131227   6.041   3.494  16.298  0.7194  0.8961 -0.0308
 2344TIP3    H231228   6.088   3.445  16.163  0.6277 -0.3106  0.3714
 2345TIP3   OH231229   7.661   7.199  16.810  0.0557  0.2548 -0.0382
 2345TIP3    H131230   7.705   7.272  16.853 -0.5663  0.1456  0.8166
 2345TIP3    H231231   7.661   7.221  16.717 -3.4084  3.1969  0.4650
 2346TIP3   OH231232   0.950   2.393  17.520 -0.4223 -0.2998 -0.3387
 2346TIP3    H131233   1.014   2.328  17.547  0.4414  0.2445 -1.0029
 2346TIP3    H231234   1.000   2.474  17.513 -1.3951  0.3508  0.0773
 2347TIP3   OH231235   0.634   3.431  16.812 -0.2907 -0.1646  0.5201
 2347TIP3    H131236   0.723   3.404  16.790  0.1254  0.6213  1.1571
 2347TIP3    H231237   0.607   3.370  16.881  0.0872  0.1023  0.9173
 2348TIP3   OH231238   6.362   1.533  15.714  0.3282 -0.1961  0.2726
 2348TIP3    H131239   6.454   1.508  15.726  0.4468  0.7615  1.5248
 2348TIP3    H231240   6.364   1.606  15.653  0.4186 -0.0311  0.4734
 2349TIP3   OH231241   6.163   0.838  16.563 -0.4437 -0.2432 -0.5990
 2349TIP3    H131242   6.099   0.798  16.622 -1.5818  2.6832  0.3530
 2349TIP3    H231243   6.207   0.905  16.616  0.2172  0.8546 -2.4127
 2350TIP3   OH231244   2.366   1.480  17.379  0.1734 -0.3449 -0.0561
 2350TIP3    H131245   2.271   1.475  17.369  0.3608 -0.5532 -2.1917
 2350TIP3    H231246   2.391   1.395  17.414 -0.4195 -0.2912  0.5142
 2351TIP3   OH231247   7.875   7.070  17.554  0.4623  0.2028 -0.0672
 2351TIP3    H131248   7.971   7.068  17.554  0.4897 -1.7046  1.7249
 2351TIP3    H231249   7.850   7.023  17.633 -1.9751  0.5760 -0.5451
 2352TIP3   OH231250   3.176   1.944  16.067  0.2840  0.7422  0.3815
 2352TIP3    H131251   3.261   1.965  16.027  0.2069  1.1667  0.4328
 2352TIP3    H231252   3.113   1.999  16.020 -0.3266 -1.1821 -1.1989
 2353TIP3   OH231253   5.174   2.815  15.661 -0.3686  0.1899 -0.2743
 2353TIP3    H131254   5.182   2.890  15.602  0.4832  0.8222  0.6232
 2353TIP3    H231255   5.081   2.813  15.685 -0.5708  0.3988 -1.0098
 2354TIP3   OH231256   0.912   3.327  16.014 -0.5067 -0.4318 -0.3275
 2354TIP3    H131257   0.847   3.327  16.085 -0.4375 -1.8868 -0.2383
 2354TIP3    H231258   0.915   3.236  15.984  0.3646 -0.0769 -1.3831
 2355TIP3   OH231259   7.659   3.559  16.255  0.4875 -0.1903  0.5244
 2355TIP3    H131260   7.602   3.626  16.216 -0.6203 -0.3295  1.8682
 2355TIP3    H231261   7.600   3.490  16.283  1.3669 -0.5714  1.4981
 2356TIP3   OH231262   3.810   6.005  15.881  0.5041  0.5553  0.0542
 2356TIP3    H131263   3.781   6.040  15.797  0.5814  1.1480  0.2666
 2356TIP3    H231264   3.761   5.924  15.892  0.5237  0.4511 -0.5808
 2357TIP3   OH231265   3.565   2.240  17.788  0.0103 -0.1968  0.8434
 2357TIP3    H131266   3.521   2.224  17.871 -1.6875  1.5121  0.3474
 2357TIP3    H231267   3.570   2.335  17.780 -0.5610 -0.2756 -1.3081
 2358TIP3   OH231268   4.197   2.928  17.712  0.8526 -0.2187  0.1927
 2358TIP3    H131269   4.238   2.904  17.795  0.3314 -0.9124  0.2638
 2358TIP3    H231270   4.150   3.009  17.731 -1.1013 -1.5076  1.2105
 2359TIP3   OH231271   3.864   6.289  17.052  0.0279 -0.8462 -0.7118
 2359TIP3    H131272   3.869   6.196  17.074  1.0368 -0.5150  0.5412
 2359TIP3    H231273   3.771   6.309  17.052 -0.1127 -1.1328  2.2907
 2360TIP3   OH231274   5.078   7.169  17.543 -0.3893 -0.5703 -0.3925
 2360TIP3    H131275   5.171   7.187  17.555 -0.3493 -0.3016 -1.0367
 2360TIP3    H231276   5.036   7.255  17.545 -0.6360 -0.7027  0.0227
 2361TIP3   OH231277   3.821   1.423  17.857 -0.5901  0.2065  0.4541
 2361TIP3    H131278   3.783   1.482  17.792 -0.7982  0.0408  0.4246
 2361TIP3    H231279   3.860   1.481  17.923  1.3126  0.3939 -0.7742
 2362TIP3   OH231280   3.866   0.235  16.066 -0.2521  0.0591  1.3409
 2362TIP3    H131281   3.782   0.227  16.021 -0.2260 -0.9330  1.4355
 2362TIP3    H231282   3.845   0.219  16.158 -0.0233  0.2079  1.4182
 2363TIP3   OH231283   1.729   5.727  15.896 -0.6706  0.6095 -0.3291
 2363TIP3    H131284   1.692   5.652  15.850  0.7579 -0.2477 -0.1435
 2363TIP3    H231285   1.792   5.765  15.835  1.1059 -0.4256  0.7739
 2364TIP3   OH231286   0.868   7.263  15.985 -0.2726 -0.6146  0.1601
 2364TIP3    H131287   0.828   7.200  15.925 -0.3226 -0.7683  0.3550
 2364TIP3    H231288   0.910   7.327  15.928 -1.2947 -0.1277 -0.0643
 2365TIP3   OH231289   7.680   2.070  17.904  0.1793  0.0865  0.1323
 2365TIP3    H131290   7.764   2.058  17.947  0.1847 -0.2256  0.0401
 2365TIP3    H231291   7.642   1.982  17.900 -0.0155  0.1784 -0.0980
 2366TIP3   OH231292   1.752   4.716  17.345  0.2908 -0.0235  0.0507
 2366TIP3    H131293   1.733   4.806  17.322  0.2074  0.2540  1.1576
 2366TIP3    H231294   1.680   4.689  17.402  1.3345 -0.1166  1.3784
 2367TIP3   OH231295   2.024   3.090  16.826  0.1696  0.0357  0.2586
 2367TIP3    H131296   2.012   3.150  16.900 -1.2667 -1.9662  1.7446
 2367TIP3    H231297   1.980   3.134  16.753 -0.9306  0.7716  1.3247
 2368TIP3   OH231298   2.178   5.179  16.224 -0.0118 -0.0975 -0.2334
 2368TIP3    H131299   2.091   5.162  16.262 -0.6536  0.0175 -1.6017
 2368TIP3    H231300   2.228   5.216  16.296 -0.7867 -1.0904  0.8644
 2369TIP3   OH231301   5.543   7.303  17.684  0.3273  0.2870  0.6052
 2369TIP3    H131302   5.548   7.366  17.756  2.1257 -1.0629  1.7360
 2369TIP3    H231303   5.634   7.291  17.656 -0.1701 -0.4545 -0.7929
 2370TIP3   OH231304   0.156   3.894  16.663 -0.7335 -0.0955 -0.0005
 2370TIP3    H131305   0.077   3.909  16.610 -0.2701  0.5170 -0.5359
 2370TIP3    H231306   0.172   3.979  16.704 -0.3352 -0.2125  0.0826
 2371TIP3   OH231307   0.465   2.053  17.222 -0.1352 -0.1364 -0.1775
 2371TIP3    H131308   0.385   2.032  17.271  0.6636  1.8601  2.1992
 2371TIP3    H231309   0.536   2.015  17.274  0.7883  2.4995  0.6503
 2372TIP3   OH231310   7.991   0.235  17.743 -0.0530 -0.0361  0.3623
 2372TIP3    H131311   8.053   0.301  17.772  0.6068 -1.2137  1.7579
 2372TIP3    H231312   7.984   0.248  17.648 -0.1668  2.1687  0.6207
 2373TIP3   OH231313   5.362   5.828  16.840  0.4669  0.5191  0.4685
 2373TIP3    H131314   5.303   5.882  16.788  1.1115  0.5347 -0.2569
 2373TIP3    H231315   5.305   5.769  16.889 -0.1041 -0.4549 -1.3102
 2374TIP3   OH231316   5.772   4.308  16.991  0.5028  0.1619  0.0439
 2374TIP3    H131317   5.692   4.357  16.975  2.5594  3.6471 -0.4945
 2374TIP3    H231318   5.802   4.339  17.077  0.5950 -2.2197  0.9494
 2375TIP3   OH231319   7.140   1.044  15.549  1.0991 -0.5005 -0.4690
 2375TIP3    H131320   7.047   1.029  15.532  1.1172  0.6067 -1.6904
 2375TIP3    H231321   7.157   1.132  15.515  2.4364 -0.3856  0.4030
 2376TIP3   OH231322   2.059   1.274  17.041  0.1648 -0.1365 -0.1234
 2376TIP3    H131323   2.064   1.244  16.951  3.5752 -0.2707 -0.0405
 2376TIP3    H231324   2.019   1.201  17.089  0.9209 -1.2675 -1.1503
 2377TIP3   OH231325   3.175   5.861  17.630  0.6156 -0.5609 -0.2262
 2377TIP3    H131326   3.136   5.932  17.681  1.8224  0.4276 -0.6544
 2377TIP3    H231327   3.104   5.797  17.620 -0.8645  1.1114 -0.8534
 2378TIP3   OH231328   2.370   3.065  17.431  0.7744  0.1583  0.5552
 2378TIP3    H131329   2.297   3.111  17.473 -0.3662 -0.6465 -0.4885
 2378TIP3    H231330   2.407   3.128  17.370  2.2428  1.2310  2.4235
 2379TIP3   OH231331   4.837   3.943  16.839 -0.2522 -0.3126  0.3642
 2379TIP3    H131332   4.772   3.894  16.888  0.1694 -1.3921 -0.1111
 2379TIP3    H231333   4.824   3.916  16.748 -0.3414  0.8543  0.0202
 2380TIP3   OH231334   2.778   3.838  17.138 -0.4261 -0.0211  0.7843
 2380TIP3    H131335   2.820   3.923  17.149 -1.4676  0.6601 -0.2908
 2380TIP3    H231336   2.844   3.775  17.169  1.2624  1.0227 -0.4700
 2381TIP3   OH231337   1.927   6.757  16.101  0.1535 -0.5652 -0.0749
 2381TIP3    H131338   1.918   6.682  16.160  1.6586 -0.3997  0.4077
 2381TIP3    H231339   1.848   6.809  16.117 -0.2520 -1.3498  0.5859
 2382TIP3   OH231340   2.573   0.740  15.767 -0.2573 -0.4577 -0.1820
 2382TIP3    H131341   2.637   0.674  15.741  0.2199 -0.1870  0.2980
 2382TIP3    H231342   2.554   0.788  15.686  2.4603  1.4722  0.2242
 2383TIP3   OH231343   4.337   0.137  17.196 -0.1233 -0.7974  0.0542
 2383TIP3    H131344   4.321   0.044  17.211  1.5999 -1.1707 -0.2315
 2383TIP3    H231345   4.265   0.165  17.139 -0.3871 -2.0796 -0.2695
 2384TIP3   OH231346   2.475   6.601  15.821 -0.5128 -0.2302 -0.3407
 2384TIP3    H131347   2.497   6.684  15.777 -0.4238 -0.1138 -0.0767
 2384TIP3    H231348   2.413   6.559  15.762 -1.2455  0.4313 -0.0622
 2385TIP3   OH231349   1.490   5.926  17.450 -0.1256  0.2021 -0.3671
 2385TIP3    H131350   1.490   5.977  17.531  0.9818  0.3215 -0.4147
 2385TIP3    H231351   1.554   5.971  17.394  0.1188 -0.6494 -0.7969
 2386TIP3   OH231352   5.151   7.419  17.197  0.1262 -0.2194 -0.3549
 2386TIP3    H131353   5.242   7.418  17.229  0.6475 -0.6395 -1.7824
 2386TIP3    H231354   5.117   7.503  17.227  1.8650  1.2050 -2.0597
 2387TIP3   OH231355   3.509   1.674  17.373  0.0083  0.1791  0.8387
 2387TIP3    H131356   3.531   1.765  17.388 -1.4147  0.3798  1.8900
 2387TIP3    H231357   3.434   1.677  17.314  0.6195 -0.3684  0.0012
 2388TIP3   OH231358   2.618   0.537  16.890 -0.3882 -0.0365 -0.6392
 2388TIP3    H131359   2.671   0.575  16.960  0.2520  0.0051 -1.1415
 2388TIP3    H231360   2.643   0.445  16.888 -3.0254 -0.9458  1.5934
 2389TIP3   OH231361   5.389   2.250  17.912  0.2615  0.0970  0.6816
 2389TIP3    H131362   5.368   2.157  17.922 -1.8690  0.6418  2.1345
 2389TIP3    H231363   5.476   2.259  17.951  0.0496 -1.1433  1.5316
 2390TIP3   OH231364   6.570   7.957  16.419 -0.3092 -0.4628 -0.1929
 2390TIP3    H131365   6.572   7.863  16.398  0.0797 -0.8235  1.3480
 2390TIP3    H231366   6.651   7.992  16.382 -1.2341 -0.3570 -2.2638
 2391TIP3   OH231367   2.310   0.403  17.466  0.8847  0.0033  0.3929
 2391TIP3    H131368   2.350   0.322  17.434  0.4136 -1.3052  2.8849
 2391TIP3    H231369   2.384   0.461  17.485  1.3040 -0.4103  0.0395
 2392TIP3   OH231370   2.257   0.738  16.946 -0.5395 -0.0891  0.3102
 2392TIP3    H131371   2.297   0.822  16.924 -0.2259 -0.8274 -2.3577
 2392TIP3    H231372   2.172   0.740  16.902 -0.1209 -1.5033 -0.6304
 2393TIP3   OH231373   6.065   3.826  15.898  0.4539 -0.3313  0.2447
 2393TIP3    H131374   6.004   3.783  15.958 -0.5448  1.8065  0.8291
 2393TIP3    H231375   6.010   3.882  15.843  1.7752  0.7926  0.0197
 2394TIP3   OH231376   4.189   0.835  16.282 -0.1412  0.0947 -0.9174
 2394TIP3    H131377   4.237   0.892  16.343  0.6764 -0.3514 -1.1206
 2394TIP3    H231378   4.250   0.824  16.208 -0.4454 -0.7345 -1.0468
 2395TIP3   OH231379   5.710   3.708  15.811  0.2643  0.4624 -0.1910
 2395TIP3    H131380   5.703   3.654  15.889  0.5668  1.0703  0.2595
 2395TIP3    H231381   5.798   3.692  15.777  0.9797  1.8941  0.8712
 2396TIP3   OH231382   0.666   1.201  17.216 -0.3981  0.8424  0.5518
 2396TIP3    H131383   0.625   1.260  17.153  1.4877  2.0881  0.4118
 2396TIP3    H231384   0.660   1.248  17.299  0.4915  0.9250  0.5753
 2397TIP3   OH231385   7.317   0.130  17.784 -0.4279 -0.6483  0.0451
 2397TIP3    H131386   7.371   0.204  17.757 -0.7840 -0.9302 -1.4991
 2397TIP3    H231387   7.375   0.076  17.838  0.0623  0.3306  0.5302
 2398TIP3   OH231388   5.400   0.983  16.527 -0.0263  0.0332  0.0849
 2398TIP3    H131389   5.333   1.040  16.564 -1.6146 -1.2830 -0.6069
 2398TIP3    H231390   5.371   0.967  16.437  1.7337  0.1727 -0.5311
 2399TIP3   OH231391   3.453   6.189  16.863 -0.4492  0.3567  0.5530
 2399TIP3    H131392   3.417   6.144  16.939 -1.4676  1.2630  0.6380
 2399TIP3    H231393   3.455   6.281  16.888 -0.0873  0.5725 -0.2417
 2400TIP3   OH231394   3.188   8.129  17.297  0.3574  0.2523  0.1723
 2400TIP3    H131395   3.093   8.134  17.301  0.3556  1.0205 -0.5290
 2400TIP3    H231396   3.208   8.110  17.206  0.8956  1.2614  0.0578
 2401TIP3   OH231397   7.624   1.992  16.093 -0.7254 -0.7113  0.9128
 2401TIP3    H131398   7.575   2.057  16.043  0.9761 -0.8493 -1.0955
 2401TIP3    H231399   7.656   2.040  16.170  0.0607  0.7449 -0.2602
 2402TIP3   OH231400   3.206   8.199  15.870  0.2061  0.0692 -0.2361
 2402TIP3    H131401   3.190   8.248  15.951 -0.2165  1.0556 -0.8930
 2402TIP3    H231402   3.170   8.112  15.888  1.4436 -0.2006  1.1394
 2403TIP3   OH231403   3.456   8.322  16.298  0.1126  0.0550 -0.1276
 2403TIP3    H131404   3.532   8.341  16.353  0.4841 -2.1886  0.2289
 2403TIP3    H231405   3.493   8.290  16.215 -0.4549  0.8077 -0.6873
 2404TIP3   OH231406   0.544   7.723  16.111  0.0213  0.1603  0.3359
 2404TIP3    H131407   0.556   7.681  16.026  0.0783  1.6211 -0.4073
 2404TIP3    H231408   0.622   7.778  16.122  0.4000 -0.5876  1.7100
 2405TIP3   OH231409   7.343   1.207  16.271 -0.2981 -0.0585  0.4688
 2405TIP3    H131410   7.283   1.281  16.268 -0.0569  0.1509  0.8560
 2405TIP3    H231411   7.402   1.221  16.197 -0.7956 -0.3312  0.0093
 2406TIP3   OH231412   6.861   2.705  17.560 -0.5712  0.6947  0.9383
 2406TIP3    H131413   6.807   2.637  17.520  1.2383 -0.7875  0.8967
 2406TIP3    H231414   6.817   2.787  17.537 -0.9782 -0.2319 -1.9046
 2407TIP3   OH231415   1.357   6.767  17.214 -0.4091  0.3575  0.3348
 2407TIP3    H131416   1.363   6.814  17.131 -0.7654  3.1761  1.7637
 2407TIP3    H231417   1.425   6.807  17.269 -0.0496 -1.5649  1.3677
 2408TIP3   OH231418   0.808   0.079  16.495  0.0054  0.0725  0.1399
 2408TIP3    H131419   0.821   0.045  16.406 -1.3025 -0.8304  0.2561
 2408TIP3    H231420   0.821   0.003  16.552  1.5814  0.8119  0.8099
 2409TIP3   OH231421   3.493   1.713  15.782  0.1183  0.1100  0.3822
 2409TIP3    H131422   3.407   1.682  15.753  0.0520  0.5763  0.0696
 2409TIP3    H231423   3.554   1.648  15.747 -0.0432  0.1780 -0.0358
 2410TIP3   OH231424   3.698   7.948  16.871  0.3173  0.2873 -0.0161
 2410TIP3    H131425   3.758   8.023  16.867 -0.5848  1.1204  1.1239
 2410TIP3    H231426   3.640   7.960  16.795  0.9226  0.0561 -0.5242
 2411TIP3   OH231427   4.260   2.439  16.897 -0.4027 -0.4891  0.0466
 2411TIP3    H131428   4.262   2.452  16.992 -1.8107 -0.4071  0.0876
 2411TIP3    H231429   4.349   2.411  16.875  0.4227  1.0941  1.1505
 2412TIP3   OH231430   3.716   7.595  15.943  0.5092 -0.3453  0.1751
 2412TIP3    H131431   3.799   7.552  15.922  0.8485  0.3822  0.0242
 2412TIP3    H231432   3.741   7.669  15.999 -0.2484 -1.5251  2.1936
 2413TIP3   OH231433   0.800   0.599  17.550  0.0420  0.1270  0.3898
 2413TIP3    H131434   0.831   0.622  17.638 -0.6269  2.2188  0.1414
 2413TIP3    H231435   0.837   0.667  17.494  0.1186 -0.9506 -0.9002
 2414TIP3   OH231436   0.445   2.459  17.728  0.6139  0.6133  0.2208
 2414TIP3    H131437   0.416   2.512  17.654 -0.7318  2.4714  1.9737
 2414TIP3    H231438   0.540   2.469  17.728  0.6684  0.4145 -1.3220
 2415TIP3   OH231439   8.262   6.343  16.757 -0.1136 -0.2220 -0.3024
 2415TIP3    H131440   8.173   6.370  16.778 -0.3541 -0.9117 -0.4136
 2415TIP3    H231441   8.258   6.313  16.666  0.1194 -0.7371 -0.1483
 2416TIP3   OH231442   5.865   2.098  16.184 -0.7867 -0.5360 -0.2325
 2416TIP3    H131443   5.936   2.034  16.195 -1.3121 -1.0464  0.1816
 2416TIP3    H231444   5.873   2.126  16.092  0.4058 -0.0378 -0.0048
 2417TIP3   OH231445   5.394   7.985  16.456 -0.4840  0.0322 -0.4310
 2417TIP3    H131446   5.361   7.898  16.435 -0.5605 -0.0600  0.0701
 2417TIP3    H231447   5.415   8.024  16.371  2.6515 -1.6573 -0.5847
 2418TIP3   OH231448   2.284   8.172  17.538  0.2364 -0.3212  0.2873
 2418TIP3    H131449   2.275   8.085  17.499 -2.8117  0.5106 -1.1993
 2418TIP3    H231450   2.203   8.217  17.514  1.2777  2.6270  1.8318
 2419TIP3   OH231451   1.041   3.024  18.003  0.6280  0.5869 -0.2969
 2419TIP3    H131452   1.120   3.014  17.949 -0.0006 -0.1453 -1.1012
 2419TIP3    H231453   1.032   3.119  18.014  1.5421  0.6895 -0.2974
 2420TIP3   OH231454   4.281   3.849  16.678  0.0696  0.2475 -0.2970
 2420TIP3    H131455   4.305   3.940  16.661 -0.8547  0.7175  0.7464
 2420TIP3    H231456   4.226   3.824  16.603  1.3702  0.1084 -1.2291
 2421TIP3   OH231457   4.151   3.589  17.137  1.0637  0.1964 -0.4228
 2421TIP3    H131458   4.229   3.630  17.101  1.0282  0.4846 -0.1790
 2421TIP3    H231459   4.137   3.511  17.083  0.2080  1.3456 -1.9662
 2422TIP3   OH231460   4.898   4.372  17.542  0.2249  0.0840 -0.3791
 2422TIP3    H131461   4.882   4.466  17.539  0.9379  0.2290  0.0406
 2422TIP3    H231462   4.926   4.350  17.453 -0.0253  0.2486 -0.5015
 2423TIP3   OH231463   4.789   4.714  17.159  0.1284 -0.2693  0.5765
 2423TIP3    H131464   4.764   4.634  17.111  1.5617 -0.0699 -0.5904
 2423TIP3    H231465   4.720   4.777  17.139  0.3784 -0.3858 -0.8012
 2424TIP3   OH231466   5.581   0.537  16.319 -0.0976  0.2628  0.0525
 2424TIP3    H131467   5.672   0.506  16.326  0.0550  0.6405 -0.2267
 2424TIP3    H231468   5.533   0.484  16.383  0.1851 -0.4444 -0.3062
 2425TIP3   OH231469   6.447   4.154  16.857 -0.5636 -0.1975  0.2800
 2425TIP3    H131470   6.496   4.209  16.918 -1.7930  1.7084 -0.3620
 2425TIP3    H231471   6.505   4.146  16.781 -0.4025  0.2676  0.3498
 2426TIP3   OH231472   2.469   4.499  17.608  0.1072 -0.2210 -0.0432
 2426TIP3    H131473   2.381   4.521  17.640  0.1246  0.6447 -0.5782
 2426TIP3    H231474   2.513   4.461  17.685 -1.0952 -1.7941 -0.0704
 2427TIP3   OH231475   6.373   6.070  17.559 -0.0476 -0.0457 -0.3609
 2427TIP3    H131476   6.287   6.052  17.597  0.3918  0.6276  1.0351
 2427TIP3    H231477   6.426   5.994  17.585  0.2555  0.4190  0.4244
 2428TIP3   OH231478   2.599   3.517  17.645  0.0782  0.1003 -0.0935
 2428TIP3    H131479   2.589   3.612  17.645 -2.0875 -0.0577  1.4546
 2428TIP3    H231480   2.573   3.490  17.557  0.8621  0.9262 -0.5955
 2429TIP3   OH231481   6.069   0.997  17.493  0.2118 -0.2612 -0.0860
 2429TIP3    H131482   6.159   0.986  17.462  0.2528  0.3380 -0.1985
 2429TIP3    H231483   6.014   0.976  17.417  0.2445 -0.8458  0.0480
 2430TIP3   OH231484   5.346   8.112  17.640  0.2278  0.1984  0.0776
 2430TIP3    H131485   5.424   8.127  17.693 -1.2069  0.4179  2.2373
 2430TIP3    H231486   5.320   8.200  17.611  0.1352  0.2542  0.3277
 2431TIP3   OH231487   2.145   7.836  17.043 -0.6125  0.3638  0.3555
 2431TIP3    H131488   2.138   7.741  17.035  1.3846  0.1789  0.2530
 2431TIP3    H231489   2.068   7.870  16.998 -0.4966 -1.1664 -1.0921
 2432TIP3   OH231490   4.630   8.147  16.524  0.2810 -0.2804 -0.1221
 2432TIP3    H131491   4.585   8.127  16.605 -0.8480 -1.4569 -0.9968
 2432TIP3    H231492   4.652   8.240  16.531 -0.7912 -0.0917  1.0420
 2433TIP3   OH231493   2.757   3.594  18.004  0.0263 -0.0719  0.2997
 2433TIP3    H131494   2.739   3.688  18.004 -1.6542 -0.3505 -0.3671
 2433TIP3    H231495   2.832   3.584  17.946  0.2525  0.8614  0.4106
 2434TIP3   OH231496   2.710   2.300  17.142 -0.3477 -0.5974 -0.0004
 2434TIP3    H131497   2.713   2.260  17.055 -0.6923 -1.8375  0.5434
 2434TIP3    H231498   2.624   2.278  17.176 -0.0612 -0.4638  0.8212
 2435TIP3   OH231499   7.714   0.073  17.605 -0.1451  0.7250 -0.2107
 2435TIP3    H131500   7.750   0.159  17.586 -0.0469  0.3435 -1.8675
 2435TIP3    H231501   7.629   0.072  17.562 -0.2979  0.1072  0.0895
 2436TIP3   OH231502   5.753   7.248  17.094  0.6509  0.0145 -0.2568
 2436TIP3    H131503   5.777   7.190  17.022 -0.4340  0.6118 -1.1356
 2436TIP3    H231504   5.779   7.335  17.066  2.6534 -0.0281  1.2330
 2437TIP3   OH231505   1.310   2.554  16.585  0.0270  0.3611  0.1128
 2437TIP3    H131506   1.390   2.572  16.536 -0.4576  1.6495 -0.2306
 2437TIP3    H231507   1.340   2.511  16.665  0.9491 -0.2820 -0.5565
 2438TIP3   OH231508   3.219   5.558  17.289  0.2104 -0.3520 -0.2468
 2438TIP3    H131509   3.124   5.574  17.284 -0.3090 -3.2090 -1.5418
 2438TIP3    H231510   3.240   5.568  17.381 -0.5463  3.8253 -0.3287
 2439TIP3   OH231511   0.565   7.913  17.744 -0.1896 -0.3248 -0.5052
 2439TIP3    H131512   0.609   7.861  17.811  1.2379  0.3365 -0.9014
 2439TIP3    H231513   0.478   7.874  17.737 -0.4163 -0.3542  1.7797
 2440TIP3   OH231514   2.044   1.656  16.792  0.3928  0.4134 -0.0886
 2440TIP3    H131515   1.979   1.587  16.779 -0.1726  1.1413 -1.3923
 2440TIP3    H231516   2.128   1.614  16.778  0.3155 -0.7460  2.4783
 2441TIP3   OH231517   2.935   0.890  17.494 -0.4912 -0.2737 -0.3538
 2441TIP3    H131518   2.990   0.896  17.572  0.2583  0.0517 -0.8958
 2441TIP3    H231519   2.889   0.974  17.490 -2.8361 -1.3695  1.3760
 2442TIP3   OH231520   1.540   5.084  17.011 -0.2071 -0.4298  0.4615
 2442TIP3    H131521   1.487   5.005  17.027 -1.7205 -0.1880 -2.6627
 2442TIP3    H231522   1.502   5.150  17.069  0.1289 -1.5568  2.0508
 2443TIP3   OH231523   0.149   2.939  16.149 -0.2604 -0.2527 -0.5449
 2443TIP3    H131524   0.064   2.908  16.178  0.5130 -1.6901  0.3240
 2443TIP3    H231525   0.212   2.880  16.192  1.1598  0.6925 -1.2432
 2444TIP3   OH231526   1.514   2.343  17.393  0.4771  0.1404 -0.4610
 2444TIP3    H131527   1.519   2.249  17.411  3.1844  0.2629 -0.1831
 2444TIP3    H231528   1.455   2.350  17.318 -1.2749 -1.5515  0.6567
 2445TIP3   OH231529   1.493   3.087  17.034 -0.3227 -0.0877 -0.1860
 2445TIP3    H131530   1.497   3.024  16.961  3.2077 -0.3246  0.0211
 2445TIP3    H231531   1.439   3.159  17.001 -0.4647 -1.0668 -2.2604
 2446TIP3   OH231532   7.162   2.320  15.983  0.1598 -0.1792  0.7025
 2446TIP3    H131533   7.114   2.395  15.948  0.7424  0.0503  0.3896
 2446TIP3    H231534   7.250   2.353  16.000  0.0498 -0.4299  1.8706
 2447TIP3   OH231535   5.212   7.437  16.046 -0.3614  0.3858  0.6553
 2447TIP3    H131536   5.217   7.342  16.060 -1.2611  0.0710 -1.0191
 2447TIP3    H231537   5.140   7.465  16.103  0.1069  0.1395  1.3948
 2448TIP3   OH231538   1.708   5.470  16.595  0.4917 -0.6154  0.4954
 2448TIP3    H131539   1.740   5.458  16.506  0.4338 -0.0850  0.4007
 2448TIP3    H231540   1.785   5.498  16.645 -0.1494  2.7577 -0.1602
 2449TIP3   OH231541   4.894   3.963  15.804 -0.4822  1.0911 -0.0835
 2449TIP3    H131542   4.889   4.045  15.754  0.2242  1.0971 -0.1532
 2449TIP3    H231543   4.988   3.945  15.811 -0.6422 -0.9042 -2.0265
 2450TIP3   OH231544   7.331   1.500  16.856  0.1529  0.1509 -0.1671
 2450TIP3    H131545   7.297   1.530  16.771 -2.0583  3.6320  1.7135
 2450TIP3    H231546   7.278   1.423  16.877 -0.0662 -0.0645 -1.3905
 2451TIP3   OH231547   6.235   3.251  17.390 -0.1612 -0.4898 -0.1041
 2451TIP3    H131548   6.323   3.216  17.406 -0.1899 -0.8656 -0.7545
 2451TIP3    H231549   6.248   3.318  17.323 -0.4892 -1.1828 -0.8770
 2452TIP3   OH231550   6.884   7.805  17.016 -0.8223  0.9620 -0.5727
 2452TIP3    H131551   6.899   7.900  17.015  0.4300  0.7790 -1.6708
 2452TIP3    H231552   6.911   7.776  16.930  1.3722 -0.7626  0.5964
 2453TIP3   OH231553   3.533   8.268  16.868 -0.2712 -0.2154  0.1755
 2453TIP3    H131554   3.438   8.254  16.866 -0.6112  1.8065 -0.3357
 2453TIP3    H231555   3.569   8.194  16.820 -1.7446 -0.1982 -1.0656
 2454TIP3   OH231556   6.049   5.076  16.871 -0.1392  0.2656  1.1177
 2454TIP3    H131557   5.987   5.003  16.882  0.3556 -0.2625  0.4640
 2454TIP3    H231558   5.995   5.150  16.846 -0.3494 -0.6645 -1.4503
 2455TIP3   OH231559   1.492   3.260  15.841 -0.0151  0.0867 -0.5734
 2455TIP3    H131560   1.494   3.305  15.757 -0.3300 -0.4021 -0.8531
 2455TIP3    H231561   1.581   3.270  15.877 -0.0887  0.9385 -0.6076
 2456TIP3   OH231562   6.444   6.016  18.018  0.8300  0.2353 -0.3946
 2456TIP3    H131563   6.492   6.093  17.986 -1.5733  1.5967 -1.0178
 2456TIP3    H231564   6.505   5.971  18.076  2.1967  2.8934  0.3896
 2457TIP3   OH231565   0.894   6.089  17.673 -0.4140 -0.4494  0.4911
 2457TIP3    H131566   0.812   6.130  17.648  0.1131  0.5409  0.3331
 2457TIP3    H231567   0.882   5.996  17.652 -2.0317 -0.6005  1.8727
 2458TIP3   OH231568   2.544   1.219  15.857  0.0785  0.1113  0.0188
 2458TIP3    H131569   2.499   1.135  15.865 -0.0736  0.2609  0.8029
 2458TIP3    H231570   2.600   1.209  15.779  2.1184 -1.6928  1.5979
 2459TIP3   OH231571   5.341   0.498  18.011 -0.0757  0.2768 -0.4237
 2459TIP3    H131572   5.394   0.420  18.024 -0.0045  0.4363  0.3127
 2459TIP3    H231573   5.259   0.479  18.055  0.7759  1.4662  1.8595
 2460TIP3   OH231574   6.665   7.222  15.783  0.1863 -0.4991  0.0390
 2460TIP3    H131575   6.744   7.255  15.741 -1.4356 -1.2142 -3.9597
 2460TIP3    H231576   6.624   7.300  15.821  1.9337  0.1051  0.8387
 2461TIP3   OH231577   7.671   7.264  17.169  0.3608 -0.5492 -0.0165
 2461TIP3    H131578   7.748   7.213  17.196  1.0532  1.0142  1.1528
 2461TIP3    H231579   7.597   7.217  17.208  0.7101 -1.9448 -0.9507
 2462TIP3   OH231580   7.222   6.226  17.853  0.8128  0.2441  0.0621
 2462TIP3    H131581   7.231   6.131  17.839 -1.5670  0.0691 -0.5840
 2462TIP3    H231582   7.294   6.247  17.912  2.6479 -1.5846 -1.3257
 2463TIP3   OH231583   0.705   1.866  15.391  0.2723  0.0485 -0.6661
 2463TIP3    H131584   0.650   1.791  15.415  0.5415 -0.0090 -0.2221
 2463TIP3    H231585   0.644   1.940  15.385  0.1891  0.0497  0.1294
 2464TIP3   OH231586   4.190   6.751  16.269  0.7158 -0.1441  0.3845
 2464TIP3    H131587   4.282   6.768  16.252  0.6965  0.0549  0.4783
 2464TIP3    H231588   4.183   6.656  16.271  1.0282 -0.1529  0.9747
 2465TIP3   OH231589   0.247   5.062  15.897  0.7109  0.6052  0.2801
 2465TIP3    H131590   0.223   5.012  15.819  2.0977  2.1840 -1.2333
 2465TIP3    H231591   0.296   5.000  15.952 -2.6586 -1.3639  1.3690
 2466TIP3   OH231592   0.577   6.508  17.962 -0.1703 -0.0159 -0.6394
 2466TIP3    H131593   0.489   6.544  17.968  0.1617  0.7672 -0.1984
 2466TIP3    H231594   0.627   6.576  17.917  0.7344  0.6479  1.2212
 2467TIP3   OH231595   6.812   5.856  17.277  0.3797 -0.1830  0.1119
 2467TIP3    H131596   6.838   5.816  17.194 -0.1833 -0.9101  0.2745
 2467TIP3    H231597   6.785   5.945  17.254  1.5595  0.0881 -0.2696
 2468TIP3   OH231598   3.586   1.698  16.592  0.4514  0.1075 -0.0569
 2468TIP3    H131599   3.587   1.630  16.659  0.3281  0.9374  0.7977
 2468TIP3    H231600   3.537   1.770  16.631  1.6369  1.1714 -0.4661
 2469TIP3   OH231601   2.193   7.610  16.103  0.0111 -0.0604 -0.0893
 2469TIP3    H131602   2.218   7.586  16.014  1.2032  2.5430 -0.5550
 2469TIP3    H231603   2.101   7.637  16.095  0.0911  0.0975 -0.5310
 2470TIP3   OH231604   5.995   1.643  16.615  0.0096  0.2602 -0.3888
 2470TIP3    H131605   5.924   1.707  16.606  0.5956  1.1783  1.0291
 2470TIP3    H231606   5.965   1.584  16.685  0.2414  0.0937 -0.4278
 2471TIP3   OH231607   2.796   2.774  17.896  0.2222  0.1560 -0.0710
 2471TIP3    H131608   2.725   2.716  17.870  0.0399  0.2482  0.2232
 2471TIP3    H231609   2.871   2.716  17.909  0.7473  0.2592 -2.2841
 2472TIP3   OH231610   0.986   7.658  16.343  0.1229 -0.6164 -0.1181
 2472TIP3    H131611   0.934   7.657  16.263  1.5601 -1.5816 -1.0943
 2472TIP3    H231612   0.958   7.581  16.392 -1.1247  0.2581  0.5866
 2473TIP3   OH231613   0.076   2.250  17.521  0.2532  0.0422 -0.3300
 2473TIP3    H131614   0.003   2.303  17.553  1.3246  0.8481  0.9165
 2473TIP3    H231615   0.141   2.254  17.592  1.9334  0.2000 -1.8137
 2474TIP3   OH231616   7.736   3.510  17.952 -0.0049  0.2187  0.3910
 2474TIP3    H131617   7.818   3.554  17.975 -0.2193  0.6411  0.3430
 2474TIP3    H231618   7.725   3.442  18.020  0.9437 -0.5672 -0.2120
 2475TIP3   OH231619   1.387   6.125  15.369  0.3841 -0.2343  0.3308
 2475TIP3    H131620   1.336   6.197  15.406 -3.2194 -1.6377 -1.3879
 2475TIP3    H231621   1.463   6.166  15.329 -1.0924  2.5204  0.1405
 2476TIP3   OH231622   5.971   4.815  16.529 -0.0905 -0.0577 -0.2983
 2476TIP3    H131623   6.042   4.821  16.592 -0.1124  0.4183 -0.3155
 2476TIP3    H231624   5.892   4.803  16.582  0.2302 -3.2071 -0.3324
 2477TIP3   OH231625   5.848   4.151  16.234 -0.0554 -0.3279 -0.1116
 2477TIP3    H131626   5.885   4.063  16.230  1.6540  0.2821  1.0729
 2477TIP3    H231627   5.757   4.137  16.260  0.4281 -1.7222  0.9895
 2478TIP3   OH231628   3.413   5.517  17.102 -0.1584 -0.3086  0.0797
 2478TIP3    H131629   3.493   5.491  17.148  0.3937 -0.7519 -1.0681
 2478TIP3    H231630   3.342   5.493  17.160  0.5599  0.8177  1.4862
 2479TIP3   OH231631   6.055   2.285  16.948  0.2659 -0.4012  0.2269
 2479TIP3    H131632   5.983   2.315  17.005  0.4349  0.2895  0.0897
 2479TIP3    H231633   6.021   2.207  16.904 -0.0618 -0.6257  0.8685
 2480TIP3   OH231634   4.470   2.093  17.757 -0.3606  0.1903 -0.0734
 2480TIP3    H131635   4.429   2.007  17.763 -1.8308  0.8808  0.3677
 2480TIP3    H231636   4.416   2.140  17.694  0.6008  0.7122 -0.5274
 2481TIP3   OH231637   0.638   0.413  17.228  0.1048 -0.3864 -0.0700
 2481TIP3    H131638   0.638   0.508  17.216  0.6036 -0.0765  2.0040
 2481TIP3    H231639   0.601   0.400  17.316  0.8346 -2.0490  0.0224
 2482TIP3   OH231640   7.712   0.906  17.327  0.0338 -0.3607 -0.4256
 2482TIP3    H131641   7.675   0.916  17.415 -2.0389  1.3076 -1.4102
 2482TIP3    H231642   7.749   0.992  17.306  1.8484 -1.1467 -0.6779
 2483TIP3   OH231643   4.292   2.485  17.164  0.5016 -0.1319 -0.0720
 2483TIP3    H131644   4.237   2.407  17.171  0.9287 -0.5054 -0.7647
 2483TIP3    H231645   4.243   2.553  17.209  0.2048 -0.8452  0.7117
 2484TIP3   OH231646   7.390   8.393  17.104 -0.1875 -0.2536 -0.0725
 2484TIP3    H131647   7.358   8.472  17.061 -1.8574 -0.0129  1.4890
 2484TIP3    H231648   7.387   8.326  17.036  1.7548  1.0327 -1.5867
 2485TIP3   OH231649   7.732   4.540  16.041  0.0934  0.4395  0.1944
 2485TIP3    H131650   7.776   4.476  15.985  0.2859  0.2822  0.5213
 2485TIP3    H231651   7.794   4.613  16.046 -0.9136  1.5163 -1.7458
 2486TIP3   OH231652   0.150   7.475  16.379  0.1736 -0.5457 -0.1208
 2486TIP3    H131653   0.164   7.408  16.311  0.1962 -1.6443  0.9285
 2486TIP3    H231654   0.194   7.553  16.345  0.9647 -1.3293 -0.9724
 2487TIP3   OH231655   1.748   3.379  17.875 -0.0944  0.2037 -0.0286
 2487TIP3    H131656   1.796   3.397  17.955  0.7601  0.1939 -0.5254
 2487TIP3    H231657   1.795   3.428  17.807 -1.0498  0.5599 -0.4585
 2488TIP3   OH231658   1.850   6.422  17.782  0.4238  0.5903 -0.5481
 2488TIP3    H131659   1.835   6.497  17.725 -2.2450  0.7018  0.1611
 2488TIP3    H231660   1.814   6.449  17.867  2.6938 -0.2136  0.7661
 2489TIP3   OH231661   7.563   5.260  16.348  0.1515  0.0556  0.0156
 2489TIP3    H131662   7.593   5.325  16.411 -0.7701  0.4125  0.0960
 2489TIP3    H231663   7.597   5.292  16.264  1.4464 -0.4629  0.3105
 2490TIP3   OH231664   3.858   2.014  16.643  0.3752  0.6431  0.4044
 2490TIP3    H131665   3.803   2.030  16.567  0.6848  0.9138  0.2360
 2490TIP3    H231666   3.797   1.998  16.714  0.0852  0.1560  0.0509
 2491TIP3   OH231667   6.770   7.524  16.721  0.2494 -0.0455  0.4986
 2491TIP3    H131668   6.823   7.602  16.737  0.9363 -0.4753  0.3589
 2491TIP3    H231669   6.784   7.504  16.629 -0.5201  0.0946  0.3462
 2492TIP3   OH231670   4.363   0.962  16.459  0.1067  0.0398 -0.2957
 2492TIP3    H131671   4.314   0.984  16.539 -1.2051 -1.5906 -0.5998
 2492TIP3    H231672   4.455   0.962  16.487 -0.1385  1.7210  0.6482
 2493TIP3   OH231673   4.923   0.786  17.370  0.4087 -0.3340  0.3980
 2493TIP3    H131674   5.007   0.753  17.403  0.3723 -1.1271 -0.2642
 2493TIP3    H231675   4.881   0.709  17.331 -0.5784  0.0817  0.6135
 2494TIP3   OH231676   3.601   5.874  16.736 -0.3360  0.2427 -0.0071
 2494TIP3    H131677   3.648   5.875  16.819 -1.7655  0.5082  0.8241
 2494TIP3    H231678   3.585   5.967  16.716  0.3829  0.2071 -0.8222
 2495TIP3   OH231679   6.475   0.979  16.964  0.0559 -0.1219 -1.3666
 2495TIP3    H131680   6.512   1.048  16.910 -0.5840  0.4910 -1.0320
 2495TIP3    H231681   6.543   0.912  16.966  0.7661  0.5772 -1.5338
 2496TIP3   OH231682   5.272   4.273  16.590 -0.0838  0.1368  0.3456
 2496TIP3    H131683   5.227   4.217  16.653 -1.7832  0.4830 -0.5062
 2496TIP3    H231684   5.289   4.216  16.515  1.0756 -0.0292  0.7182
 2497TIP3   OH231685   4.590   0.063  15.852 -0.1462  0.3786 -0.6142
 2497TIP3    H131686   4.511   0.111  15.825  0.9269  2.3517 -0.3707
 2497TIP3    H231687   4.661   0.102  15.801  1.2381  1.1880  1.7623
 2498TIP3   OH231688   6.804   1.840  17.452  0.0716 -0.5210 -0.3759
 2498TIP3    H131689   6.812   1.860  17.359 -0.4039  0.3968 -0.2265
 2498TIP3    H231690   6.830   1.920  17.497 -2.3884  0.0040  0.2342
 2499TIP3   OH231691   8.288   8.153  16.427  0.4683 -0.1994  0.2310
 2499TIP3    H131692   8.302   8.178  16.519 -0.3769  1.7533 -0.1223
 2499TIP3    H231693   8.232   8.075  16.432  1.8078 -1.1534  1.3620
 2500TIP3   OH231694   8.241   0.756  16.516  0.4368 -0.1493  0.1543
 2500TIP3    H131695   8.190   0.719  16.588  0.0811  0.4736  0.2267
 2500TIP3    H231696   8.176   0.797  16.459  0.4464 -2.4075 -1.6431
 2501TIP3   OH231697   6.874   2.797  15.980  0.2232 -0.1395  0.4233
 2501TIP3    H131698   6.864   2.805  16.075 -0.3590  0.5580  0.3109
 2501TIP3    H231699   6.960   2.755  15.969 -0.0114 -0.8704  1.2627
 2502TIP3   OH231700   5.594   4.341  16.417  0.3382 -0.0610 -0.2798
 2502TIP3    H131701   5.601   4.272  16.351  0.5981 -0.4643  0.1633
 2502TIP3    H231702   5.673   4.331  16.470 -0.0005  0.0795  0.2561
 2503TIP3   OH231703   4.970   4.832  16.896 -0.8460  0.8920 -0.5270
 2503TIP3    H131704   4.888   4.825  16.944 -1.1487  1.3299 -0.9664
 2503TIP3    H231705   4.977   4.750  16.847 -0.5015  0.4179  0.3028
 2504TIP3   OH231706   5.364   3.807  17.677  0.0753 -0.4663  0.0438
 2504TIP3    H131707   5.366   3.872  17.748 -1.7187 -0.9737  0.6053
 2504TIP3    H231708   5.309   3.736  17.711  1.2635 -1.8961 -0.9038
 2505TIP3   OH231709   2.382   0.563  17.113  0.3893  0.3721 -0.1993
 2505TIP3    H131710   2.472   0.530  17.108 -0.1506 -1.0228 -1.8473
 2505TIP3    H231711   2.371   0.616  17.034 -0.4881 -0.2536 -0.5215
 2506TIP3   OH231712   4.116   1.327  16.363 -0.0467  0.0493  0.7511
 2506TIP3    H131713   4.203   1.354  16.332 -0.4851  0.1920 -0.4200
 2506TIP3    H231714   4.056   1.392  16.327 -0.7547 -0.6307  0.6680
 2507TIP3   OH231715   2.349   7.373  15.519  0.0385  0.0898  0.5278
 2507TIP3    H131716   2.412   7.444  15.529 -0.8095  0.6198  2.6898
 2507TIP3    H231717   2.376   7.327  15.439  1.0996  2.3247 -0.4787
 2508TIP3   OH231718   7.630   3.857  17.176  0.0844  0.0519  0.3788
 2508TIP3    H131719   7.682   3.928  17.213 -0.4146 -0.5240  2.2972
 2508TIP3    H231720   7.578   3.898  17.107 -1.1582  1.8621  2.2799
 2509TIP3   OH231721   4.671   2.750  16.639  0.4918 -0.1207 -0.2371
 2509TIP3    H131722   4.636   2.704  16.715 -0.1962  0.6963 -0.0440
 2509TIP3    H231723   4.642   2.841  16.650 -0.3734 -0.1478 -1.9208
 2510TIP3   OH231724   5.098   3.378  16.535 -0.0279 -0.8167 -0.1280
 2510TIP3    H131725   5.097   3.284  16.555  1.1466 -0.9657 -0.6476
 2510TIP3    H231726   5.084   3.382  16.441 -0.5651 -0.4372 -0.0311
 2511TIP3   OH231727   0.960   4.777  17.011 -0.3312 -0.3648 -0.2702
 2511TIP3    H131728   1.035   4.831  17.035 -0.9160  0.1943  0.3698
 2511TIP3    H231729   0.963   4.771  16.916  1.1733 -1.3265 -0.1972
 2512TIP3   OH231730   1.818   3.386  17.008  0.0216 -0.0877  0.8988
 2512TIP3    H131731   1.901   3.398  16.961 -0.4141 -0.9872 -0.1414
 2512TIP3    H231732   1.756   3.361  16.940 -0.5640 -1.7819  1.9804
 2513TIP3   OH231733   3.101   4.617  16.416 -0.0274 -0.3732 -0.1106
 2513TIP3    H131734   3.061   4.697  16.451 -2.8009 -1.3287 -0.8884
 2513TIP3    H231735   3.051   4.598  16.336  2.2388 -1.5225 -1.3603
 2514TIP3   OH231736   0.413   5.266  16.472 -0.0041  0.4278  0.0821
 2514TIP3    H131737   0.393   5.233  16.384  0.1984  0.8522 -0.1269
 2514TIP3    H231738   0.451   5.191  16.518  1.4513  0.6310 -0.7274
 2515TIP3   OH231739   3.601   2.159  17.291 -0.1821  0.2577  0.3087
 2515TIP3    H131740   3.532   2.174  17.226 -0.0317  0.4721  0.1974
 2515TIP3    H231741   3.623   2.247  17.323  0.0872  0.1964  0.2929
 2516TIP3   OH231742   6.045   3.529  17.243 -0.1171 -0.2785 -0.1757
 2516TIP3    H131743   6.081   3.534  17.331  1.0789 -1.3524 -0.5854
 2516TIP3    H231744   6.093   3.595  17.193 -1.5912  1.1551  0.1977
 2517TIP3   OH231745   3.524   2.758  17.163 -0.1761  0.0476 -0.4910
 2517TIP3    H131746   3.454   2.795  17.216  0.6490  1.2565 -0.2206
 2517TIP3    H231747   3.483   2.682  17.120 -0.9042 -0.8634  1.7002
 2518TIP3   OH231748   8.251   4.097  17.652 -0.0941 -0.0379 -0.8787
 2518TIP3    H131749   8.156   4.089  17.649 -0.6303  1.9395  3.0818
 2518TIP3    H231750   8.281   4.012  17.683 -0.5925 -0.5118 -1.6549
 2519TIP3   OH231751   5.100   5.636  16.426 -0.2951  0.1001 -0.4847
 2519TIP3    H131752   5.017   5.614  16.382 -0.6830  1.7021 -0.6000
 2519TIP3    H231753   5.079   5.713  16.478  0.8544 -0.1808  0.4140
 2520TIP3   OH231754   0.345   5.968  17.087 -0.1003  0.0212  0.2776
 2520TIP3    H131755   0.364   6.045  17.141 -1.3821  0.2438  0.4380
 2520TIP3    H231756   0.318   6.004  17.002  0.9528 -0.3058 -0.2160
 2521TIP3   OH231757   5.680   0.502  17.080  0.2019 -0.4048 -0.2181
 2521TIP3    H131758   5.724   0.587  17.068  1.8283 -0.9140  1.5753
 2521TIP3    H231759   5.745   0.437  17.052 -0.2722 -1.1116  0.2850
 2522TIP3   OH231760   1.808   6.795  15.695 -0.2265 -0.0043  0.5773
 2522TIP3    H131761   1.766   6.880  15.676 -0.3005 -0.0536  0.5183
 2522TIP3    H231762   1.862   6.778  15.618  1.7439  1.1748  1.6317
 2523TIP3   OH231763   0.252   5.786  17.645 -0.5628  0.1200  0.1134
 2523TIP3    H131764   0.291   5.725  17.708  0.6287 -0.6675 -1.3223
 2523TIP3    H231765   0.189   5.836  17.696  0.8262 -0.0202  2.0871
 2524TIP3   OH231766   7.807   3.111  17.817 -0.3780 -0.3939 -0.0946
 2524TIP3    H131767   7.888   3.160  17.803 -1.3379  1.5133  0.7191
 2524TIP3    H231768   7.832   3.020  17.802  1.1263  0.4117 -3.1664
 2525TIP3   OH231769   2.605   5.874  17.242  0.1262  0.1572  0.8342
 2525TIP3    H131770   2.532   5.815  17.223  0.0522  0.1326  1.1963
 2525TIP3    H231771   2.654   5.830  17.311  0.3193  0.3133  0.7959
 2526TIP3   OH231772   2.975   1.814  16.658  0.1843  0.3049  0.0372
 2526TIP3    H131773   2.907   1.752  16.685  1.3418 -0.4540  1.2751
 2526TIP3    H231774   3.008   1.778  16.575 -0.4258  0.2912 -0.2044
 2527TIP3   OH231775   7.977   2.631  17.686 -0.2597 -0.1475 -0.2461
 2527TIP3    H131776   7.899   2.580  17.665 -0.0589  0.0104 -1.4429
 2527TIP3    H231777   8.041   2.606  17.620  0.6148 -0.0367  0.5309
 2528TIP3   OH231778   2.949   5.721  17.704  0.0435  0.2644  0.1872
 2528TIP3    H131779   2.946   5.715  17.799 -1.3032 -0.6264  0.1162
 2528TIP3    H231780   2.881   5.660  17.674 -1.3352  2.3656 -1.2727
 2529TIP3   OH231781   7.870   6.264  16.414 -0.4755 -1.0644 -0.0889
 2529TIP3    H131782   7.960   6.295  16.401 -0.1669 -1.6057  0.6580
 2529TIP3    H231783   7.833   6.258  16.326  0.7221 -2.3331 -0.5474
 2530TIP3   OH231784   7.182   0.072  16.683  0.2146  0.0401 -0.1690
 2530TIP3    H131785   7.209  -0.011  16.721 -2.1169 -0.4417  0.6129
 2530TIP3    H231786   7.138   0.047  16.601 -0.6274  0.4443  0.1413
 2531TIP3   OH231787   6.306   1.281  17.524  0.2992 -0.2131  0.3811
 2531TIP3    H131788   6.326   1.193  17.493 -0.0087  0.2352 -1.1641
 2531TIP3    H231789   6.331   1.280  17.616  0.9693 -1.6959  0.2111
 2532TIP3   OH231790   0.898   2.087  17.729 -0.3109 -0.3350 -0.1761
 2532TIP3    H131791   0.873   2.012  17.783 -0.9418  0.0954  0.1483
 2532TIP3    H231792   0.980   2.118  17.767  1.2444 -2.2587 -1.7521
 2533TIP3   OH231793   0.015   3.324  16.859  0.0277  0.0702  0.0392
 2533TIP3    H131794   0.012   3.339  16.954 -1.1103  0.6002 -0.0619
 2533TIP3    H231795   0.105   3.345  16.834 -0.1224  1.6751  0.7330
 2534TIP3   OH231796   5.870   0.079  17.647  0.2759 -0.4101 -0.3429
 2534TIP3    H131797   5.776   0.089  17.658  0.1144 -2.5211  0.7662
 2534TIP3    H231798   5.908   0.117  17.726  0.2005 -1.2256  0.0985
 2535TIP3   OH231799   0.141   1.729  17.307  0.0358 -0.1906 -0.0092
 2535TIP3    H131800   0.069   1.787  17.282  0.3151 -0.1555 -0.7457
 2535TIP3    H231801   0.203   1.734  17.234  0.0660 -1.4153 -0.0870
 2536TIP3   OH231802   2.108   6.356  16.307  0.0345 -0.0911  0.0799
 2536TIP3    H131803   2.109   6.369  16.402  0.6017  1.3186 -0.1011
 2536TIP3    H231804   2.038   6.412  16.276  0.4993  0.2085 -0.4341
 2537TIP3   OH231805   7.410   6.547  16.207  0.2485 -0.3135 -0.0860
 2537TIP3    H131806   7.325   6.515  16.177  0.7732 -0.1695 -1.8615
 2537TIP3    H231807   7.473   6.489  16.165  1.0951  1.0165 -0.7053
 2538TIP3   OH231808   3.781   4.608  17.024 -0.2461  0.2075 -0.2353
 2538TIP3    H131809   3.855   4.607  17.085  0.1209 -0.2678 -0.6815
 2538TIP3    H231810   3.772   4.700  16.999  2.1459 -0.0460 -2.4841
 2539TIP3   OH231811   7.426   7.740  16.521  0.0149 -0.1604 -0.8255
 2539TIP3    H131812   7.456   7.795  16.449  2.6384  1.2421  1.1506
 2539TIP3    H231813   7.411   7.802  16.593 -0.1086 -1.7218  0.5526
 2540TIP3   OH231814   4.796   2.613  16.350 -0.4971  0.2927  0.6195
 2540TIP3    H131815   4.836   2.686  16.304 -0.5211  0.1051  0.3005
 2540TIP3    H231816   4.704   2.615  16.325 -0.7386  0.8386  1.5008
 2541TIP3   OH231817   7.841   1.011  16.134 -0.2466 -0.1998 -0.7370
 2541TIP3    H131818   7.899   1.073  16.178 -0.9119 -0.1343  0.0856
 2541TIP3    H231819   7.893   0.931  16.126  0.6631  0.4799 -1.9289
 2542TIP3   OH231820   8.026   2.075  17.780 -0.1803  0.1318  0.6229
 2542TIP3    H131821   8.061   2.159  17.811  1.6484  0.2727 -1.6051
 2542TIP3    H231822   7.983   2.095  17.697  0.5828 -1.1548 -0.1192
 2543TIP3   OH231823   4.949   7.908  17.219 -0.5445 -0.3555  0.2000
 2543TIP3    H131824   4.934   7.887  17.127  2.5141 -0.3884 -0.3770
 2543TIP3    H231825   5.018   7.975  17.218  0.1471 -0.9319  2.4938
 2544TIP3   OH231826   7.061   7.871  16.086  0.0492 -0.0421 -0.1730
 2544TIP3    H131827   7.142   7.823  16.102  1.7310  2.8650  0.6068
 2544TIP3    H231828   7.042   7.856  15.993  1.4239 -0.8448 -0.3439
 2545TIP3   OH231829   1.509   7.073  17.724  0.1126 -0.2550 -0.2389
 2545TIP3    H131830   1.457   6.994  17.706  1.3052 -1.0485 -0.3213
 2545TIP3    H231831   1.463   7.143  17.678 -0.6323 -1.0082 -0.6699
 2546TIP3   OH231832   0.198   0.321  16.747 -0.4970  0.5652 -0.0709
 2546TIP3    H131833   0.284   0.329  16.788 -0.3906 -1.5051  0.2340
 2546TIP3    H231834   0.136   0.338  16.817 -0.3225  0.5831  0.0808
 2547TIP3   OH231835   2.193   4.391  17.703  0.0962 -0.0228 -0.0092
 2547TIP3    H131836   2.161   4.314  17.750  0.8212 -0.6969 -0.5781
 2547TIP3    H231837   2.115   4.444  17.688 -0.5315 -0.9586 -0.1599
 2548TIP3   OH231838   2.144   0.070  17.026  0.0029 -0.2067 -0.0153
 2548TIP3    H131839   2.075   0.095  16.965 -1.1005 -0.1870  1.2031
 2548TIP3    H231840   2.208   0.142  17.022  0.0533 -0.2963 -1.2571
 2549TIP3   OH231841   4.697   3.930  17.539  0.5697  0.7916 -0.2035
 2549TIP3    H131842   4.713   3.891  17.625 -0.4227 -1.1143 -0.8090
 2549TIP3    H231843   4.609   3.968  17.546 -0.2902 -0.9688 -0.8432
 2550TIP3   OH231844   5.896   3.968  15.700 -0.0902 -0.2725  0.1732
 2550TIP3    H131845   5.856   3.902  15.643 -0.1030  0.0655 -0.2159
 2550TIP3    H231846   5.946   4.024  15.641 -0.2066  0.1585  0.4767
 2551TIP3   OH231847   5.852   6.896  16.490  0.0435  0.6538  0.0040
 2551TIP3    H131848   5.805   6.961  16.438  0.5291  0.7056 -0.3763
 2551TIP3    H231849   5.808   6.814  16.471 -0.3223  0.8102  0.1777
 2552TIP3   OH231850   3.243   1.143  17.670  0.1422  0.2037  0.3963
 2552TIP3    H131851   3.200   1.070  17.715 -0.1333  0.4602  0.5473
 2552TIP3    H231852   3.325   1.155  17.718 -0.7318  1.3305  1.6720
 2553TIP3   OH231853   3.075   7.129  15.797 -0.0104 -0.0750 -0.0845
 2553TIP3    H131854   3.143   7.147  15.732  0.0056  0.5493  0.1070
 2553TIP3    H231855   2.993   7.137  15.748 -0.1276  2.6717  0.4567
 2554TIP3   OH231856   7.900   3.434  17.723 -0.7145 -0.1319 -0.0928
 2554TIP3    H131857   7.881   3.506  17.663 -1.1994  0.3035  0.5644
 2554TIP3    H231858   7.848   3.454  17.801  0.4715 -0.2918  0.7589
 2555TIP3   OH231859   7.443   6.594  17.653 -0.1992 -0.8889  0.5342
 2555TIP3    H131860   7.502   6.562  17.585 -0.4182 -0.6677  0.2328
 2555TIP3    H231861   7.419   6.682  17.624 -0.8461 -1.0601  0.5361
 2556TIP3   OH231862   7.140   7.183  18.148  0.6712  0.7033 -0.0599
 2556TIP3    H131863   7.233   7.180  18.127  0.6875 -1.9448  0.0750
 2556TIP3    H231864   7.096   7.155  18.067 -0.0498  1.9444 -0.1311
 2557TIP3   OH231865   0.006   7.290  15.996  0.0994 -0.2249 -0.1244
 2557TIP3    H131866   0.037   7.379  15.975 -0.6375  0.0225 -0.1825
 2557TIP3    H231867  -0.074   7.304  16.047 -0.4090 -0.8552 -0.7384
 2558TIP3   OH231868   3.651   7.624  17.463  0.8139  0.1614 -0.1330
 2558TIP3    H131869   3.683   7.712  17.482  2.2212 -0.2292 -0.5490
 2558TIP3    H231870   3.646   7.620  17.368 -0.8816  0.3177 -0.0785
 2559TIP3   OH231871   6.743   6.760  16.957 -0.5733 -0.2541  0.0576
 2559TIP3    H131872   6.774   6.842  16.996  0.3915 -0.6352  0.1082
 2559TIP3    H231873   6.665   6.786  16.907  0.7565  1.0477 -1.4676
 2560TIP3   OH231874   0.117   4.658  16.645 -0.6139  0.5030  0.1222
 2560TIP3    H131875   0.024   4.676  16.659 -0.3460  1.2330  1.1176
 2560TIP3    H231876   0.152   4.643  16.733 -0.0571 -1.2395 -0.3639
 2561TIP3   OH231877   5.774   1.280  16.906 -0.0634 -0.0028 -0.2146
 2561TIP3    H131878   5.700   1.307  16.852  0.8447  0.6638 -1.1674
 2561TIP3    H231879   5.792   1.190  16.879  0.9364  0.6039 -1.7227
 2562TIP3   OH231880   5.435   6.240  17.656  0.5584 -0.5052 -0.0106
 2562TIP3    H131881   5.523   6.232  17.695  0.4234 -1.8170  0.0611
 2562TIP3    H231882   5.391   6.159  17.679 -0.9612  0.4607  0.6025
 2563TIP3   OH231883   5.170   0.706  17.072  0.0054  0.3044  0.7394
 2563TIP3    H131884   5.079   0.732  17.058  0.0021 -0.1944 -0.2139
 2563TIP3    H231885   5.170   0.610  17.062  0.4528  0.1806  1.7769
 2564TIP3   OH231886   5.090   5.460  16.654 -0.0416  0.4950  0.1008
 2564TIP3    H131887   5.131   5.387  16.607 -1.6747 -0.9669  0.8495
 2564TIP3    H231888   5.123   5.538  16.609 -0.2384 -0.7571 -2.4385
 2565TIP3   OH231889   7.315   2.289  16.628 -0.2392 -0.1741 -0.0298
 2565TIP3    H131890   7.303   2.194  16.625  0.0207 -0.1927 -0.8550
 2565TIP3    H231891   7.228   2.325  16.611 -0.3614 -0.2646  0.4034
 2566TIP3   OH231892   0.708   4.661  16.976 -0.6410 -0.3339  0.3414
 2566TIP3    H131893   0.796   4.694  16.991  0.0223 -1.1855 -1.4106
 2566TIP3    H231894   0.653   4.713  17.035  0.7896  1.4255  0.2324
 2567TIP3   OH231895   3.904   7.308  17.026 -0.3335  0.4037  0.4905
 2567TIP3    H131896   3.886   7.401  17.013  0.5915  0.5130 -0.0794
 2567TIP3    H231897   3.976   7.289  16.966 -1.2103 -0.9279 -0.1822
 2568TIP3   OH231898   3.489   6.934  17.354 -0.2798  0.4339 -0.0605
 2568TIP3    H131899   3.477   7.002  17.420 -1.9999  2.4657 -2.3026
 2568TIP3    H231900   3.571   6.958  17.309  0.5032 -0.5290  0.8142
 2569TIP3   OH231901   5.170   3.889  15.765 -0.1163  0.0334  0.2561
 2569TIP3    H131902   5.227   3.819  15.733 -0.5041 -0.5481  0.8080
 2569TIP3    H231903   5.228   3.946  15.816  0.3728  0.6044 -0.8955
 2570TIP3   OH231904   1.018   3.165  17.489  0.0670  0.8696  0.5773
 2570TIP3    H131905   1.112   3.175  17.504 -0.1977  0.4910  2.7413
 2570TIP3    H231906   0.979   3.244  17.526 -0.4955  1.0027 -0.2717
 2571TIP3   OH231907   1.795   2.930  15.896  0.2146 -0.3592  0.6946
 2571TIP3    H131908   1.784   2.857  15.834  0.6705 -1.1539  1.5246
 2571TIP3    H231909   1.759   2.897  15.978 -2.2724  1.4028  0.4114
 2572TIP3   OH231910   3.751   0.806  17.745  0.1105  0.3113 -0.0460
 2572TIP3    H131911   3.809   0.779  17.816 -0.2017 -1.9331 -0.5801
 2572TIP3    H231912   3.713   0.888  17.775 -0.3499 -0.7828  2.6171
 2573TIP3   OH231913   6.276   7.033  17.427  0.5388  0.2036  0.3805
 2573TIP3    H131914   6.302   6.942  17.410  1.5745  0.0728  2.2844
 2573TIP3    H231915   6.188   7.027  17.462  0.7928 -0.1433  0.9794
 2574TIP3   OH231916   7.302   3.895  17.857  0.3438  0.3554 -0.3388
 2574TIP3    H131917   7.299   3.842  17.777  3.4294 -0.1124 -0.2454
 2574TIP3    H231918   7.219   3.876  17.901 -1.0679 -0.0471 -2.9693
 2575TIP3   OH231919   5.487   5.469  17.610  0.1664  0.1960 -0.0998
 2575TIP3    H131920   5.478   5.391  17.665  1.2009  0.7547  0.9061
 2575TIP3    H231921   5.480   5.436  17.521 -0.8149 -0.8455  0.3395
 2576TIP3   OH231922   4.345   8.319  17.553  0.5269 -0.0604  0.4939
 2576TIP3    H131923   4.346   8.342  17.460  1.3740  1.3202  0.8127
 2576TIP3    H231924   4.429   8.276  17.568  0.6173  0.2013  0.7347
 2577TIP3   OH231925   5.677   0.491  17.842 -0.2586  0.3656 -0.3848
 2577TIP3    H131926   5.694   0.533  17.757  2.5572  2.5459  1.0999
 2577TIP3    H231927   5.598   0.535  17.874 -0.8515  0.1400 -1.4635
 2578TIP3   OH231928   2.549   6.281  17.005  0.8882 -0.3838 -0.0964
 2578TIP3    H131929   2.643   6.287  16.985  0.8368  1.1474  0.0205
 2578TIP3    H231930   2.534   6.188  17.021  2.4777 -0.5962  0.3274
 2579TIP3   OH231931   6.468   5.552  16.040  0.5047  0.1415 -0.0495
 2579TIP3    H131932   6.515   5.482  16.086  0.9196 -0.4177 -1.2974
 2579TIP3    H231933   6.432   5.510  15.962 -0.4044  1.0236 -0.1244
 2580TIP3   OH231934   2.534   7.697  17.083  0.4377 -0.3213  0.2021
 2580TIP3    H131935   2.484   7.779  17.088 -2.1807 -1.8611  1.1313
 2580TIP3    H231936   2.539   7.678  16.989  0.4711  0.5225  0.0196
 2581TIP3   OH231937   1.429   3.722  16.210 -0.3534 -0.2416  0.4812
 2581TIP3    H131938   1.498   3.741  16.274  0.4824  0.5593 -0.6177
 2581TIP3    H231939   1.374   3.801  16.210 -0.5908 -0.4085  0.5255
 2582TIP3   OH231940   3.546   0.542  17.110  0.1986 -0.0878 -0.2166
 2582TIP3    H131941   3.573   0.456  17.144 -1.7640 -0.4505  0.5406
 2582TIP3    H231942   3.529   0.594  17.188  0.1277  0.5797 -0.6720
 2583TIP3   OH231943   5.858   0.264  16.542 -0.3187 -0.1724 -0.3125
 2583TIP3    H131944   5.939   0.214  16.538  0.2170  0.5510  1.1052
 2583TIP3    H231945   5.789   0.197  16.545  0.2153 -0.7867 -1.3192
 2584TIP3   OH231946   7.952   1.570  17.665 -1.0986  0.2529 -0.1830
 2584TIP3    H131947   8.005   1.649  17.677 -0.9546 -0.0812  1.7321
 2584TIP3    H231948   7.992   1.506  17.725 -1.3083 -1.2355 -1.5694
 2585TIP3   OH231949   8.396   1.728  16.249  0.2252 -0.2328 -0.3115
 2585TIP3    H131950   8.320   1.730  16.307 -1.4029 -1.6167 -2.2301
 2585TIP3    H231951   8.428   1.818  16.248 -1.7923  0.5484  0.0920
 2586TIP3   OH231952   0.422   3.004  16.015  0.1862  0.1366 -0.2747
 2586TIP3    H131953   0.435   2.912  15.991  2.5009  0.1393  0.7226
 2586TIP3    H231954   0.355   3.002  16.082  0.8745 -0.9659  0.4191
 2587TIP3   OH231955   5.974   5.755  16.340 -0.4248 -0.1674 -0.0305
 2587TIP3    H131956   6.052   5.806  16.361 -0.1244 -0.0299 -1.4302
 2587TIP3    H231957   5.983   5.733  16.247 -0.0952 -3.4937  0.6333
 2588TIP3   OH231958   3.820   2.299  16.899 -0.4208 -0.2872 -0.0740
 2588TIP3    H131959   3.741   2.350  16.881 -0.3145 -0.4146 -0.9632
 2588TIP3    H231960   3.806   2.216  16.852  0.9927  0.3793 -1.7781
 2589TIP3   OH231961   8.212   4.361  16.475  0.1960 -0.2940 -0.2400
 2589TIP3    H131962   8.266   4.321  16.544  0.5007  0.3338 -0.1024
 2589TIP3    H231963   8.175   4.287  16.428 -1.3193 -0.7795  1.5873
 2590TIP3   OH231964   2.411   6.007  16.738 -0.1480 -0.0163 -0.0485
 2590TIP3    H131965   2.453   5.975  16.817 -0.4912 -0.4758 -0.0474
 2590TIP3    H231966   2.476   6.064  16.697 -0.1871  0.7262  0.8799
 2591TIP3   OH231967   0.499   8.388  17.345 -0.0949 -0.3972 -0.0229
 2591TIP3    H131968   0.477   8.312  17.290  0.3301 -0.0845 -0.6361
 2591TIP3    H231969   0.471   8.464  17.293 -3.1111 -0.1506  1.7269
 2592TIP3   OH231970   8.129   6.590  16.893 -0.1519 -0.5429  0.6754
 2592TIP3    H131971   8.217   6.558  16.910 -0.2304 -0.1238  1.9648
 2592TIP3    H231972   8.134   6.684  16.911 -0.8750 -0.5232  0.7939
 2593TIP3   OH231973   7.435   3.399  16.294  0.0670 -0.0322  0.4342
 2593TIP3    H131974   7.421   3.405  16.388 -0.6991 -1.7543  0.4749
 2593TIP3    H231975   7.368   3.338  16.264  0.4224  0.3347 -1.2043
 2594TIP3   OH231976   1.620   4.810  16.429  0.2026 -0.1919 -0.4322
 2594TIP3    H131977   1.609   4.716  16.417 -0.7317 -0.1725  0.2161
 2594TIP3    H231978   1.606   4.825  16.522  0.2831  0.5994 -0.5374
 2595TIP3   OH231979   2.571   2.571  17.871 -0.0630  0.4603  0.9758
 2595TIP3    H131980   2.507   2.500  17.882  0.2817 -0.3918 -1.7773
 2595TIP3    H231981   2.520   2.643  17.833 -0.4183  1.8475  3.7854
 2596TIP3   OH231982   8.053   6.832  17.297 -0.1911 -0.0573  0.7161
 2596TIP3    H131983   8.090   6.850  17.383 -0.9773 -3.0750  1.7806
 2596TIP3    H231984   8.100   6.755  17.266 -2.3228 -1.1840  0.0750
 2597TIP3   OH231985   0.645   7.828  15.830 -0.1095 -0.0851 -0.2512
 2597TIP3    H131986   0.613   7.739  15.846  0.3500 -0.2824 -0.4054
 2597TIP3    H231987   0.570   7.884  15.849  0.3526 -0.2727  2.6058
 2598TIP3   OH231988   5.637   4.484  16.118 -0.4359 -0.3058 -0.0349
 2598TIP3    H131989   5.577   4.419  16.084 -3.1759  1.5009  1.0198
 2598TIP3    H231990   5.607   4.567  16.080  1.1928  0.7270  0.7985
 2599TIP3   OH231991   2.257   5.643  18.040  0.5666  0.6454  0.1318
 2599TIP3    H131992   2.306   5.723  18.022  0.3194  0.3739 -1.8772
 2599TIP3    H231993   2.224   5.656  18.130  2.1484  1.9178  0.5801
 2600TIP3   OH231994   5.774   2.250  17.830 -0.1657  0.8169  0.4742
 2600TIP3    H131995   5.856   2.278  17.790  0.1606  0.1139  0.6233
 2600TIP3    H231996   5.799   2.219  17.916 -0.1294 -1.8782 -0.4055
 2601TIP3   OH231997   7.742   3.620  16.731  0.1907  0.0157  0.2928
 2601TIP3    H131998   7.756   3.598  16.823  0.3116 -0.9296  0.0588
 2601TIP3    H231999   7.821   3.589  16.687 -0.1908 -0.2126 -0.2348
 2602TIP3   OH232000   5.908   3.722  17.895 -0.1074  0.4157 -0.7067
 2602TIP3    H132001   5.842   3.653  17.891 -1.7216  1.7841  0.6324
 2602TIP3    H232002   5.857   3.803  17.890  1.6156  1.5188 -0.9625
 2603TIP3   OH232003   6.686   8.414  16.975  0.4511  0.3384 -0.0727
 2603TIP3    H132004   6.675   8.328  17.015 -3.7736 -0.7630 -3.0151
 2603TIP3    H232005   6.646   8.474  17.037 -0.9639 -0.5383 -0.1085
 2604TIP3   OH232006   1.971   1.785  17.282 -0.1256  0.1582 -0.1094
 2604TIP3    H132007   1.998   1.694  17.272 -1.2056 -0.6003  2.8248
 2604TIP3    H232008   1.920   1.804  17.203  0.6805 -1.5439 -1.0740
 2605TIP3   OH232009   0.223   2.183  16.440  0.1847  0.3016 -0.8626
 2605TIP3    H132010   0.264   2.245  16.380  1.0551 -0.8731 -1.5108
 2605TIP3    H232011   0.130   2.184  16.414  0.0276  1.8790 -0.3479
 2606TIP3   OH232012   2.525   5.341  16.285 -0.0686  0.2323 -0.2346
 2606TIP3    H132013   2.551   5.385  16.366 -1.5675  0.2567  0.2743
 2606TIP3    H232014   2.447   5.389  16.256 -1.0606 -1.3422 -0.2979
 2607TIP3   OH232015   0.612   7.262  16.143  0.0968  0.3389 -0.4653
 2607TIP3    H132016   0.631   7.330  16.208 -0.1597  0.8532 -0.9208
 2607TIP3    H232017   0.686   7.265  16.083 -0.0842  0.4621 -0.6847
 2608TIP3   OH232018   7.017   5.795  16.769 -0.2204 -0.5629 -0.3991
 2608TIP3    H132019   7.091   5.807  16.829 -1.6443  0.2755  1.2766
 2608TIP3    H232020   7.044   5.724  16.711  0.9473 -1.9366  1.7097
 2609TIP3   OH232021   8.343   7.596  16.487  0.4165 -0.5526 -0.3039
 2609TIP3    H132022   8.413   7.657  16.463  0.3907 -0.3145  0.1941
 2609TIP3    H232023   8.262   7.644  16.469  0.3958 -0.1176  0.8153
 2610TIP3   OH232024   2.041   6.011  17.663  0.2087 -0.0851 -0.7747
 2610TIP3    H132025   1.949   5.986  17.659  1.1044 -4.3025  0.4858
 2610TIP3    H232026   2.047   6.090  17.609 -4.4383  1.6832  0.7756
 2611TIP3   OH232027   7.993   0.537  16.440  0.0338  0.3490  0.3718
 2611TIP3    H132028   7.938   0.520  16.364  0.2017  0.5197  0.2101
 2611TIP3    H232029   8.082   0.522  16.409  0.2400  2.0171  0.0718
 2612TIP3   OH232030   2.106   0.662  16.229 -0.0603 -0.2974 -0.5313
 2612TIP3    H132031   2.153   0.743  16.205  0.5912 -0.3523  0.5145
 2612TIP3    H232032   2.097   0.615  16.146  0.4502  0.3911 -0.9919
 2613TIP3   OH232033   1.133   3.059  17.070  0.3218 -0.3736 -0.2036
 2613TIP3    H132034   1.125   2.967  17.094 -1.2820 -0.0750  0.6023
 2613TIP3    H232035   1.080   3.105  17.135  0.3139  1.0190 -1.1492
 2614TIP3   OH232036   7.972   5.426  17.207  0.9564  0.5202 -0.7906
 2614TIP3    H132037   7.938   5.382  17.284  1.8666 -2.5943 -2.0075
 2614TIP3    H232038   8.062   5.450  17.231  0.7968  0.7918 -0.4593
 2615TIP3   OH232039   5.482   6.529  18.057  0.1054 -0.1755  0.2332
 2615TIP3    H132040   5.394   6.546  18.024 -0.5975  1.1650  2.5146
 2615TIP3    H232041   5.481   6.436  18.081 -0.1378 -0.5589 -1.1733
 2616TIP3   OH232042   2.500   4.487  16.677  0.1167  0.1304  0.1471
 2616TIP3    H132043   2.595   4.492  16.689 -0.0462 -0.0949  1.6989
 2616TIP3    H232044   2.487   4.407  16.626  0.7877  0.5049 -0.6446
 2617TIP3   OH232045   5.822   1.940  17.119  0.3625 -0.4494 -0.3514
 2617TIP3    H132046   5.795   1.858  17.078  1.3514 -0.4663 -1.0055
 2617TIP3    H232047   5.765   1.948  17.196  0.6417 -2.0430  0.0543
 2618TIP3   OH232048   7.065   2.141  15.806 -0.0232  0.0745 -0.4114
 2618TIP3    H132049   6.978   2.127  15.845  0.0923 -0.7906 -0.4349
 2618TIP3    H232050   7.109   2.199  15.867 -0.6635  0.6343 -0.4669
 2619TIP3   OH232051   4.197   7.022  16.207 -0.5655  0.0950  0.6274
 2619TIP3    H132052   4.128   7.026  16.141  0.8943  1.5027 -0.8855
 2619TIP3    H232053   4.183   6.937  16.250 -3.3376  0.4077  0.5646
 2620TIP3   OH232054   0.272   0.445  16.216  0.5919 -0.0377  0.3431
 2620TIP3    H132055   0.263   0.472  16.308 -0.1523 -1.6639  0.7806
 2620TIP3    H232056   0.320   0.517  16.175  1.3605  0.5125  2.1046
 2621TIP3   OH232057   2.512   5.461  16.514 -0.1548 -0.0848  0.0707
 2621TIP3    H132058   2.480   5.551  16.505 -1.3135 -0.4599  0.2426
 2621TIP3    H232059   2.562   5.461  16.595  1.9807  0.9821 -1.1809
 2622TIP3   OH232060   8.190   7.283  17.041 -0.1229 -0.1229 -0.0357
 2622TIP3    H132061   8.136   7.358  17.064 -1.3811 -1.2833  0.8941
 2622TIP3    H232062   8.204   7.236  17.123 -0.1376 -1.3995 -0.7270
 2623TIP3   OH232063   6.625   0.153  17.186  0.0539  0.1577 -0.1884
 2623TIP3    H132064   6.560   0.217  17.212 -0.2306 -0.0890 -0.2853
 2623TIP3    H232065   6.605   0.075  17.238  0.2908  0.0931 -0.1935
 2624TIP3   OH232066   3.810   2.840  16.901  0.1386  0.0895 -1.1334
 2624TIP3    H132067   3.880   2.782  16.871 -0.0790 -2.1643  2.2898
 2624TIP3    H232068   3.845   2.928  16.887  2.9157 -0.9302 -1.2288
 2625TIP3   OH232069   2.707   6.255  18.031 -0.4562 -0.5698  0.1202
 2625TIP3    H132070   2.655   6.275  17.953 -2.1097  0.4661  1.4125
 2625TIP3    H232071   2.790   6.301  18.018 -1.3023  0.8836 -0.3700
 2626TIP3   OH232072   4.073   8.428  17.618 -0.3692  0.0627 -0.3052
 2626TIP3    H132073   4.153   8.376  17.619 -0.2499  0.2499  1.1352
 2626TIP3    H232074   4.080   8.481  17.539  0.1200 -1.1406 -1.0965
 2627TIP3   OH232075   5.273   5.388  17.208 -0.2727 -0.5235  0.3031
 2627TIP3    H132076   5.226   5.470  17.189 -0.5844 -0.4016  1.4911
 2627TIP3    H232077   5.360   5.401  17.171 -0.5352  0.0835 -0.1098
 2628TIP3   OH232078   4.861   1.546  17.093 -0.2537 -0.1339 -1.5477
 2628TIP3    H132079   4.809   1.615  17.050  1.3175  0.5155 -2.4939
 2628TIP3    H232080   4.932   1.528  17.031  0.5946 -1.0577 -0.3455
 2629TIP3   OH232081   8.158   5.812  17.187 -0.6008 -0.7338 -0.3737
 2629TIP3    H132082   8.252   5.797  17.180 -0.7489 -1.6378 -0.5548
 2629TIP3    H232083   8.138   5.795  17.280 -0.6044 -0.6600 -0.3610
 2630TIP3   OH232084   0.696   1.287  16.306  0.6927 -0.1407 -0.3569
 2630TIP3    H132085   0.740   1.213  16.265  0.7441  0.2943 -1.1113
 2630TIP3    H232086   0.635   1.319  16.239 -0.5385 -0.5260  0.5516
 2631TIP3   OH232087   2.262   2.878  16.292  0.2218 -0.7557  0.0257
 2631TIP3    H132088   2.210   2.843  16.219  0.4454 -0.2629 -0.3797
 2631TIP3    H232089   2.248   2.973  16.287  0.9108 -0.6445  0.1014
 2632TIP3   OH232090   4.967   7.724  16.679  0.3019  0.9071  0.2928
 2632TIP3    H132091   4.933   7.762  16.598 -0.1528  0.5560  0.3166
 2632TIP3    H232092   4.927   7.776  16.749  2.1465  2.4572  0.2969
 2633TIP3   OH232093   1.053   5.680  17.913  0.5635  0.0459 -0.2136
 2633TIP3    H132094   1.134   5.701  17.867  0.1468 -1.0745 -1.5332
 2633TIP3    H232095   1.081   5.652  18.000  1.6352 -0.7021 -0.7776
 2634TIP3   OH232096   2.862   0.939  16.906 -0.1187 -0.1396 -0.2296
 2634TIP3    H132097   2.805   0.873  16.944  1.1750  0.3786  2.8884
 2634TIP3    H232098   2.942   0.892  16.883  0.0696 -0.0195  0.1651
 2635TIP3   OH232099   3.539   1.472  16.771 -0.6602  0.1467 -0.3029
 2635TIP3    H132100   3.500   1.483  16.858  0.2556 -1.5116  0.3637
 2635TIP3    H232101   3.627   1.438  16.789 -0.6452 -0.7222 -1.9046
 2636TIP3   OH232102   7.043   1.902  16.015  0.0606 -0.5660  0.2014
 2636TIP3    H132103   6.995   1.923  16.095 -0.6362 -1.6063  0.0755
 2636TIP3    H232104   6.982   1.851  15.962  1.1275 -1.5382 -0.1531
 2637TIP3   OH232105   6.555   4.414  16.734  0.4448  0.4640  0.5246
 2637TIP3    H132106   6.569   4.406  16.828 -0.7302  0.8661  0.7450
 2637TIP3    H232107   6.599   4.338  16.697  1.3857  0.5956  1.3429
 2638TIP3   OH232108   0.683   1.641  16.336 -0.2132  0.0480 -0.2702
 2638TIP3    H132109   0.606   1.591  16.311 -0.3003 -0.0342  0.1590
 2638TIP3    H232110   0.651   1.708  16.396  0.1476 -0.4541  0.5025
 2639TIP3   OH232111   3.438   7.555  15.960 -0.0673 -0.3769  0.3491
 2639TIP3    H132112   3.532   7.563  15.944 -0.3566  0.3186 -1.1359
 2639TIP3    H232113   3.403   7.518  15.879 -1.3074  1.0076  0.2183
 2640TIP3   OH232114   2.475   7.150  16.789 -0.0872 -0.1032  0.0492
 2640TIP3    H132115   2.437   7.238  16.787 -1.1050 -0.4626  1.8051
 2640TIP3    H232116   2.435   7.109  16.865  0.1973 -2.1810 -0.8721
 2641TIP3   OH232117   2.833   5.740  15.483 -0.2763 -0.0614 -0.4162
 2641TIP3    H132118   2.892   5.813  15.461 -1.8126  1.1404 -0.7283
 2641TIP3    H232119   2.858   5.670  15.423  2.0266 -0.2743  0.6681
 2642TIP3   OH232120   4.409   4.870  16.288  0.3454 -0.1600  0.4860
 2642TIP3    H132121   4.379   4.960  16.293 -1.1944 -0.3666 -2.4655
 2642TIP3    H232122   4.498   4.876  16.254 -0.1564  0.2787 -0.8134
 2643TIP3   OH232123   1.934   1.256  16.001 -0.6986 -0.0348  0.0522
 2643TIP3    H132124   1.937   1.162  16.018 -2.1984 -0.0529  0.3711
 2643TIP3    H232125   1.841   1.275  15.991 -0.7140  1.9122  2.7983
 2644TIP3   OH232126   4.637   4.168  17.812 -0.3002  0.0823  0.8349
 2644TIP3    H132127   4.575   4.186  17.742  0.0768 -1.2668  0.1214
 2644TIP3    H232128   4.599   4.211  17.889 -1.9515 -0.4295  0.3445
 2645TIP3   OH232129   2.557   7.669  16.800  0.2153  0.2960 -0.3728
 2645TIP3    H132130   2.516   7.589  16.769 -0.1584 -0.0859  1.0447
 2645TIP3    H232131   2.650   7.657  16.782  0.3569 -1.0954  1.0958
 2646TIP3   OH232132   5.209   2.888  16.399  0.3544 -0.2036 -0.2283
 2646TIP3    H132133   5.280   2.840  16.358 -0.0136  0.2794 -1.4707
 2646TIP3    H232134   5.132   2.833  16.386  0.2413 -0.0702 -0.1330
 2647TIP3   OH232135   7.591   0.834  17.662 -0.1090 -0.4351 -0.3097
 2647TIP3    H132136   7.598   0.929  17.668  0.5271 -0.4432 -0.7918
 2647TIP3    H232137   7.501   0.818  17.633 -0.5162 -0.0331  0.6977
 2648TIP3   OH232138   4.262   6.435  16.030  0.2729 -0.1265 -0.0015
 2648TIP3    H132139   4.352   6.406  16.016  0.0829 -0.9851  0.4657
 2648TIP3    H232140   4.237   6.476  15.947  0.5750 -1.2907 -0.6956
 2649TIP3   OH232141   5.267   4.156  17.168 -0.0938  0.0985 -0.1949
 2649TIP3    H132142   5.243   4.198  17.250 -0.3597 -0.4442  0.0073
 2649TIP3    H232143   5.335   4.094  17.192 -1.1848 -1.1062 -0.1324
 2650TIP3   OH232144   7.816   5.626  16.334 -0.0154  0.5315  0.0753
 2650TIP3    H132145   7.807   5.646  16.241 -0.3917 -0.2011 -0.0587
 2650TIP3    H232146   7.868   5.697  16.369 -0.9053  1.4717 -0.4506
 2651TIP3   OH232147   7.603   3.536  17.706 -0.3126 -0.8653  0.1737
 2651TIP3    H132148   7.625   3.532  17.799  1.4544  0.9967 -0.0907
 2651TIP3    H232149   7.560   3.453  17.687 -0.9792 -1.1550  2.7035
 2652TIP3   OH232150   0.855   6.511  16.313  0.1640 -0.1736 -0.0031
 2652TIP3    H132151   0.767   6.541  16.332  1.0631  2.2201  0.7661
 2652TIP3    H232152   0.865   6.431  16.364 -1.3373 -0.1080  0.4309
 2653TIP3   OH232153   5.810   7.710  17.700  0.1540 -0.1352 -0.1760
 2653TIP3    H132154   5.864   7.782  17.732  1.5056 -1.4391  0.6396
 2653TIP3    H232155   5.782   7.737  17.613  0.1845  1.5749  0.3154
 2654TIP3   OH232156   0.722   3.083  16.687  0.2401  0.5069  0.9944
 2654TIP3    H132157   0.762   2.997  16.672 -0.4166  0.3543 -0.0180
 2654TIP3    H232158   0.695   3.081  16.779  0.0336 -0.4752  0.9316
 2655TIP3   OH232159   4.692   7.566  17.212  0.4121  0.7058  0.1670
 2655TIP3    H132160   4.777   7.564  17.168  1.3022  0.9930  1.7877
 2655TIP3    H232161   4.629   7.542  17.144  1.4865  2.8279 -1.7173
 2656TIP3   OH232162   2.840   3.420  17.425  0.4387  0.3270 -0.3231
 2656TIP3    H132163   2.830   3.394  17.516  1.1499  0.3965 -0.2264
 2656TIP3    H232164   2.753   3.404  17.386 -0.1006  1.0184  0.5437
 2657TIP3   OH232165   4.631   7.834  17.226 -0.7495  0.1154 -0.0509
 2657TIP3    H132166   4.671   7.842  17.312 -2.3030  0.9668  0.6161
 2657TIP3    H232167   4.627   7.739  17.210  1.6263 -0.0199 -0.2413
 2658TIP3   OH232168   7.302   3.742  16.428  0.7365  0.5085 -0.2242
 2658TIP3    H132169   7.308   3.829  16.468  3.2946  0.6028 -0.6309
 2658TIP3    H232170   7.383   3.698  16.453 -1.0994 -2.3981  1.2039
 2659TIP3   OH232171   1.146   0.865  16.490  0.3830  0.4380  0.0171
 2659TIP3    H132172   1.098   0.864  16.573  2.5248 -0.0030  1.3616
 2659TIP3    H232173   1.172   0.956  16.479  2.5571  0.0812  1.4706
 2660TIP3   OH232174   4.994   3.675  17.593  0.1163  1.0147  0.0065
 2660TIP3    H132175   5.050   3.724  17.533  0.1523  1.4212  0.3655
 2660TIP3    H232176   5.047   3.666  17.673  0.1909  0.2088 -0.1263
 2661TIP3   OH232177   6.004   8.301  17.885  0.3732 -0.0716  0.0057
 2661TIP3    H132178   6.034   8.337  17.801  1.8231 -0.0970  0.4983
 2661TIP3    H232179   6.058   8.224  17.900 -1.0336 -1.0743  0.1669
 2662TIP3   OH232180   7.401   0.229  16.743 -0.0024  0.1050  0.4796
 2662TIP3    H132181   7.305   0.224  16.737 -0.0582  0.1479  1.3351
 2662TIP3    H232182   7.419   0.323  16.748  0.1644  0.1639 -0.7289
 2663TIP3   OH232183   1.822   4.607  17.668 -0.4590  0.2668  0.2239
 2663TIP3    H132184   1.766   4.672  17.710 -0.6200 -0.1707  0.6870
 2663TIP3    H232185   1.895   4.658  17.633 -0.1595  0.6088  1.3055
 2664TIP3   OH232186   6.163   1.577  16.409 -0.1037  0.1674 -0.1343
 2664TIP3    H132187   6.116   1.520  16.348 -0.4715 -0.0692  0.3604
 2664TIP3    H232188   6.099   1.599  16.476 -0.0714  1.4726 -0.5062
 2665TIP3   OH232189   4.678   1.549  17.345  0.4056  0.2265 -0.0396
 2665TIP3    H132190   4.676   1.616  17.414  1.6930  0.0327  0.2012
 2665TIP3    H232191   4.745   1.580  17.284  0.1510 -0.2440 -0.5618
 2666TIP3   OH232192   1.417   6.371  16.004 -0.0873  0.2045 -0.5826
 2666TIP3    H132193   1.358   6.438  16.038  1.6145  1.0964  0.7651
 2666TIP3    H232194   1.451   6.409  15.923 -2.4354 -0.9716 -2.2352
 2667TIP3   OH232195   0.553   1.657  15.499  0.0092 -0.4054  0.5718
 2667TIP3    H132196   0.576   1.569  15.470  0.3309  0.2339 -1.2880
 2667TIP3    H232197   0.462   1.651  15.526 -0.8684 -0.8074 -2.1444
 2668TIP3   OH232198   2.528   4.072  16.328  0.0163  0.1357  0.0126
 2668TIP3    H132199   2.504   4.074  16.235 -2.2952  1.2013  0.5529
 2668TIP3    H232200   2.591   4.143  16.337 -1.3278  1.4465 -0.4261
 2669TIP3   OH232201   2.158   5.791  17.738 -0.0095  0.1793  0.8059
 2669TIP3    H132202   2.145   5.785  17.833 -2.5959 -1.1295  0.4555
 2669TIP3    H232203   2.113   5.871  17.713 -0.1389  0.0420  0.5949
 2670TIP3   OH232204   7.039   2.508  17.684  0.5860 -0.4256  0.8414
 2670TIP3    H132205   7.079   2.482  17.767 -1.9961  0.3712  2.4712
 2670TIP3    H232206   6.992   2.589  17.705  0.9588  0.5595 -1.7783
 2671TIP3   OH232207   7.742   8.076  16.754 -0.6469 -0.2434 -0.0285
 2671TIP3    H132208   7.739   7.991  16.798  0.9447 -0.6294 -0.5908
 2671TIP3    H232209   7.700   8.136  16.815 -1.3121 -1.3319  0.6154
 2672TIP3   OH232210   1.708   3.042  16.198 -0.3992 -0.2173  0.6354
 2672TIP3    H132211   1.685   3.120  16.248  0.7718  1.2336 -0.9769
 2672TIP3    H232212   1.625   2.995  16.187 -1.3442  1.3576  0.7267
 2673TIP3   OH232213   1.897   8.059  15.659 -0.4958 -0.0412  0.4472
 2673TIP3    H132214   1.990   8.044  15.670  0.6000  3.2903 -2.3626
 2673TIP3    H232215   1.867   8.092  15.743  0.1786 -3.2216  2.0894
 2674TIP3   OH232216   4.283   4.858  17.114 -0.2427 -0.3202 -0.5163
 2674TIP3    H132217   4.240   4.804  17.048 -1.6268  0.5974 -0.4207
 2674TIP3    H232218   4.210   4.899  17.161  0.7425 -0.0850  0.8331
 2675TIP3   OH232219   7.714   8.297  16.187 -0.0223 -0.3290  0.1891
 2675TIP3    H132220   7.635   8.284  16.134  0.3438  0.7289 -0.6651
 2675TIP3    H232221   7.682   8.296  16.277 -1.0444  0.1910 -0.1429
 2676TIP3   OH232222   1.593   6.443  15.776  0.2627 -0.2141  0.2022
 2676TIP3    H132223   1.573   6.488  15.694  0.6198 -3.1425 -1.6770
 2676TIP3    H232224   1.644   6.506  15.827 -0.7765  2.0446 -1.3881
 2677TIP3   OH232225   6.337   4.525  16.387  0.0234 -0.1012  0.0272
 2677TIP3    H132226   6.332   4.458  16.319 -3.1732  0.6472 -0.6298
 2677TIP3    H232227   6.342   4.476  16.469 -0.6946 -1.1382 -0.5274
 2678TIP3   OH232228   2.902   0.365  15.993 -0.0649 -0.0508  0.5517
 2678TIP3    H132229   2.936   0.371  16.082  1.2059  0.8728  0.0204
 2678TIP3    H232230   2.965   0.309  15.947  0.6950  1.5069 -0.3869
 2679TIP3   OH232231   3.004   2.407  16.457  0.4294  0.5910  0.3216
 2679TIP3    H132232   2.911   2.418  16.439  0.5428 -0.5031 -1.0703
 2679TIP3    H232233   3.044   2.397  16.371  2.0040  2.0911  0.8235
 2680TIP3   OH232234   3.748   8.289  15.976 -0.3154 -0.1425  0.4132
 2680TIP3    H132235   3.725   8.380  15.961  1.6253  0.5955  1.4846
 2680TIP3    H232236   3.771   8.255  15.890  0.9231  1.0250  0.2454
 2681TIP3   OH232237   5.162   0.448  17.203 -0.2918  0.0209 -0.0426
 2681TIP3    H132238   5.230   0.471  17.266  0.9484 -1.0467 -0.9392
 2681TIP3    H232239   5.165   0.352  17.197 -2.0495 -0.0812  0.0601
 2682TIP3   OH232240   3.421   0.094  15.933  0.2296 -0.1615  0.5077
 2682TIP3    H132241   3.364   0.170  15.943  0.3074 -0.0193 -0.0926
 2682TIP3    H232242   3.365   0.026  15.897  0.5674  0.1844 -0.7464
 2683TIP3   OH232243   7.648   1.172  15.783  0.7275  0.0813 -0.4295
 2683TIP3    H132244   7.700   1.209  15.712  0.3035 -1.3453 -1.5297
 2683TIP3    H232245   7.563   1.153  15.743  0.2799 -0.2113  0.6195
 2684TIP3   OH232246   5.465   2.757  17.316 -0.3089  0.3975  0.0267
 2684TIP3    H132247   5.527   2.784  17.384 -1.3830  0.3034  1.1016
 2684TIP3    H232248   5.432   2.672  17.347 -3.5017  1.9587  1.3788
 2685TIP3   OH232249   4.008   2.157  15.980 -0.2667 -0.3036 -0.1820
 2685TIP3    H132250   3.979   2.232  16.032 -2.0679  1.2575 -3.1509
 2685TIP3    H232251   3.930   2.102  15.972  0.3313 -1.1553 -0.2183
 2686TIP3   OH232252   6.244   7.814  16.566  0.2017 -0.7301 -0.2572
 2686TIP3    H132253   6.328   7.803  16.524  0.5232  1.2488 -0.2314
 2686TIP3    H232254   6.181   7.774  16.506  1.0804 -1.7607 -0.5193
 2687TIP3   OH232255   0.142   1.011  17.594 -0.1379  0.1843 -0.5063
 2687TIP3    H132256   0.075   1.059  17.546 -0.1307  0.8498  0.1334
 2687TIP3    H232257   0.212   1.075  17.608 -0.1837  0.0400  0.4669
 2688TIP3   OH232258   3.376   2.752  15.923  0.4959  0.1632  0.1254
 2688TIP3    H132259   3.429   2.739  16.001 -0.1991 -0.7903  0.4645
 2688TIP3    H232260   3.420   2.702  15.855  0.6921  0.3696  0.1019
 2689TIP3   OH232261   2.139   0.175  16.154 -0.5645 -0.5747  0.2231
 2689TIP3    H132262   2.056   0.153  16.197 -0.8126  0.0902  0.0958
 2689TIP3    H232263   2.113   0.231  16.080  0.0460  0.1992  0.5790
 2690TIP3   OH232264   2.992   1.692  17.073 -0.2290 -0.1889  0.3907
 2690TIP3    H132265   3.051   1.616  17.078 -0.0340 -0.0907 -0.2419
 2690TIP3    H232266   3.026   1.743  17.000 -0.8494  0.0872  0.2879
 2691TIP3   OH232267   5.662   8.345  16.203  0.2400 -0.2488 -0.2920
 2691TIP3    H132268   5.674   8.260  16.246 -1.1380 -0.1988  0.2483
 2691TIP3    H232269   5.614   8.326  16.123 -1.1086  0.1312  0.4087
 2692TIP3   OH232270   2.183   6.782  16.010  0.0374 -0.0113  0.2631
 2692TIP3    H132271   2.099   6.789  16.054  0.2393 -0.1893  0.6799
 2692TIP3    H232272   2.168   6.721  15.938 -0.3655  0.5024 -0.0969
 2693TIP3   OH232273   0.561   5.778  17.079  0.1328 -0.2660 -0.0946
 2693TIP3    H132274   0.495   5.846  17.090  0.3947  0.2097 -1.2897
 2693TIP3    H232275   0.599   5.767  17.166  0.1591  1.1912  0.1025
 2694TIP3   OH232276   5.562   5.772  16.415 -0.1458 -0.0856 -0.2398
 2694TIP3    H132277   5.588   5.722  16.337  0.5511  1.5742 -1.1412
 2694TIP3    H232278   5.472   5.745  16.432 -0.3117 -0.5138 -1.6318
 2695TIP3   OH232279   4.909   2.370  16.133  0.4650 -0.6500  0.5832
 2695TIP3    H132280   4.962   2.308  16.083  0.8559 -0.7643  1.1350
 2695TIP3    H232281   4.918   2.453  16.086  1.3656 -0.6012  0.8316
 2696TIP3   OH232282   4.275   2.681  16.683 -0.5401 -0.5545  0.1100
 2696TIP3    H132283   4.341   2.660  16.617 -0.5560 -0.3364  0.0250
 2696TIP3    H232284   4.298   2.627  16.759 -1.0440 -1.4954 -0.3842
 2697TIP3   OH232285   8.426   4.501  16.345  0.2370  0.6700  0.6860
 2697TIP3    H132286   8.499   4.442  16.326 -1.0290 -0.1909 -2.0984
 2697TIP3    H232287   8.362   4.447  16.391 -0.6771 -0.0606 -1.3451
 2698TIP3   OH232288   2.647   2.158  16.889 -0.4343  0.2548 -0.3722
 2698TIP3    H132289   2.558   2.139  16.860 -0.3433  0.7156 -0.9914
 2698TIP3    H232290   2.657   2.252  16.875 -0.5016  0.5927  1.5630
 2699TIP3   OH232291   4.106   2.191  16.278 -0.5151  0.1890 -0.1392
 2699TIP3    H132292   4.041   2.225  16.216  0.3261  0.7027 -0.7552
 2699TIP3    H232293   4.102   2.096  16.266 -0.3815  0.2814 -0.9761
 2700TIP3   OH232294   2.002   1.299  16.275 -0.1267 -0.3156  0.0774
 2700TIP3    H132295   2.095   1.284  16.296  0.3589  1.0690 -0.8970
 2700TIP3    H232296   1.999   1.296  16.180 -0.4754  2.5387 -0.0875
 2701TIP3   OH232297   5.992   0.715  17.312 -0.7687  0.4141 -0.4389
 2701TIP3    H132298   6.086   0.715  17.295 -0.6175  1.2344  0.3319
 2701TIP3    H232299   5.953   0.752  17.233 -0.2197  2.5734  0.2480
 2702TIP3   OH232300   6.980   0.308  15.934  0.0441 -0.2340  0.3504
 2702TIP3    H132301   6.984   0.395  15.895 -0.8240  0.8441  2.4961
 2702TIP3    H232302   6.887   0.287  15.936 -0.0197  0.0624  2.3829
 2703TIP3   OH232303   0.078   5.955  17.783 -0.3023  0.2197 -0.5723
 2703TIP3    H132304   0.011   5.996  17.729 -0.6728  0.4264  0.0347
 2703TIP3    H232305   0.133   6.028  17.812 -0.6038  0.2259  0.0112
 2704TIP3   OH232306   6.713   1.692  17.083  0.1680 -0.3586 -0.4491
 2704TIP3    H132307   6.619   1.701  17.100  0.1945  1.1953 -0.9327
 2704TIP3    H232308   6.718   1.669  16.990  0.2760  0.6939 -0.7167
 2705TIP3   OH232309   3.692   5.763  17.698 -0.2954  0.5745  0.8381
 2705TIP3    H132310   3.627   5.810  17.645  0.8768 -0.1074 -1.3211
 2705TIP3    H232311   3.644   5.737  17.777 -2.3928  0.8557 -0.2607
 2706TIP3   OH232312   4.868   6.602  15.621  0.0483 -0.1258 -0.0473
 2706TIP3    H132313   4.951   6.567  15.655 -0.0479  0.8034  1.2145
 2706TIP3    H232314   4.888   6.692  15.596 -0.3921 -0.1532 -0.5101
 2707TIP3   OH232315   2.928   7.592  15.867 -0.1598 -0.4108 -0.1096
 2707TIP3    H132316   2.949   7.647  15.942  1.0091  1.1627 -1.5117
 2707TIP3    H232317   2.853   7.635  15.826 -0.5844 -1.0774 -0.0505
 2708TIP3   OH232318   1.541   3.944  16.640  0.6459 -0.4632 -0.1550
 2708TIP3    H132319   1.485   3.993  16.700  0.4334  2.5038 -2.5282
 2708TIP3    H232320   1.535   3.853  16.670 -1.7543  0.4044  2.4286
 2709TIP3   OH232321   5.520   3.275  16.802  0.4821  0.1449  0.2077
 2709TIP3    H132322   5.595   3.224  16.834  0.0170 -1.5166 -1.2029
 2709TIP3    H232323   5.559   3.357  16.773  1.7039 -0.4688  0.0035
 2710TIP3   OH232324   2.567   8.104  15.959  0.3144 -0.1881  0.4905
 2710TIP3    H132325   2.479   8.138  15.938  1.3086  1.7697 -0.8346
 2710TIP3    H232326   2.570   8.103  16.054 -0.6430  1.1804  0.5737
 2711TIP3   OH232327   7.136   1.142  17.480 -0.2599  0.1582  0.4471
 2711TIP3    H132328   7.140   1.167  17.573 -1.9593 -2.8394  1.4479
 2711TIP3    H232329   7.047   1.166  17.453 -0.2242 -0.2351 -0.0232
 2712TIP3   OH232330   3.597   4.198  18.091  0.3005 -1.2794  0.4791
 2712TIP3    H132331   3.689   4.195  18.067  0.5485  1.6252  0.7761
 2712TIP3    H232332   3.586   4.282  18.135 -2.9678 -0.3766 -1.6932
 2713TIP3   OH232333   6.196   5.442  16.123 -0.1482 -0.2433  0.0577
 2713TIP3    H132334   6.188   5.346  16.117 -0.2522 -0.2914  0.9223
 2713TIP3    H232335   6.204   5.460  16.217  2.1603  0.4092 -0.1805
 2714TIP3   OH232336   3.260   0.334  15.891  0.1252 -0.1196 -0.1099
 2714TIP3    H132337   3.167   0.325  15.871  0.0027  1.5778 -0.4070
 2714TIP3    H232338   3.305   0.299  15.813 -0.2092 -1.5407  0.2934
 2715TIP3   OH232339   5.149   7.164  16.110 -0.5359  0.6941 -0.0250
 2715TIP3    H132340   5.069   7.169  16.058 -0.0011 -2.3475 -1.3474
 2715TIP3    H232341   5.124   7.114  16.188 -0.2817  1.1895  0.3802
 2716TIP3   OH232342   1.389   2.215  15.642 -0.8904  0.5342 -0.3220
 2716TIP3    H132343   1.379   2.294  15.694  0.2499  0.1587  0.5112
 2716TIP3    H232344   1.299   2.184  15.627 -1.2796  1.1315  0.6761
 2717TIP3   OH232345   3.394   0.025  15.459  0.6296  0.2572  0.0323
 2717TIP3    H132346   3.439   0.079  15.394  0.8616 -0.0948 -0.0983
 2717TIP3    H232347   3.303   0.024  15.430  1.0536 -1.4777 -1.3788
 2718TIP3   OH232348   2.003   4.800  17.630  0.7071  0.4445  0.4492
 2718TIP3    H132349   1.956   4.879  17.606 -1.8236 -0.3873  2.2422
 2718TIP3    H232350   2.019   4.809  17.724 -1.0906 -1.7923  1.0571
 2719TIP3   OH232351   2.430   6.112  15.878  0.2072  0.0162  0.1651
 2719TIP3    H132352   2.418   6.020  15.903  1.0768  0.1071  0.9761
 2719TIP3    H232353   2.434   6.110  15.782  1.7551 -1.0024  0.2197
 2720TIP3   OH232354   0.134   6.510  16.507 -0.0796  0.1203  0.3956
 2720TIP3    H132355   0.186   6.584  16.475  0.5874 -0.4003  0.2560
 2720TIP3    H232356   0.074   6.490  16.435 -0.0495  0.3168  0.3144
 2721TIP3   OH232357   3.393   5.794  15.441  0.0484  0.1622  0.1257
 2721TIP3    H132358   3.357   5.793  15.352  1.3647 -0.9286 -0.4333
 2721TIP3    H232359   3.486   5.815  15.429  0.2396  0.0221  1.2431
 2722TIP3   OH232360   2.376   0.051  16.308  0.3349 -0.5631  0.5855
 2722TIP3    H132361   2.358  -0.036  16.344 -0.5468 -1.4931 -1.8746
 2722TIP3    H232362   2.372   0.039  16.214 -0.2990  2.2678  0.1605
 2723TIP3   OH232363   1.226   4.282  15.807  0.0076 -0.2172  0.5265
 2723TIP3    H132364   1.141   4.240  15.824 -1.3028  2.4845  1.1475
 2723TIP3    H232365   1.207   4.348  15.740  2.4789 -1.9910 -2.1632
 2724TIP3   OH232366   1.559   1.592  16.553  0.0379  0.0187  0.4910
 2724TIP3    H132367   1.516   1.538  16.486  0.0180  2.0529 -1.2786
 2724TIP3    H232368   1.503   1.585  16.630 -1.6503 -0.0595 -0.6944
 2725TIP3   OH232369   2.699   3.917  15.838  0.0057  0.3077  0.1922
 2725TIP3    H132370   2.606   3.897  15.831 -0.2284  1.3717  0.2140
 2725TIP3    H232371   2.742   3.834  15.819 -0.9884 -0.8949  2.7035
 2726TIP3   OH232372   1.566   3.272  17.491  0.2531 -0.1745 -0.0627
 2726TIP3    H132373   1.477   3.235  17.492  1.2515 -2.8480 -0.2354
 2726TIP3    H232374   1.607   3.232  17.414  1.3773  1.6609 -0.4717
 2727TIP3   OH232375   3.854   5.174  15.874  0.5370 -0.7138 -0.1065
 2727TIP3    H132376   3.823   5.088  15.845  0.1893 -0.6995  0.2144
 2727TIP3    H232377   3.858   5.167  15.969  0.8317 -0.4787 -0.1009
 2728TIP3   OH232378   1.147   1.576  17.278  0.5770  0.4303  0.3401
 2728TIP3    H132379   1.173   1.513  17.345  1.4896  1.8359  1.3420
 2728TIP3    H232380   1.096   1.642  17.325  0.4883  0.9872 -0.5109
 2729TIP3   OH232381   0.178   5.273  16.727 -0.0144  0.1402 -0.2383
 2729TIP3    H132382   0.243   5.330  16.766 -1.3890  0.8052  1.2022
 2729TIP3    H232383   0.141   5.324  16.655  1.8385 -0.7172 -1.9140
 2730TIP3   OH232384   7.410   3.728  17.355  0.1149 -0.4310  0.5077
 2730TIP3    H132385   7.470   3.729  17.280 -0.3483  1.1116  0.1122
 2730TIP3    H232386   7.467   3.732  17.432  0.5620 -0.3887  0.1761
 2731TIP3   OH232387   4.840   5.642  17.180 -0.0472  0.3318 -0.0533
 2731TIP3    H132388   4.898   5.616  17.251 -0.0923 -1.3001 -0.5650
 2731TIP3    H232389   4.755   5.655  17.222  0.4531  1.8400  0.5506
 2732TIP3   OH232390   5.206   6.894  16.654  0.0902  0.3964  0.4490
 2732TIP3    H132391   5.120   6.936  16.662 -0.1320 -0.0641  0.4857
 2732TIP3    H232392   5.242   6.896  16.743  1.1737  2.7900  0.0246
 2733TIP3   OH232393   0.360   5.107  17.547 -0.0965 -0.3130 -0.0024
 2733TIP3    H132394   0.287   5.133  17.603  0.5924 -1.6085  1.5729
 2733TIP3    H232395   0.359   5.170  17.476 -2.9163 -0.4596 -0.1935
 2734TIP3   OH232396   3.020   6.881  16.829 -0.2653 -0.0169 -0.1872
 2734TIP3    H132397   3.096   6.881  16.772 -0.4214 -0.4802 -0.3963
 2734TIP3    H232398   3.056   6.892  16.917  0.1085 -1.0079 -0.2055
 2735TIP3   OH232399   4.627   4.216  16.355  0.1831 -0.2865  0.3387
 2735TIP3    H132400   4.537   4.241  16.337  0.1988 -0.9135 -0.6987
 2735TIP3    H232401   4.678   4.296  16.339 -0.0592 -0.2399 -0.2035
 2736TIP3   OH232402   0.256   0.507  17.047  0.3502 -0.5054 -0.0696
 2736TIP3    H132403   0.265   0.526  17.140 -0.6056  0.5300 -0.1641
 2736TIP3    H232404   0.252   0.593  17.005  1.0654 -0.9590 -1.1026
 2737TIP3   OH232405   3.684   2.071  16.418  0.1340 -0.2999  0.3631
 2737TIP3    H132406   3.642   2.128  16.354 -0.1689 -1.9701 -0.9815
 2737TIP3    H232407   3.612   2.027  16.462  0.3656 -2.2773 -1.1138
 2738TIP3   OH232408   7.905   1.840  16.384 -0.1398  0.0343  0.2469
 2738TIP3    H132409   7.881   1.905  16.319  1.3860  1.7954  1.3555
 2738TIP3    H232410   7.831   1.838  16.445 -0.1887  0.7602  0.2145
 2739TIP3   OH232411   6.120   6.277  15.822  0.2873 -0.2915  0.7498
 2739TIP3    H132412   6.170   6.214  15.770  1.0697  1.1387 -0.2809
 2739TIP3    H232413   6.175   6.355  15.824 -2.0759  1.5290 -0.8235
 2740TIP3   OH232414   1.606   5.410  16.858  0.1502  0.4153 -0.2720
 2740TIP3    H132415   1.629   5.319  16.880 -2.1238 -0.8113 -2.4177
 2740TIP3    H232416   1.658   5.429  16.779  0.5122  0.9409  0.0909
 2741TIP3   OH232417   6.476   0.904  16.502 -0.0712 -0.7908 -0.1286
 2741TIP3    H132418   6.480   0.919  16.408 -2.2749 -1.0758 -0.3277
 2741TIP3    H232419   6.523   0.823  16.516 -0.0528 -0.9466 -1.0467
 2742TIP3   OH232420   1.526   6.779  16.832  0.6025 -0.1916  0.5367
 2742TIP3    H132421   1.616   6.768  16.803  0.4080 -0.2255 -0.0626
 2742TIP3    H232422   1.512   6.873  16.830  0.5159 -0.2108  0.3086
 2743TIP3   OH232423   4.025   5.358  17.210  0.1103 -0.4163  0.0228
 2743TIP3    H132424   3.966   5.328  17.279 -0.5534 -1.0056 -0.7996
 2743TIP3    H232425   3.968   5.381  17.137  0.8943 -1.0900 -0.8220
 2744TIP3   OH232426   2.424   0.208  17.281 -0.4794  0.1498 -0.5159
 2744TIP3    H132427   2.389   0.223  17.194 -0.0622 -0.2513 -0.7633
 2744TIP3    H232428   2.402   0.117  17.300 -0.0212  0.0410 -0.4748
 2745TIP3   OH232429   0.867   5.866  17.997 -0.0432  0.9986  0.3656
 2745TIP3    H132430   0.931   5.926  18.035  0.8235  0.3567 -0.0369
 2745TIP3    H232431   0.920   5.792  17.966 -1.1678 -0.3740  1.6172
 2746TIP3   OH232432   2.741   5.117  15.716  0.2144  0.0856  0.4520
 2746TIP3    H132433   2.781   5.107  15.803 -0.7046  1.7266  1.1277
 2746TIP3    H232434   2.701   5.032  15.697  1.3090 -0.6087  1.1612
 2747TIP3   OH232435   1.290   3.487  16.729  0.2137  0.2122 -0.1138
 2747TIP3    H132436   1.346   3.566  16.723  1.0446 -0.3330  0.2870
 2747TIP3    H232437   1.272   3.465  16.637 -1.6549  1.9710 -0.2301
 2748TIP3   OH232438   4.756   6.807  17.156  0.2630  0.5541 -0.1662
 2748TIP3    H132439   4.736   6.718  17.184  0.3820  0.1018 -1.4874
 2748TIP3    H232440   4.844   6.802  17.119 -0.1105  1.0016 -1.1549
 2749TIP3   OH232441   0.394   7.270  15.474 -0.3741 -0.8560 -0.4041
 2749TIP3    H132442   0.476   7.265  15.524 -2.2316 -2.2002  2.7764
 2749TIP3    H232443   0.385   7.184  15.433 -0.2290 -0.7266 -0.7102
 2750TIP3   OH232444   7.632   5.458  16.825  0.6510 -0.1752 -0.2623
 2750TIP3    H132445   7.663   5.444  16.915 -1.3131 -0.1930  0.4670
 2750TIP3    H232446   7.685   5.530  16.792  1.5572 -0.3125  0.8248
 2751TIP3   OH232447   7.318   3.862  16.725  0.5313 -0.4406 -0.4826
 2751TIP3    H132448   7.282   3.939  16.769  1.2231  0.2613 -1.1145
 2751TIP3    H232449   7.411   3.881  16.716  0.6227 -1.1335 -1.0997
 2752TIP3   OH232450   5.206   2.529  16.133 -0.2012  0.0032 -0.0282
 2752TIP3    H132451   5.127   2.532  16.080 -0.9869  0.4238  1.1279
 2752TIP3    H232452   5.267   2.475  16.082 -1.0638  0.0410 -1.1376
 2753TIP3   OH232453   5.942   0.072  17.015 -0.4794 -0.3095 -0.0253
 2753TIP3    H132454   6.027   0.044  16.981 -0.5207 -1.3122  0.6556
 2753TIP3    H232455   5.887  -0.007  17.010 -1.5092  0.4405 -0.8854
 2754TIP3   OH232456   0.929   4.614  17.243 -0.0918 -0.1326 -0.4185
 2754TIP3    H132457   0.966   4.669  17.174 -1.2037 -1.9519 -2.6042
 2754TIP3    H232458   0.866   4.670  17.287 -1.1796  0.4235 -2.5473
 2755TIP3   OH232459   2.571   4.384  15.848  0.0969 -0.2850 -0.3046
 2755TIP3    H132460   2.492   4.407  15.897  0.7447  0.3663  0.4648
 2755TIP3    H232461   2.614   4.318  15.903 -1.0460 -2.4144 -1.8290
 2756TIP3   OH232462   1.934   0.537  17.478  0.1100 -0.1220 -0.0952
 2756TIP3    H132463   2.013   0.527  17.425  0.4969  1.4295  0.1359
 2756TIP3    H232464   1.885   0.606  17.434 -0.7755 -0.5566  0.1850
 2757TIP3   OH232465   8.109   7.942  16.424 -0.1416  0.6209 -0.3670
 2757TIP3    H132466   8.046   7.936  16.352  1.0810  0.5373 -1.4751
 2757TIP3    H232467   8.156   7.859  16.421  2.8574  2.1829 -2.3739
 2758TIP3   OH232468   6.505   4.737  17.684 -0.3071 -0.5066 -0.2440
 2758TIP3    H132469   6.532   4.821  17.723  3.5492  1.0890 -5.2948
 2758TIP3    H232470   6.423   4.758  17.639  0.4055  0.5182 -1.1187
 2759TIP3   OH232471   1.687   7.159  17.926  0.3855  0.1524  0.0621
 2759TIP3    H132472   1.625   7.145  17.854 -0.2463 -0.2144  0.6606
 2759TIP3    H232473   1.715   7.071  17.951 -1.0121  0.0929  1.6282
 2760TIP3   OH232474   3.073   5.140  17.219  0.3366 -0.0212 -0.2695
 2760TIP3    H132475   2.978   5.150  17.229  0.2291 -2.1595  1.8049
 2760TIP3    H232476   3.110   5.205  17.279  0.2481  1.3722 -1.6787
 2761TIP3   OH232477   2.416   0.200  15.865  0.0836 -0.0261  0.0644
 2761TIP3    H132478   2.497   0.250  15.854  0.3414 -0.1312  1.3780
 2761TIP3    H232479   2.360   0.256  15.918 -0.5179 -0.1681 -0.4162
 2762TIP3   OH232480   3.018   6.919  17.782 -0.4989  0.3617  0.0116
 2762TIP3    H132481   2.986   6.942  17.695 -1.9583  0.8386  0.6557
 2762TIP3    H232482   2.998   6.826  17.792  3.9159 -1.1030 -1.9324
 2763TIP3   OH232483   6.653   1.341  16.416  0.3205  0.2957 -0.4525
 2763TIP3    H132484   6.567   1.325  16.376  0.7243  1.1128 -1.7083
 2763TIP3    H232485   6.702   1.389  16.350  1.4745  0.5847  0.5671
 2764TIP3   OH232486   7.119   1.056  17.762 -0.2777  0.0195 -0.0353
 2764TIP3    H132487   7.183   1.126  17.757  0.2846 -0.3073  1.7766
 2764TIP3    H232488   7.034   1.099  17.752  0.1279  0.7337 -0.4449
 2765TIP3   OH232489   0.946   8.406  15.433  0.0558  0.3387  0.5822
 2765TIP3    H132490   0.896   8.324  15.441 -1.8227  1.3428 -0.2878
 2765TIP3    H232491   1.037   8.377  15.427 -0.5521 -1.7094  0.1539
 2766TIP3   OH232492   4.640   0.980  16.482 -0.2835 -0.4505  0.1217
 2766TIP3    H132493   4.683   0.938  16.556  0.9027 -1.6604 -1.2006
 2766TIP3    H232494   4.710   1.002  16.422 -1.3595 -1.1341 -1.4435
 2767TIP3   OH232495   2.963   5.817  17.142  0.2019 -0.3172 -0.0662
 2767TIP3    H132496   2.923   5.829  17.056 -0.6654 -0.8145  0.2575
 2767TIP3    H232497   2.942   5.727  17.166 -0.0928  0.0021  0.9362
 2768TIP3   OH232498   5.796   6.860  17.179 -0.3386  0.2147  0.2571
 2768TIP3    H132499   5.705   6.886  17.163 -0.3288  0.4614  0.5854
 2768TIP3    H232500   5.788   6.783  17.235 -0.3519  0.0361  0.0109
 2769TIP3   OH232501   7.059   5.572  16.592  0.1370  0.1006 -0.3431
 2769TIP3    H132502   7.058   5.565  16.497 -0.2435  1.2733 -0.4433
 2769TIP3    H232503   7.148   5.601  16.613 -0.6091  2.9351 -0.6462
 2770TIP3   OH232504   3.299   3.252  17.582  0.0242 -0.1331 -0.3180
 2770TIP3    H132505   3.209   3.220  17.571  0.0527 -0.2822 -0.1180
 2770TIP3    H232506   3.329   3.213  17.664  0.3526 -0.2635 -0.4991
 2771TIP3   OH232507   0.884   1.803  15.214 -0.6520  0.1068 -0.1919
 2771TIP3    H132508   0.818   1.831  15.278 -0.5911  1.4406 -0.6978
 2771TIP3    H232509   0.917   1.720  15.250 -0.0079  1.2152  1.9737
 2772TIP3   OH232510   2.244   4.306  16.177 -0.3215  0.2200  0.0432
 2772TIP3    H132511   2.246   4.307  16.273 -2.1129  1.7470  0.1265
 2772TIP3    H232512   2.194   4.227  16.156  0.9425 -0.6759  0.2963
 2773TIP3   OH232513   4.144   5.757  16.486  0.4873 -0.3932  0.1384
 2773TIP3    H132514   4.176   5.680  16.533  2.2420 -0.4617 -1.0926
 2773TIP3    H232515   4.204   5.766  16.412 -1.2607  0.6256 -1.2123
 2774TIP3   OH232516   1.602   3.722  17.891  0.1443  0.3127  0.1840
 2774TIP3    H132517   1.584   3.629  17.900  3.1336 -0.2147  1.8851
 2774TIP3    H232518   1.598   3.756  17.981  3.0760  0.9124  0.1750
 2775TIP3   OH232519   3.593   2.889  16.600  0.8579  0.6070 -0.0742
 2775TIP3    H132520   3.509   2.921  16.633  0.0129 -1.1391 -0.3927
 2775TIP3    H232521   3.625   2.830  16.669  1.0110  0.0037 -0.6542
 2776TIP3   OH232522   0.041   6.679  17.337  0.0689  0.6827 -0.1470
 2776TIP3    H132523   0.032   6.729  17.418 -2.4105  0.3924 -0.1578
 2776TIP3    H232524   0.046   6.588  17.366 -0.0610  0.6280 -0.2984
 2777TIP3   OH232525   6.685   7.072  17.548  0.3430 -0.6157 -0.0345
 2777TIP3    H132526   6.675   7.125  17.469 -0.2502 -0.6366  0.0186
 2777TIP3    H232527   6.658   6.984  17.521 -1.8088 -0.2340  0.6609
 2778TIP3   OH232528   8.091   4.177  16.318 -0.5626  0.1015 -0.2893
 2778TIP3    H132529   8.129   4.108  16.263 -2.0243 -0.8509 -0.1502
 2778TIP3    H232530   8.059   4.243  16.256  0.5716  0.5378 -0.4347
 2779TIP3   OH232531   2.781   8.167  16.725  0.4569 -0.3143  0.2455
 2779TIP3    H132532   2.822   8.212  16.651  0.1201 -1.4438 -0.6537
 2779TIP3    H232533   2.850   8.162  16.791  1.0506 -0.1117 -0.3446
 2780TIP3   OH232534   3.600   4.049  16.454 -0.3414 -0.3359  0.0430
 2780TIP3    H132535   3.578   4.142  16.464 -1.9820 -0.7354  0.3454
 2780TIP3    H232536   3.544   4.004  16.516 -2.1892 -1.8499 -2.5227
 2781TIP3   OH232537   1.300   6.243  17.793 -0.1747  0.0131 -0.0763
 2781TIP3    H132538   1.241   6.168  17.793  0.0318 -0.1541  0.2438
 2781TIP3    H232539   1.256   6.309  17.740 -0.2567 -0.4123 -0.5370
 2782TIP3   OH232540   4.601   3.427  17.584 -0.4561  0.2191 -0.2103
 2782TIP3    H132541   4.569   3.502  17.633 -0.9266 -1.4429  2.2573
 2782TIP3    H232542   4.616   3.459  17.496 -2.1472  2.7801  0.3468
 2783TIP3   OH232543   0.355   5.701  16.188 -0.4723  0.2923  0.1694
 2783TIP3    H132544   0.423   5.734  16.129 -0.3668 -0.3737 -0.0892
 2783TIP3    H232545   0.289   5.771  16.189 -0.1807  0.5822 -0.2373
 2784TIP3   OH232546   3.084   4.751  16.754 -0.1175  0.6527 -0.0421
 2784TIP3    H132547   3.044   4.789  16.832 -1.7061 -2.0464  0.5682
 2784TIP3    H232548   3.142   4.683  16.787 -0.0840  0.1055 -1.1714
 2785TIP3   OH232549   2.881   5.324  15.427  0.0989  0.2479 -0.4096
 2785TIP3    H132550   2.936   5.272  15.485 -1.0018 -0.9961 -0.4363
 2785TIP3    H232551   2.791   5.299  15.450 -0.3807 -0.6673 -2.9370
 2786TIP3   OH232552   7.271   5.176  17.576  0.2008 -0.6738 -0.1872
 2786TIP3    H132553   7.268   5.243  17.508  0.6556 -0.3212  0.1370
 2786TIP3    H232554   7.288   5.095  17.529  2.2578 -0.1976 -0.3599
 2787TIP3   OH232555   4.917   5.223  17.178 -0.0358 -0.7523  0.1830
 2787TIP3    H132556   4.985   5.164  17.211 -1.0881 -1.7639  0.6104
 2787TIP3    H232557   4.956   5.263  17.101  0.4881 -2.5699 -0.5576
 2788TIP3   OH232558   5.096   3.604  15.584 -0.1217 -0.1379  0.1102
 2788TIP3    H132559   5.179   3.609  15.631 -0.9860  0.6812  1.6272
 2788TIP3    H232560   5.086   3.690  15.544 -1.3514  0.6707  2.0051
 2789TIP3   OH232561   0.929   1.577  17.051 -0.2566  0.1115 -0.2251
 2789TIP3    H132562   0.979   1.501  17.079  0.5727  0.6398 -0.2416
 2789TIP3    H232563   0.990   1.650  17.057 -0.8061  0.6536 -0.9586
 2790TIP3   OH232564   5.915   4.877  17.657 -1.0561 -0.4850 -0.1621
 2790TIP3    H132565   5.940   4.784  17.651 -1.6296 -0.6828  0.3536
 2790TIP3    H232566   5.996   4.922  17.679 -1.2158 -1.2125  2.2887
 2791TIP3   OH232567   6.237   4.731  16.980  0.0033  0.4284 -0.1245
 2791TIP3    H132568   6.289   4.686  16.914  1.9285 -0.5431  1.9420
 2791TIP3    H232569   6.296   4.798  17.016 -1.0328  1.0118  0.5535
 2792TIP3   OH232570   0.695   7.809  15.571 -0.2096 -0.1289 -0.2880
 2792TIP3    H132571   0.774   7.861  15.587 -0.2896  0.1505 -0.7773
 2792TIP3    H232572   0.664   7.785  15.658  0.1007  0.2331 -0.0747
 2793TIP3   OH232573   1.385   4.905  16.328 -0.0214 -0.6514 -0.0834
 2793TIP3    H132574   1.476   4.894  16.355 -0.6823 -0.9013  2.2866
 2793TIP3    H232575   1.355   4.816  16.309  0.2728 -0.5355 -1.2111
 2794TIP3   OH232576   0.673   3.143  15.986 -0.3746 -0.1639  0.2268
 2794TIP3    H132577   0.659   3.219  16.043  0.7225 -1.2926  2.0840
 2794TIP3    H232578   0.589   3.096  15.989 -1.1230  0.9817 -1.0742
 2795TIP3   OH232579   1.918   4.001  17.627 -0.1885  0.2820  0.4495
 2795TIP3    H132580   1.828   3.970  17.631 -0.3557  0.8571  2.1213
 2795TIP3    H232581   1.927   4.040  17.540  0.0408 -4.2638 -1.8611
 2796TIP3   OH232582   5.010   8.307  16.983  0.7642 -0.2054  0.2056
 2796TIP3    H132583   5.012   8.261  16.899 -0.8696 -1.1775  0.6477
 2796TIP3    H232584   5.088   8.363  16.982  0.9907 -0.4919 -1.7713
 2797TIP3   OH232585   0.677   8.039  17.530 -0.4845  0.1992  0.6492
 2797TIP3    H132586   0.639   8.015  17.445 -0.1420 -0.3303  0.6442
 2797TIP3    H232587   0.659   7.964  17.586 -0.7227  0.5535  1.0573
 2798TIP3   OH232588   8.204   3.738  16.447  0.0643  0.3696  0.1714
 2798TIP3    H132589   8.252   3.705  16.372  0.1984  1.7996 -0.4152
 2798TIP3    H232590   8.123   3.774  16.410 -0.4270 -0.0081  0.8621
 2799TIP3   OH232591   5.160   2.790  17.923 -0.3409 -0.1512  0.4595
 2799TIP3    H132592   5.149   2.801  18.017 -0.9775  0.2475  0.3399
 2799TIP3    H232593   5.072   2.795  17.887 -0.1569 -0.7897 -0.1141
 2800TIP3   OH232594   7.413   2.002  16.885  0.7285 -0.1283 -0.1339
 2800TIP3    H132595   7.430   2.007  16.980 -3.1844 -1.0142  0.7932
 2800TIP3    H232596   7.397   2.093  16.860  0.8477  0.0068  0.2554
 2801TIP3   OH232597   0.308   3.755  17.057 -0.0536  0.5236 -0.3120
 2801TIP3    H132598   0.299   3.687  16.990  1.8911  1.8239 -2.0138
 2801TIP3    H232599   0.235   3.814  17.042  0.3217  0.7597 -1.2835
 2802TIP3   OH232600   4.130   8.387  15.384  0.1322  0.3164  0.2425
 2802TIP3    H132601   4.181   8.428  15.454  0.9856 -0.3288  0.0118
 2802TIP3    H232602   4.142   8.445  15.309  1.3242 -0.3011 -0.0784
 2803TIP3   OH232603   1.346   4.729  16.755 -0.4400 -0.5413  0.3345
 2803TIP3    H132604   1.277   4.734  16.690 -0.5954 -0.3195  0.5178
 2803TIP3    H232605   1.417   4.783  16.720 -0.1810 -1.1336 -0.0692
 2804TIP3   OH232606   6.624   1.272  16.137  0.4459  0.1453  0.1964
 2804TIP3    H132607   6.689   1.204  16.122 -0.2379 -0.6270  0.6162
 2804TIP3    H232608   6.542   1.224  16.152 -0.4533  1.1045 -1.3558
 2805TIP3   OH232609   3.824   7.573  17.050 -0.3377 -0.1584 -0.1787
 2805TIP3    H132610   3.779   7.657  17.054  1.0880  0.6413  0.0274
 2805TIP3    H232611   3.903   7.586  17.104  1.0686 -0.8759 -1.9672
 2806TIP3   OH232612   6.167   1.837  16.438  0.8392 -0.1413  0.4417
 2806TIP3    H132613   6.189   1.744  16.443  1.5678 -0.0176 -0.3945
 2806TIP3    H232614   6.138   1.859  16.527  0.4420 -1.2090  0.5966
 2807TIP3   OH232615   0.586   0.265  16.056  0.2303 -0.4168  0.2977
 2807TIP3    H132616   0.510   0.207  16.062 -1.3673  1.4659 -0.6387
 2807TIP3    H232617   0.611   0.281  16.147  0.6161 -2.3743  0.5842
 2808TIP3   OH232618   8.356   1.974  16.010 -0.2624 -0.5702 -0.3842
 2808TIP3    H132619   8.311   2.059  16.012 -0.1503 -0.5198  0.1336
 2808TIP3    H232620   8.424   1.982  16.076  0.8382 -0.4734 -1.4905
 2809TIP3   OH232621   0.471   1.563  16.633  0.7895  0.3993  0.1415
 2809TIP3    H132622   0.476   1.654  16.664 -1.7454  0.5320  0.3512
 2809TIP3    H232623   0.475   1.571  16.537  2.3093  0.5470  0.1975
 2810TIP3   OH232624   1.726   6.797  16.537 -0.4084  0.0638 -0.2333
 2810TIP3    H132625   1.707   6.716  16.489  1.8193 -0.9499  0.4528
 2810TIP3    H232626   1.797   6.838  16.488  0.7757 -0.1594  1.2164
 2811TIP3   OH232627   0.166   8.371  17.930 -0.1056 -0.1445 -0.1810
 2811TIP3    H132628   0.242   8.427  17.911 -0.3383  0.6762  1.1928
 2811TIP3    H232629   0.167   8.361  18.025 -1.3991 -0.5866 -0.1967
 2812TIP3   OH232630   8.138   6.109  16.584  0.0335 -0.1190 -0.7986
 2812TIP3    H132631   8.206   6.094  16.649  0.7155  2.4726 -0.8066
 2812TIP3    H232632   8.059   6.128  16.635 -0.2956 -1.4585 -0.7827
 2813TIP3   OH232633   8.384   4.844  17.057 -0.5486  0.4314  0.3345
 2813TIP3    H132634   8.370   4.754  17.086  0.5991  0.5078  1.1953
 2813TIP3    H232635   8.337   4.898  17.120  0.2868  0.5014  0.9180
 2814TIP3   OH232636   3.644   7.417  16.162 -0.2106 -0.0107  0.1156
 2814TIP3    H132637   3.649   7.434  16.256  0.5767  2.2694 -0.2845
 2814TIP3    H232638   3.652   7.503  16.121  1.3574 -1.1173 -2.1049
 2815TIP3   OH232639   1.853   4.918  16.728  0.2335 -0.2841 -0.6358
 2815TIP3    H132640   1.893   4.866  16.658 -0.6487 -3.4228  1.0053
 2815TIP3    H232641   1.855   5.008  16.695  0.4576 -1.4889 -4.3621
 2816TIP3   OH232642   1.842   1.242  16.548  0.2647 -0.0818  0.3354
 2816TIP3    H132643   1.755   1.280  16.533  0.4683  0.3332  0.1876
 2816TIP3    H232644   1.826   1.148  16.553 -0.1951 -0.0098  0.3160
 2817TIP3   OH232645   0.976   4.192  15.931 -0.1101  0.3061  0.0922
 2817TIP3    H132646   1.016   4.178  16.017 -0.7625 -0.1312  0.3329
 2817TIP3    H232647   0.931   4.110  15.912 -0.1221  0.4663 -0.5885
 2818TIP3   OH232648   5.219   1.359  17.149 -0.0467 -0.1033  0.3311
 2818TIP3    H132649   5.311   1.338  17.137  0.0336  0.6122 -0.3648
 2818TIP3    H232650   5.191   1.395  17.065 -0.8086  0.2222  0.7121
 2819TIP3   OH232651   4.409   5.345  15.892  0.1825  0.0620 -0.4175
 2819TIP3    H132652   4.343   5.296  15.843  1.4913 -0.8272 -1.3697
 2819TIP3    H232653   4.389   5.327  15.984 -0.8202 -0.2956 -0.6967
 2820TIP3   OH232654   3.331   5.598  16.214  0.1710  0.1337  0.3842
 2820TIP3    H132655   3.337   5.693  16.206  1.2147  0.1015  0.6275
 2820TIP3    H232656   3.245   5.583  16.254  0.3448  1.0301  1.1397
 2821TIP3   OH232657   4.540   6.234  16.520 -0.2180 -0.3264  0.4314
 2821TIP3    H132658   4.600   6.267  16.453  2.1656 -1.1123  2.0126
 2821TIP3    H232659   4.508   6.151  16.485  0.4348 -0.3841 -0.0510
 2822TIP3   OH232660   2.585   3.779  17.576 -0.2119 -0.0430 -0.4476
 2822TIP3    H132661   2.490   3.776  17.588 -0.3554  0.4545 -1.3690
 2822TIP3    H232662   2.606   3.872  17.574  0.2289 -0.1468 -0.6926
 2823TIP3   OH232663   8.290   5.100  15.842  0.1914 -0.0470  0.1066
 2823TIP3    H132664   8.264   5.013  15.813  2.4194 -0.4391 -0.9408
 2823TIP3    H232665   8.362   5.124  15.784  0.2569  2.0998  0.9858
 2824TIP3   OH232666   2.210   7.187  17.991 -0.0059  0.1817  0.0534
 2824TIP3    H132667   2.301   7.196  17.963  0.7733  0.3813  2.4545
 2824TIP3    H232668   2.213   7.122  18.061 -2.2191 -2.1056 -1.7991
 2825TIP3   OH232669   2.922   2.599  16.053 -0.7665 -0.3858 -0.1846
 2825TIP3    H132670   2.905   2.505  16.063 -1.1691 -0.4307 -1.1442
 2825TIP3    H232671   2.996   2.604  15.993  0.3257 -0.1043  1.1422
 2826TIP3   OH232672   0.741   2.937  15.822 -0.3633  0.4306 -0.2907
 2826TIP3    H132673   0.653   2.901  15.826 -0.7121  1.1306 -1.3597
 2826TIP3    H232674   0.738   3.013  15.881  0.1172 -0.7070  1.2519
 2827TIP3   OH232675   6.174   6.398  16.091  0.0913 -0.1393 -0.0841
 2827TIP3    H132676   6.131   6.462  16.034  2.3370  1.3340 -0.2706
 2827TIP3    H232677   6.144   6.313  16.060  0.5154  0.6486 -2.9125
 2828TIP3   OH232678   7.441   4.014  16.975 -0.0971  0.8289  0.5846
 2828TIP3    H132679   7.346   4.006  16.965 -0.0893  1.1741  0.2381
 2828TIP3    H232680   7.477   3.982  16.893  0.1850 -1.2768  1.4638
 2829TIP3   OH232681   4.495   6.522  16.853 -0.1582 -0.1106 -0.2865
 2829TIP3    H132682   4.428   6.558  16.912 -0.1106  1.9944 -1.4172
 2829TIP3    H232683   4.458   6.530  16.766  0.5720 -1.3078 -0.7345
 2830TIP3   OH232684   0.095   0.111  17.548  0.2899 -0.1162  0.4054
 2830TIP3    H132685   0.033   0.174  17.510 -0.6548 -2.6861 -2.7209
 2830TIP3    H232686   0.056   0.088  17.632 -1.0770  1.0002  0.1308
 2831TIP3   OH232687   6.702   3.583  16.868 -0.0088 -0.0698 -0.2868
 2831TIP3    H132688   6.753   3.549  16.794  0.7432  2.2567 -0.9277
 2831TIP3    H232689   6.679   3.672  16.841 -1.5230  0.1066  1.4414
 2832TIP3   OH232690   5.620   7.500  15.863 -0.4790 -0.4985  0.0839
 2832TIP3    H132691   5.644   7.581  15.910  0.3423 -0.2852 -0.6803
 2832TIP3    H232692   5.614   7.434  15.932  0.2346 -0.0895  0.5525
 2833TIP3   OH232693   4.823   6.107  17.593  0.3281  0.0470 -0.0732
 2833TIP3    H132694   4.795   6.195  17.620  1.2382  0.4210 -0.2839
 2833TIP3    H232695   4.919   6.114  17.587  0.2565 -0.2808 -2.3915
 2834TIP3   OH232696   1.419   5.451  16.302  0.2495 -0.1257  0.1942
 2834TIP3    H132697   1.469   5.463  16.382 -0.1868 -2.4863  0.9125
 2834TIP3    H232698   1.332   5.424  16.332  0.7860 -3.7125 -0.9120
 2835TIP3   OH232699   7.639   4.220  16.609  0.1421 -0.3891  0.1630
 2835TIP3    H132700   7.551   4.246  16.584  0.9847  1.0155 -1.5497
 2835TIP3    H232701   7.693   4.298  16.594  1.7070 -1.2647  0.9698
 2836TIP3   OH232702   6.565   2.849  17.336 -0.2703  0.3489  0.0831
 2836TIP3    H132703   6.627   2.866  17.406  0.3175 -0.0051 -0.3489
 2836TIP3    H232704   6.496   2.797  17.377  0.3866 -0.4005  0.2537
 2837TIP3   OH232705   6.322   6.480  15.739 -0.1490 -0.8498  0.3047
 2837TIP3    H132706   6.317   6.514  15.828 -1.0399  0.9753 -0.3914
 2837TIP3    H232707   6.294   6.553  15.684 -0.2442 -2.1398 -1.4366
 2838TIP3   OH232708   3.184   6.545  16.734  0.1811 -0.2680 -0.1944
 2838TIP3    H132709   3.241   6.622  16.738  0.1348 -0.2760  1.9150
 2838TIP3    H232710   3.111   6.572  16.678  1.4591  0.2852 -1.6349
 2839TIP3   OH232711   2.103   6.172  17.045 -0.3060  0.6046  0.4436
 2839TIP3    H132712   2.137   6.224  17.118 -0.3899  0.8033  0.3431
 2839TIP3    H232713   2.163   6.192  16.973  0.7410 -0.8169  0.8697
 2840TIP3   OH232714   6.471   3.120  17.406 -0.4034 -0.1830 -0.2697
 2840TIP3    H132715   6.462   3.025  17.394  0.3951 -0.2875 -0.1064
 2840TIP3    H232716   6.501   3.130  17.496 -2.7363  0.3827  0.5315
 2841TIP3   OH232717   2.352   4.076  17.677 -0.1956  0.3321 -0.0716
 2841TIP3    H132718   2.334   4.160  17.721 -0.2698 -0.5905  1.7452
 2841TIP3    H232719   2.448   4.075  17.668 -0.1669  0.4786  0.1863
 2842TIP3   OH232720   6.264   0.961  17.139  0.3165 -0.0468 -0.1066
 2842TIP3    H132721   6.202   0.935  17.071 -0.1330  1.7107 -0.4030
 2842TIP3    H232722   6.344   0.983  17.091 -0.2322  1.9176 -0.1884
 2843TIP3   OH232723   7.411   6.284  16.484 -0.1499 -0.3735  0.1392
 2843TIP3    H132724   7.495   6.329  16.481 -0.6364  0.6126  0.9307
 2843TIP3    H232725   7.403   6.243  16.397  2.4291 -2.9676  0.9600
 2844TIP3   OH232726   6.427   7.303  18.050 -0.4277  0.2233  0.4766
 2844TIP3    H132727   6.392   7.215  18.064  0.4223 -0.2685 -0.3999
 2844TIP3    H232728   6.507   7.306  18.102  1.7168 -0.9621 -2.4550
 2845TIP3   OH232729   6.781   4.805  17.737  0.3734 -0.2266 -0.4817
 2845TIP3    H132730   6.699   4.775  17.697 -1.0669  0.4720  1.7966
 2845TIP3    H232731   6.778   4.901  17.728 -0.3392  0.0143  1.8169
 2846TIP3   OH232732   4.565   8.438  17.369  0.1636 -0.2609 -0.2506
 2846TIP3    H132733   4.477   8.461  17.337  0.1675 -1.2795 -1.0378
 2846TIP3    H232734   4.589   8.360  17.320  0.4238 -1.5690  1.8150
 2847TIP3   OH232735   1.026   3.599  16.769  0.0419 -0.7183 -0.1215
 2847TIP3    H132736   0.961   3.530  16.756  0.3440 -0.7930 -1.3652
 2847TIP3    H232737   1.097   3.556  16.816 -0.1109 -1.0607 -0.2016
 2848TIP3   OH232738   4.190   0.913  16.847 -0.3456  0.1731 -0.0472
 2848TIP3    H132739   4.124   0.954  16.791  0.8555  2.9725  0.4179
 2848TIP3    H232740   4.273   0.926  16.799  0.6961  2.5372  2.1945
 2849TIP3   OH232741   1.344   4.753  15.823 -0.1190 -0.0097 -0.0812
 2849TIP3    H132742   1.343   4.714  15.736  2.5041  0.7308 -0.5326
 2849TIP3    H232743   1.310   4.842  15.810 -1.8238 -0.5829  0.1286
 2850TIP3   OH232744   2.380   1.897  17.229 -0.2812  0.0224  0.0619
 2850TIP3    H132745   2.431   1.836  17.283  1.1227  0.9330 -0.1813
 2850TIP3    H232746   2.344   1.843  17.159  1.8677 -0.3929 -0.7969
 2851TIP3   OH232747   1.269   7.788  16.119  0.4831  0.5978 -0.2214
 2851TIP3    H132748   1.202   7.849  16.089  1.0858  1.0253 -0.7260
 2851TIP3    H232749   1.350   7.820  16.079  0.6186 -1.2508 -1.5634
 2852TIP3   OH232750   0.772   5.941  16.004 -0.2122  0.1166  0.4126
 2852TIP3    H132751   0.699   5.986  16.046 -1.9878 -0.7900 -1.5403
 2852TIP3    H232752   0.735   5.858  15.974  1.4115 -0.0567 -1.2999
 2853TIP3   OH232753   6.916   3.285  16.208 -0.4178  0.7210  0.8227
 2853TIP3    H132754   6.840   3.298  16.150  0.4801  1.2381 -0.2820
 2853TIP3    H232755   6.921   3.366  16.259  0.3264  1.3901 -0.2613
 2854TIP3   OH232756   1.261   7.173  16.293  0.4733 -0.4138  0.0239
 2854TIP3    H132757   1.217   7.183  16.377 -0.6385 -0.8988 -0.4669
 2854TIP3    H232758   1.228   7.246  16.240  0.3465 -0.7032 -0.3055
 2855TIP3   OH232759   4.237   5.983  15.907 -0.2838  0.0119  0.1735
 2855TIP3    H132760   4.284   6.020  15.833 -0.4162 -0.4619 -0.1561
 2855TIP3    H232761   4.292   5.910  15.936  0.8238  1.4358  1.8737
 2856TIP3   OH232762   0.204   0.802  16.988 -0.6833  0.0328  0.3238
 2856TIP3    H132763   0.280   0.856  17.013 -0.5766 -0.2956  0.7183
 2856TIP3    H232764   0.140   0.818  17.057  0.4261 -2.5869  2.1153
 2857TIP3   OH232765   8.207   2.875  16.075  0.2011 -0.0905  0.0493
 2857TIP3    H132766   8.298   2.896  16.056  0.5121 -0.2815  1.2122
 2857TIP3    H232767   8.211   2.790  16.120 -0.3635  0.6803  1.6411
 2858TIP3   OH232768   7.991   3.599  18.003 -0.0167 -0.5233 -0.1977
 2858TIP3    H132769   8.011   3.591  18.097 -1.1001 -1.7189 -0.0413
 2858TIP3    H232770   7.997   3.693  17.985  0.4291 -0.3003  1.0150
 2859TIP3   OH232771   6.951   7.538  15.374 -0.1360  0.4965  0.0477
 2859TIP3    H132772   6.996   7.564  15.294 -1.2059 -0.2002 -0.8139
 2859TIP3    H232773   6.973   7.446  15.387  1.0375  0.9224  1.2788
 2860TIP3   OH232774   4.666   6.003  15.952 -0.6523  0.2903 -0.6059
 2860TIP3    H132775   4.761   5.999  15.964 -0.5969 -0.8101 -1.2234
 2860TIP3    H232776   4.652   6.070  15.885 -0.1959 -0.3477 -1.3652
 2861TIP3   OH232777   5.674   3.844  17.067 -0.4465 -0.2510  0.2760
 2861TIP3    H132778   5.745   3.893  17.108  0.2353  0.3680 -1.5509
 2861TIP3    H232779   5.713   3.761  17.040 -0.9481 -0.7516  1.0520
 2862TIP3   OH232780   4.231   5.467  17.074 -0.0483  0.0930  0.0092
 2862TIP3    H132781   4.169   5.401  17.105  0.0033 -0.5324 -1.1640
 2862TIP3    H232782   4.223   5.539  17.137 -0.6669 -0.7067  0.8721
 2863TIP3   OH232783   0.130   7.483  17.810 -0.4501  0.0417  0.8579
 2863TIP3    H132784   0.158   7.391  17.812 -0.1415  0.1453  2.4121
 2863TIP3    H232785   0.133   7.507  17.717  1.9855 -0.7572  0.6611
 2864TIP3   OH232786   6.100   5.821  17.999  0.5659 -0.0484  0.4503
 2864TIP3    H132787   6.120   5.912  18.022  2.1103  0.3522 -2.1411
 2864TIP3    H232788   6.015   5.826  17.955 -0.0828 -0.1338  1.6400
 2865TIP3   OH232789   4.380   0.166  17.557  0.5919 -0.1775  0.5595
 2865TIP3    H132790   4.363   0.073  17.540  1.3459 -0.2763  0.3114
 2865TIP3    H232791   4.307   0.211  17.516  1.6255 -0.5086 -1.8019
 2866TIP3   OH232792   0.687   8.426  17.035 -0.1611 -0.0448  0.2005
 2866TIP3    H132793   0.716   8.373  17.109  0.5104 -2.0678 -1.4179
 2866TIP3    H232794   0.755   8.492  17.024  0.7211 -0.9388  0.2048
 2867TIP3   OH232795   7.071   7.079  17.892  0.0983 -0.8563  0.4712
 2867TIP3    H132796   7.054   7.088  17.798  0.4588  0.7100  0.5215
 2867TIP3    H232797   7.146   7.019  17.897  1.3227  0.5408 -0.3930
 2868TIP3   OH232798   7.017   1.115  16.359 -0.3405  0.1241  0.4151
 2868TIP3    H132799   7.014   1.149  16.269 -0.2881 -0.7993  0.0542
 2868TIP3    H232800   7.079   1.173  16.404  0.3506  0.0430 -0.3953
 2869TIP3   OH232801   0.489   3.870  15.834 -0.0308 -0.0089  0.1202
 2869TIP3    H132802   0.556   3.802  15.823 -1.3023 -1.1089 -1.3011
 2869TIP3    H232803   0.455   3.857  15.922  1.3690  0.3541  0.7392
 2870TIP3   OH232804   2.799   5.513  17.051 -0.6952  0.6186  0.2082
 2870TIP3    H132805   2.881   5.498  17.005 -0.9704 -0.4277  0.0376
 2870TIP3    H232806   2.741   5.552  16.985 -0.8060 -0.0544 -0.1032
 2871TIP3   OH232807   1.235   0.940  16.071 -0.1253  0.0098  0.1852
 2871TIP3    H132808   1.223   0.930  15.976  1.6829  1.7449 -0.3143
 2871TIP3    H232809   1.328   0.956  16.081 -0.3820  0.4695  2.2023
 2872TIP3   OH232810   4.959   1.171  16.456 -0.2984  0.5169  0.4200
 2872TIP3    H132811   4.972   1.095  16.513  0.1004 -0.3812 -0.8134
 2872TIP3    H232812   4.901   1.139  16.387 -0.2907  1.4007 -0.0136
 2873TIP3   OH232813   4.814   5.881  16.769 -0.2059  0.1530  0.1560
 2873TIP3    H132814   4.818   5.882  16.865  5.1435  1.8940  0.2312
 2873TIP3    H232815   4.769   5.963  16.746 -1.0541 -0.0211  1.1055
 2874TIP3   OH232816   7.012   1.278  16.124  0.6497 -0.5567  0.0420
 2874TIP3    H132817   7.008   1.222  16.046 -0.5074 -0.7211  0.2014
 2874TIP3    H232818   7.092   1.329  16.113  0.0575  0.0616 -1.6930
 2875TIP3   OH232819   7.834   0.859  18.088 -0.2070  0.3358 -0.0580
 2875TIP3    H132820   7.800   0.770  18.092 -0.9718  0.6536  1.3449
 2875TIP3    H232821   7.912   0.858  18.142 -0.6882  0.6982  0.6525
 2876TIP3   OH232822   0.638   4.554  16.240  0.3508  0.3930  0.5003
 2876TIP3    H132823   0.614   4.639  16.202 -0.5736  0.1045  0.4166
 2876TIP3    H232824   0.566   4.496  16.217  0.7160 -0.2877  1.0230
 2877TIP3   OH232825   0.799   1.661  16.771 -0.5846 -0.0961  0.2299
 2877TIP3    H132826   0.858   1.706  16.832 -0.6656  0.6932 -0.2650
 2877TIP3    H232827   0.847   1.581  16.747  0.4283  0.6600 -0.3730
 2878TIP3   OH232828   6.128   7.742  16.846  0.2396  0.1916 -0.1459
 2878TIP3    H132829   6.195   7.747  16.777  1.0719 -1.5081  0.4791
 2878TIP3    H232830   6.163   7.678  16.908 -2.0653 -0.9022  0.1089
 2879TIP3   OH232831   7.537   7.950  17.227  0.1024  0.3791  0.6579
 2879TIP3    H132832   7.458   7.901  17.250 -0.0948  0.1542 -0.4392
 2879TIP3    H232833   7.608   7.903  17.269 -0.4423  1.3819  2.8597
 2880TIP3   OH232834   1.265   6.590  16.065  0.1126  0.5973 -0.0697
 2880TIP3    H132835   1.239   6.632  15.983 -0.1121  1.8922  0.6328
 2880TIP3    H232836   1.186   6.589  16.118  0.7969  2.0339  1.0369
 2881TIP3   OH232837   1.817   4.478  16.637 -0.1576 -0.3984 -0.3519
 2881TIP3    H132838   1.755   4.499  16.567  0.6722  0.2357 -0.9092
 2881TIP3    H232839   1.820   4.558  16.690 -1.3055 -1.1012  0.8370
 2882TIP3   OH232840   4.096   5.131  17.459 -0.2129 -0.3261 -0.4693
 2882TIP3    H132841   4.179   5.141  17.413  0.1265  0.0540  0.2026
 2882TIP3    H232842   4.121   5.097  17.545 -0.8112 -0.8083 -0.4832
 2883TIP3   OH232843   7.560   5.586  16.443  0.3257 -0.2449 -0.0756
 2883TIP3    H132844   7.651   5.595  16.470  0.6272 -2.2118 -0.2963
 2883TIP3    H232845   7.562   5.591  16.347  0.3813 -1.4010 -0.1495
 2884TIP3   OH232846   5.306   2.429  15.723  0.4388 -0.3042  0.5014
 2884TIP3    H132847   5.228   2.390  15.685 -1.1707  1.7646  1.4889
 2884TIP3    H232848   5.304   2.404  15.815  0.5833  0.2799  0.6691
 2885TIP3   OH232849   3.342   4.597  16.574  0.5478  0.1732  0.1347
 2885TIP3    H132850   3.257   4.598  16.529  0.3184 -0.0665  0.5539
 2885TIP3    H232851   3.319   4.590  16.667  1.0278  0.1601  0.2515
 2886TIP3   OH232852   5.741   5.915  17.695  0.0184 -0.1136  0.0817
 2886TIP3    H132853   5.818   5.957  17.734 -0.8957 -1.2147  3.4211
 2886TIP3    H232854   5.771   5.827  17.673 -0.1003 -0.3376  0.7921
 2887TIP3   OH232855   2.295   7.998  16.405  0.4823  0.1568  0.2693
 2887TIP3    H132856   2.338   7.914  16.385 -0.8464  0.0968 -2.8987
 2887TIP3    H232857   2.255   7.985  16.491  0.4633 -2.4109 -0.0601
 2888TIP3   OH232858   3.033   4.126  17.851  0.1967  0.0435  0.7873
 2888TIP3    H132859   3.002   4.215  17.867 -1.3963 -0.4516  0.6182
 2888TIP3    H232860   3.062   4.095  17.937  0.6737  0.6862  0.8641
 2889TIP3   OH232861   0.536   1.298  16.751 -0.2857  0.1216  0.2623
 2889TIP3    H132862   0.518   1.319  16.842  2.0768 -0.6226  0.9777
 2889TIP3    H232863   0.485   1.362  16.701 -0.9337  1.1262  2.1167
 2890TIP3   OH232864   0.634   6.487  16.475  0.1516 -0.0595 -0.2273
 2890TIP3    H132865   0.550   6.441  16.468  0.6967 -1.0389 -0.6193
 2890TIP3    H232866   0.659   6.477  16.567  0.0811 -0.2139 -0.2240
 2891TIP3   OH232867   3.522   4.470  17.837 -0.1630 -0.0141  0.2938
 2891TIP3    H132868   3.614   4.454  17.817 -0.7671 -0.5002 -2.5546
 2891TIP3    H232869   3.507   4.560  17.807 -0.6592  0.0294  0.6625
 2892TIP3   OH232870   4.772   5.301  16.793 -0.4255  0.1572 -0.4064
 2892TIP3    H132871   4.807   5.301  16.703 -1.8123 -0.1799 -0.9723
 2892TIP3    H232872   4.682   5.270  16.783 -0.5956  0.1275  1.1164
 2893TIP3   OH232873   1.465   0.719  16.005  0.0819 -0.3136  0.2584
 2893TIP3    H132874   1.414   0.655  15.956  0.6084 -0.2064 -0.4380
 2893TIP3    H232875   1.456   0.800  15.954 -2.0278  0.6682  2.0190
 2894TIP3   OH232876   5.118   8.158  16.768  0.0498  0.0671  0.5291
 2894TIP3    H132877   5.164   8.075  16.764 -2.2139 -1.3737  1.7161
 2894TIP3    H232878   5.091   8.176  16.678 -0.5786 -1.2223  0.4405
 2895TIP3   OH232879   6.472   5.936  15.949  0.2286  0.2111  0.3975
 2895TIP3    H132880   6.418   5.858  15.961  0.1768  0.3278  0.9413
 2895TIP3    H232881   6.447   5.970  15.864  1.1403 -1.0755 -0.4213
 2896TIP3   OH232882   4.011   1.037  16.655 -0.0056  0.4466 -0.0188
 2896TIP3    H132883   4.053   1.117  16.687  1.1153  0.4162 -1.2798
 2896TIP3    H232884   4.016   1.045  16.559  0.6176 -1.3477 -0.1766
 2897TIP3   OH232885   4.112   1.294  16.670  0.2379 -0.1102 -0.5032
 2897TIP3    H132886   4.066   1.347  16.735 -0.6781 -0.1335 -1.1175
 2897TIP3    H232887   4.118   1.351  16.593  1.7613  0.1020 -0.2585
 2898TIP3   OH232888   1.369   5.484  17.016  0.3779 -0.1859 -0.4873
 2898TIP3    H132889   1.447   5.460  16.966 -0.2898 -2.7443 -0.4643
 2898TIP3    H232890   1.402   5.537  17.088  1.9917 -0.4796 -0.9683
 2899TIP3   OH232891   2.362   5.165  17.570  0.2917  0.3052  0.0807
 2899TIP3    H132892   2.400   5.158  17.482  0.2033 -0.9884  0.1270
 2899TIP3    H232893   2.386   5.083  17.613 -0.7268  0.3844  0.8362
 2900TIP3   OH232894   5.851   7.474  16.977  0.0270  0.0846 -0.0821
 2900TIP3    H132895   5.944   7.494  16.971  0.4227 -1.4419  0.5833
 2900TIP3    H232896   5.811   7.554  17.010  0.9949  0.9656 -0.9780
 2901TIP3   OH232897   7.869   7.078  17.262 -0.3614 -0.6377  0.0817
 2901TIP3    H132898   7.942   7.019  17.245  0.9627  1.1311 -0.6098
 2901TIP3    H232899   7.855   7.072  17.357 -0.2448 -2.0205  0.0266
 2902TIP3   OH232900   1.556   3.948  18.040 -0.2011 -0.3792  0.2146
 2902TIP3    H132901   1.546   4.025  17.984 -0.7109  0.8127  1.8547
 2902TIP3    H232902   1.478   3.949  18.096  0.3860 -1.3843  1.0740
 2903TIP3   OH232903   1.499   2.008  16.082  0.2799  0.4055 -0.1876
 2903TIP3    H132904   1.554   1.993  16.005  0.2416 -0.1311 -0.1185
 2903TIP3    H232905   1.551   1.976  16.155  1.0807  2.6012  0.2692
 2904TIP3   OH232906   6.761   5.802  15.972 -0.2601  0.2436  0.3394
 2904TIP3    H132907   6.749   5.751  16.052 -1.0784 -1.8309 -1.0301
 2904TIP3    H232908   6.687   5.863  15.972  0.1170  0.7351  1.4609
 2905TIP3   OH232909   6.628   2.489  15.747  0.0286  0.2963 -0.1939
 2905TIP3    H132910   6.601   2.404  15.782  4.3489 -1.5247 -0.7154
 2905TIP3    H232911   6.670   2.468  15.663 -0.4741  3.2581 -1.3216
 2906TIP3   OH232912   2.415   2.809  16.630  0.0112 -0.1225 -0.3808
 2906TIP3    H132913   2.427   2.898  16.597  0.4735 -0.3635 -0.8666
 2906TIP3    H232914   2.471   2.804  16.708  0.2331 -0.0927 -0.5393
 2907TIP3   OH232915   0.673   3.613  16.230 -0.0314 -0.1411 -0.3111
 2907TIP3    H132916   0.585   3.637  16.200  0.2330  1.9054  0.4076
 2907TIP3    H232917   0.732   3.665  16.176  0.7579 -1.3371 -0.6308
 2908TIP3   OH232918   2.748   7.590  15.406 -0.2585  0.6736  0.2668
 2908TIP3    H132919   2.663   7.569  15.445  0.5034 -0.2305  1.5544
 2908TIP3    H232920   2.812   7.547  15.464  1.0497  0.8811 -0.9592
 2909TIP3   OH232921   1.407   8.010  17.450 -0.6395 -0.2974 -0.0867
 2909TIP3    H132922   1.455   8.091  17.429 -1.7488  0.6418  0.8258
 2909TIP3    H232923   1.354   8.033  17.526 -1.7922 -1.5862 -0.4553
 2910TIP3   OH232924   4.126   7.165  15.906 -0.2018 -0.8531 -0.0050
 2910TIP3    H132925   4.073   7.108  15.850 -1.2075  0.5868 -0.5882
 2910TIP3    H232926   4.062   7.222  15.949  0.7220 -0.5892  1.0597
 2911TIP3   OH232927   5.737   0.939  16.549  0.6315  1.2611 -0.2336
 2911TIP3    H132928   5.722   0.919  16.456 -0.5499  2.5387 -0.3450
 2911TIP3    H232929   5.707   0.861  16.595 -1.5003  1.6872 -0.7950
 2912TIP3   OH232930   0.949   7.401  16.433  0.2016 -0.4575 -0.0356
 2912TIP3    H132931   1.042   7.404  16.409 -0.0398 -0.4235 -1.0158
 2912TIP3    H232932   0.935   7.310  16.460  0.4169 -0.5833 -0.3367
 2913TIP3   OH232933   3.576   0.763  16.622 -0.2836  0.7323 -0.3428
 2913TIP3    H132934   3.525   0.736  16.698  0.4901  0.8060  0.2086
 2913TIP3    H232935   3.583   0.683  16.569  0.8296  0.1536  0.6240
 2914TIP3   OH232936   3.856   3.911  17.331 -0.1297 -0.3297  0.4299
 2914TIP3    H132937   3.946   3.943  17.340 -0.3063 -0.3598  3.0640
 2914TIP3    H232938   3.815   3.929  17.416 -2.4677 -0.8201 -0.5061
 2915TIP3   OH232939   3.862   3.644  16.581  0.0912  0.4815  0.0050
 2915TIP3    H132940   3.856   3.562  16.630  0.6109  1.3030  1.5155
 2915TIP3    H232941   3.814   3.707  16.634 -2.7595  0.6324 -2.5057
 2916TIP3   OH232942   6.343   8.054  17.533  0.0480  0.2484 -0.0927
 2916TIP3    H132943   6.400   8.070  17.608  1.0236 -1.9827 -0.2601
 2916TIP3    H232944   6.403   8.031  17.462 -0.9844 -1.0597 -0.5871
 2917TIP3   OH232945   5.985   2.816  17.027  0.2132  0.0238  0.3121
 2917TIP3    H132946   6.007   2.899  17.069 -2.1817  0.7457  0.2742
 2917TIP3    H232947   5.917   2.778  17.083 -0.3109 -0.8266 -0.8624
 2918TIP3   OH232948   6.336   7.379  16.811 -0.3093  0.1188 -0.2054
 2918TIP3    H132949   6.349   7.357  16.719  0.1545 -0.4668 -0.0071
 2918TIP3    H232950   6.250   7.341  16.832 -0.0695 -0.4349 -0.1989
 2919TIP3   OH232951   6.744   3.631  17.149 -0.8503  0.0399 -0.5418
 2919TIP3    H132952   6.695   3.682  17.213  0.7468  1.2895 -0.2206
 2919TIP3    H232953   6.709   3.659  17.064 -0.3768  1.3378 -0.3420
 2920TIP3   OH232954   7.793   1.611  16.587  0.3071  0.0886  0.5306
 2920TIP3    H132955   7.752   1.560  16.658 -0.3355  0.9275  0.7869
 2920TIP3    H232956   7.765   1.701  16.604 -1.0027  0.1411 -1.5557
 2921TIP3   OH232957   2.323   8.411  17.329  0.2347 -0.5047  0.1550
 2921TIP3    H132958   2.245   8.391  17.381 -0.0723 -1.3169 -0.5876
 2921TIP3    H232959   2.344   8.328  17.285  0.1073  0.3011 -1.5036
 2922TIP3   OH232960   1.175   3.747  16.598  0.2704 -0.1917  0.0880
 2922TIP3    H132961   1.217   3.793  16.671  0.7345 -0.4955  0.0162
 2922TIP3    H232962   1.115   3.686  16.640  1.5872 -1.4104  0.2944
 2923TIP3   OH232963   4.203   2.462  15.924 -0.6642  0.2839 -0.2453
 2923TIP3    H132964   4.215   2.400  15.996  0.3644  0.3202 -0.3750
 2923TIP3    H232965   4.234   2.415  15.847 -0.6426  0.6744 -0.4745
 2924TIP3   OH232966   1.959   7.306  17.871 -0.0874 -0.8543 -0.0492
 2924TIP3    H132967   2.033   7.299  17.930 -0.5496 -0.0542  0.6545
 2924TIP3    H232968   1.882   7.297  17.927 -0.5950  2.1246 -0.1083
 2925TIP3   OH232969   0.999   1.138  15.441 -0.1795 -0.2722 -0.2053
 2925TIP3    H132970   1.025   1.083  15.515 -1.0412 -1.6273 -0.8678
 2925TIP3    H232971   1.082   1.158  15.396  0.3114  0.2891  0.9074
 2926TIP3   OH232972   4.072   1.009  16.011  0.2050  0.4366  0.0899
 2926TIP3    H132973   4.078   0.937  15.949 -0.6613  0.3779  0.0574
 2926TIP3    H232974   3.985   1.000  16.050  0.0801  1.4558  0.0926
 2927TIP3   OH232975   6.845   3.465  15.916 -0.4450  0.1392  0.9439
 2927TIP3    H132976   6.794   3.424  15.986 -2.6085  1.9904  0.5753
 2927TIP3    H232977   6.826   3.413  15.839 -1.5891  0.6221  0.8797
 2928TIP3   OH232978   2.308   4.874  17.682  0.5720 -0.0228 -0.1677
 2928TIP3    H132979   2.227   4.918  17.710  0.4514  1.8299 -2.9454
 2928TIP3    H232980   2.280   4.814  17.613  1.5215  1.0755 -1.5888
 2929TIP3   OH232981   5.069   4.091  16.705 -0.1818  0.2031 -0.8325
 2929TIP3    H132982   5.153   4.066  16.745 -0.6037  0.5668  0.3133
 2929TIP3    H232983   5.003   4.043  16.756 -0.7298  0.6007 -1.1580
 2930TIP3   OH232984   1.810   4.670  16.832 -0.4611  0.0810  0.5561
 2930TIP3    H132985   1.902   4.663  16.859 -0.8371  1.7392  2.5139
 2930TIP3    H232986   1.806   4.752  16.783 -0.6117 -0.8780 -1.1223
 2931TIP3   OH232987   5.206   3.190  17.143  0.7323  0.6273 -0.8282
 2931TIP3    H132988   5.245   3.276  17.158  1.5228  0.1847 -0.2817
 2931TIP3    H232989   5.120   3.196  17.184  1.5365  0.5546  0.9578
 2932TIP3   OH232990   3.772   3.596  17.482 -0.0858 -0.5225  0.2993
 2932TIP3    H132991   3.835   3.574  17.413 -0.6440 -1.4331  0.0613
 2932TIP3    H232992   3.700   3.638  17.436  0.1523  0.1374  0.5194
 2933TIP3   OH232993   7.015   5.075  17.146 -0.0061  0.6058 -0.2184
 2933TIP3    H132994   6.932   5.108  17.112  0.2284  0.5223 -0.8956
 2933TIP3    H232995   7.056   5.150  17.189 -0.5909  0.5544  0.4487
 2934TIP3   OH232996   7.643   4.571  16.740  0.2531 -0.2995  0.2585
 2934TIP3    H132997   7.580   4.528  16.683  0.9223 -1.2563  0.2052
 2934TIP3    H232998   7.725   4.525  16.723  0.4895 -0.5466  1.8977
 2935TIP3   OH232999   3.278   3.568  16.681  0.0682 -0.0787  0.6437
 2935TIP3    H133000   3.360   3.559  16.729  0.2411 -1.2413  0.1710
 2935TIP3    H233001   3.303   3.598  16.594 -0.1276  0.7278  0.8552
 2936TIP3   OH233002   0.036   3.945  16.258 -0.2667  0.0633 -0.7424
 2936TIP3    H133003   0.097   3.872  16.255 -0.2094  0.0927 -0.2510
 2936TIP3    H233004   0.032   3.976  16.167  0.4801  0.0951 -0.7713
 2937TIP3   OH233005   0.328   4.850  17.690  0.6171  0.6264  0.5033
 2937TIP3    H133006   0.304   4.942  17.701 -1.3441  0.0031  2.2004
 2937TIP3    H233007   0.352   4.842  17.597 -0.6580  2.5396 -0.0480
 2938TIP3   OH233008   2.146   4.108  15.649  0.0044 -0.2083 -0.1665
 2938TIP3    H133009   2.234   4.128  15.618  0.0979 -0.1027  0.1682
 2938TIP3    H233010   2.093   4.183  15.619  0.2192  0.2096  0.4743
 2939TIP3   OH233011   1.502   6.846  15.441 -0.2523  0.1599 -1.0015
 2939TIP3    H133012   1.501   6.859  15.535 -3.0133 -0.6251 -0.8387
 2939TIP3    H233013   1.578   6.896  15.411 -0.3083  1.8855  1.4268
 2940TIP3   OH233014   0.832   8.197  15.556 -0.3075  0.1693 -0.4185
 2940TIP3    H133015   0.796   8.258  15.621  0.4582 -0.0735  0.2512
 2940TIP3    H233016   0.755   8.160  15.512 -0.8046  1.7764 -1.0143
 2941TIP3   OH233017   3.792   3.908  17.827  0.7257 -0.0441 -0.1866
 2941TIP3    H133018   3.821   3.960  17.901  0.8050 -0.9713  0.4496
 2941TIP3    H233019   3.740   3.968  17.774 -0.2486  0.3617  1.1751
 2942TIP3   OH233020   3.352   0.010  17.017  0.4091 -0.3352 -0.7118
 2942TIP3    H133021   3.408  -0.023  16.946 -0.2551  0.5241 -1.6770
 2942TIP3    H233022   3.354   0.105  17.006  0.9980 -0.1218  1.0018
 2943TIP3   OH233023   4.844   1.543  17.885 -0.1111  0.0124  0.4492
 2943TIP3    H133024   4.777   1.476  17.879  0.5445 -0.5380 -1.9325
 2943TIP3    H233025   4.920   1.505  17.841  1.6525  0.7883  2.6241
 2944TIP3   OH233026   5.623   4.895  17.732 -0.0665  0.3426  0.3030
 2944TIP3    H133027   5.714   4.906  17.707  0.1719  0.1715  1.0669
 2944TIP3    H233028   5.573   4.938  17.663  0.5104 -1.0755 -1.0574
 2945TIP3   OH233029   7.719   1.413  16.749  0.2470 -0.0315 -0.3944
 2945TIP3    H133030   7.635   1.378  16.718  0.3995 -1.6735  0.8451
 2945TIP3    H233031   7.783   1.346  16.725  1.1240  0.9480 -0.8388
 2946TIP3   OH233032   6.748   7.541  17.858  0.7375 -0.0601  0.1120
 2946TIP3    H133033   6.799   7.486  17.917  0.9414  0.6998  0.6537
 2946TIP3    H233034   6.728   7.484  17.784  0.3626 -1.0581  0.9637
 2947TIP3   OH233035   7.858   6.853  16.875 -0.1294  0.2280 -0.0549
 2947TIP3    H133036   7.794   6.901  16.928  0.3414  1.6585 -0.7373
 2947TIP3    H233037   7.810   6.829  16.795 -0.7613 -1.6975  0.8440
 2948TIP3   OH233038   1.006   4.832  17.814 -0.0789  0.0632  0.1148
 2948TIP3    H133039   1.028   4.882  17.893 -2.3291 -0.6242  1.2655
 2948TIP3    H233040   0.912   4.847  17.802 -0.0713 -1.0403 -1.5798
 2949TIP3   OH233041   6.498   7.554  15.848 -0.0877  0.0294 -0.0229
 2949TIP3    H133042   6.441   7.481  15.826  0.1487  0.3173 -1.7177
 2949TIP3    H233043   6.444   7.632  15.835  0.0319  0.2231  0.5776
 2950TIP3   OH233044   3.519   0.510  16.522  0.8762 -0.7897 -0.0729
 2950TIP3    H133045   3.529   0.458  16.602  3.7815 -2.1609 -1.1762
 2950TIP3    H233046   3.471   0.453  16.462  0.7884 -0.7116 -0.0767
 2951TIP3   OH233047   2.077   4.096  16.086  0.0667  0.0969  0.1300
 2951TIP3    H133048   2.119   4.051  16.013  2.2127  1.0679  0.6884
 2951TIP3    H233049   2.046   4.179  16.048  0.8072  0.4191  0.2188
 2952TIP3   OH233050   0.877   2.070  18.136  0.0808  0.1997 -0.2481
 2952TIP3    H133051   0.804   2.037  18.083  0.5692 -0.1476 -0.7238
 2952TIP3    H233052   0.847   2.154  18.169 -0.7098 -0.1406 -0.0614
 2953TIP3   OH233053   4.107   0.196  17.430  0.0261  0.1078  0.2918
 2953TIP3    H133054   4.071   0.236  17.352  0.0189 -0.0514  0.2139
 2953TIP3    H233055   4.071   0.247  17.503  0.7968  0.8675  0.1543
 2954TIP3   OH233056   0.921   7.778  15.894 -0.4288 -0.5159 -0.4035
 2954TIP3    H133057   0.918   7.809  15.984  1.4264  0.2825 -0.5728
 2954TIP3    H233058   0.831   7.789  15.862 -0.9924 -0.2909  1.1619
 2955TIP3   OH233059   1.313   2.680  17.588 -0.4911  0.0635  0.2846
 2955TIP3    H133060   1.336   2.620  17.658  0.9135  0.8070  0.4951
 2955TIP3    H233061   1.390   2.682  17.531 -0.9002  0.8782 -0.2655
 2956TIP3   OH233062   0.238   7.936  16.122  0.2650 -0.6293  0.9024
 2956TIP3    H133063   0.200   7.849  16.120 -0.1407 -0.4578  1.0471
 2956TIP3    H233064   0.185   7.984  16.185 -1.4896  0.6382 -1.4225
 2957TIP3   OH233065   2.853   6.119  15.585  0.2600  0.4454 -0.2866
 2957TIP3    H133066   2.893   6.047  15.535 -0.0243  0.6562 -0.8211
 2957TIP3    H233067   2.805   6.169  15.520 -1.6263 -0.3019  0.4793
 2958TIP3   OH233068   6.973   7.736  16.756 -0.5381 -0.1637  0.1399
 2958TIP3    H133069   7.060   7.709  16.786 -0.0795  1.2039  0.1106
 2958TIP3    H233070   6.990   7.793  16.681 -1.1541  3.1684  2.3174
 2959TIP3   OH233071   2.942   1.227  17.911  0.0964  0.3681  0.1295
 2959TIP3    H133072   2.893   1.300  17.947  1.2385  1.2740 -0.0966
 2959TIP3    H233073   2.942   1.242  17.816 -1.6836 -1.2364 -0.2023
 2960TIP3   OH233074   2.901   0.033  17.795  0.1190 -0.5022 -0.0957
 2960TIP3    H133075   2.833   0.016  17.729  0.0005 -1.1562  0.1895
 2960TIP3    H233076   2.945  -0.051  17.806  1.1591 -0.0145 -0.4698
 2961TIP3   OH233077   3.804   0.149  15.268  0.1229 -0.3438 -0.0232
 2961TIP3    H133078   3.837   0.080  15.326 -2.1913  0.7329  2.7869
 2961TIP3    H233079   3.848   0.228  15.298 -0.2075  0.0513 -0.5720
 2962TIP3   OH233080   1.834   7.349  16.216 -0.1209 -0.1113  0.6390
 2962TIP3    H133081   1.808   7.293  16.288 -0.9624 -0.9642 -0.3057
 2962TIP3    H233082   1.909   7.304  16.177  0.2838  0.3103  0.9061
 2963TIP3   OH233083   2.298   3.331  16.792  0.3914 -0.8169 -0.1297
 2963TIP3    H133084   2.248   3.253  16.818  0.0903 -0.7254 -0.4126
 2963TIP3    H233085   2.388   3.311  16.815  0.5278 -1.7858 -1.3523
 2964TIP3   OH233086   5.114   7.324  16.462 -0.0295  0.0840 -0.0835
 2964TIP3    H133087   5.133   7.400  16.518 -1.3945  0.1901  0.2853
 2964TIP3    H233088   5.098   7.362  16.376  0.0491  0.1297 -0.0780
 2965TIP3   OH233089   6.595   0.667  16.215  0.5607 -0.1478  0.2192
 2965TIP3    H133090   6.586   0.759  16.239  0.1801 -0.1764  0.1911
 2965TIP3    H233091   6.511   0.627  16.240  0.7223 -0.4864  0.2333
 2966TIP3   OH233092   1.035   4.715  15.626 -0.0471 -0.3227  0.4462
 2966TIP3    H133093   1.042   4.774  15.701  0.5791 -0.1015  0.2199
 2966TIP3    H233094   1.016   4.772  15.552  0.3427 -0.4280  0.2629
 2967TIP3   OH233095   5.245   4.806  17.501 -0.5735  0.4358 -0.0559
 2967TIP3    H133096   5.265   4.825  17.592 -1.0832  0.0249  0.1449
 2967TIP3    H233097   5.249   4.711  17.494 -1.0354  0.4362 -0.3449
 2968TIP3   OH233098   6.661   6.195  17.961  1.0602 -0.3224  0.6207
 2968TIP3    H133099   6.743   6.209  18.007  0.8116  0.1953  0.9116
 2968TIP3    H233100   6.606   6.269  17.987  0.0860 -1.2757  1.3725
 2969TIP3   OH233101   2.676   6.382  17.794 -0.2531 -0.2772 -0.0557
 2969TIP3    H133102   2.590   6.355  17.761 -0.1453 -1.1217  0.3134
 2969TIP3    H233103   2.737   6.325  17.748  0.0170 -0.4228  0.4803
 2970TIP3   OH233104   3.321   6.319  17.534 -0.1793  0.5205 -0.3201
 2970TIP3    H133105   3.328   6.339  17.627  1.3200 -2.6189  0.4088
 2970TIP3    H233106   3.231   6.288  17.523 -0.5752  1.5650 -0.1011
 2971TIP3   OH233107   0.535   5.588  15.466 -0.5608  0.1125  0.3143
 2971TIP3    H133108   0.564   5.606  15.555 -0.1029  1.4308 -0.0647
 2971TIP3    H233109   0.574   5.504  15.444 -0.2602  0.0175  1.1851
 2972TIP3   OH233110   8.162   6.388  17.416  0.0659  0.1347 -0.2076
 2972TIP3    H133111   8.197   6.401  17.504 -0.0962  0.0999 -0.1375
 2972TIP3    H233112   8.164   6.475  17.376  1.6991 -0.1157 -0.7660
 2973TIP3   OH233113   5.878   5.288  16.825  0.7515  0.1134  0.0635
 2973TIP3    H133114   5.811   5.252  16.767  0.7896  0.1466 -0.0004
 2973TIP3    H233115   5.866   5.382  16.822  0.2900  0.0819  0.6728
 2974TIP3   OH233116   5.212   0.175  16.769  0.0810  0.2366  0.7984
 2974TIP3    H133117   5.308   0.172  16.763  0.1568  1.0775  1.3997
 2974TIP3    H233118   5.184   0.212  16.686  0.1656 -1.4257 -0.0011
 2975TIP3   OH233119   3.714   6.130  16.477  0.2674 -0.5751 -0.1380
 2975TIP3    H133120   3.782   6.128  16.544  0.4950  1.7223 -0.2126
 2975TIP3    H233121   3.762   6.128  16.394  0.2387  0.2031 -0.1892
 2976TIP3   OH233122   1.644   4.525  16.428 -0.0386  0.6471 -0.2726
 2976TIP3    H133123   1.578   4.494  16.366 -0.9473  1.1444  0.4327
 2976TIP3    H233124   1.728   4.497  16.389 -0.6374  0.1675 -1.2620
 2977TIP3   OH233125   7.172   1.642  16.671 -0.2890  0.0354  0.1238
 2977TIP3    H133126   7.240   1.709  16.664 -1.5083  1.4474  1.1786
 2977TIP3    H233127   7.130   1.658  16.756 -0.6636 -2.0550  0.3948
 2978TIP3   OH233128   0.978   7.360  17.713  0.0920  0.6668  0.0578
 2978TIP3    H133129   1.073   7.360  17.701 -0.0271  2.1027 -1.2433
 2978TIP3    H233130   0.943   7.340  17.626 -0.8210 -0.6778  0.6928
 2979TIP3   OH233131   0.535   2.113  16.441 -0.0330 -0.6348  0.1744
 2979TIP3    H133132   0.457   2.143  16.394 -0.0715  0.2664  0.7841
 2979TIP3    H233133   0.522   2.144  16.530  0.9717 -0.5824  0.3140
 2980TIP3   OH233134   2.304   3.553  16.654 -0.1824 -0.9464  0.2820
 2980TIP3    H133135   2.391   3.570  16.618 -0.4978  0.7518  0.2169
 2980TIP3    H233136   2.317   3.484  16.718  1.4248 -0.0043  1.0372
 2981TIP3   OH233137   3.754   0.291  16.333  0.0885  0.0391 -0.1889
 2981TIP3    H133138   3.763   0.309  16.426  0.0186  0.6460 -0.2960
 2981TIP3    H233139   3.734   0.376  16.294 -0.2859 -0.2767 -0.7067
 2982TIP3   OH233140   4.375   6.673  17.054  0.4033  0.1769  0.3061
 2982TIP3    H133141   4.309   6.706  16.993 -2.0447 -0.1761  2.5937
 2982TIP3    H233142   4.375   6.737  17.126  0.7003 -1.1450  1.5156
 2983TIP3   OH233143   6.441   3.776  17.744 -0.1312  0.6245 -0.3978
 2983TIP3    H133144   6.503   3.709  17.715 -1.2372 -1.1339  1.0029
 2983TIP3    H233145   6.369   3.770  17.681 -0.1674  0.5873 -0.3532
 2984TIP3   OH233146   8.350   2.645  15.882 -0.2358 -0.0229 -0.1059
 2984TIP3    H133147   8.389   2.730  15.862  0.7274 -0.8992 -2.1686
 2984TIP3    H233148   8.260   2.651  15.850  0.0267  0.0183 -0.8510
 2985TIP3   OH233149   3.216   0.724  16.092 -0.3109 -0.1147 -0.0085
 2985TIP3    H133150   3.236   0.817  16.104  0.7876 -0.3231 -0.1560
 2985TIP3    H233151   3.298   0.679  16.112  0.0064 -0.8714 -2.7261
 2986TIP3   OH233152   1.475   1.897  16.568  0.2920 -0.5800  0.3113
 2986TIP3    H133153   1.384   1.875  16.588  0.3163 -0.6491  0.3464
 2986TIP3    H233154   1.514   1.814  16.540  0.0055 -0.3025 -0.9690
 2987TIP3   OH233155   2.535   3.255  17.787 -0.1591  0.0232 -0.4807
 2987TIP3    H133156   2.474   3.206  17.733 -0.2819  0.4385 -0.7275
 2987TIP3    H233157   2.481   3.320  17.832 -0.1636 -0.7765  0.6897
 2988TIP3   OH233158   3.087   6.659  17.507  0.1979  0.2465  0.0328
 2988TIP3    H133159   3.179   6.644  17.488  0.2787  0.6270  0.1283
 2988TIP3    H233160   3.046   6.670  17.421  0.2563  0.1903 -0.0026
 2989TIP3   OH233161   6.227   0.067  16.783 -0.1074 -0.0791  0.2221
 2989TIP3    H133162   6.268   0.142  16.826  0.4122  0.5245 -1.2679
 2989TIP3    H233163   6.300   0.019  16.744 -0.6192 -0.2621 -0.5208
 2990TIP3   OH233164   8.341   6.088  16.806  0.9054 -0.2499 -0.2285
 2990TIP3    H133165   8.436   6.081  16.811  1.0914  0.5212 -2.2020
 2990TIP3    H233166   8.323   6.182  16.816  0.3184 -0.4130  0.3318
 2991TIP3   OH233167   7.056   6.674  17.518  0.6237  0.0768 -0.2645
 2991TIP3    H133168   7.105   6.600  17.555  1.3326  0.2723 -0.7823
 2991TIP3    H233169   6.973   6.636  17.491 -0.1213  0.0248  1.9227
 2992TIP3   OH233170   2.766   0.200  16.576  0.5606  0.3047  0.6426
 2992TIP3    H133171   2.709   0.145  16.523 -2.3436  2.1598  1.5934
 2992TIP3    H233172   2.776   0.280  16.524 -0.1261  1.1045  1.7000
 2993TIP3   OH233173   5.262   0.058  17.009  0.1155 -0.4837 -0.4221
 2993TIP3    H133174   5.342   0.110  17.004  0.4340 -1.0434 -1.4682
 2993TIP3    H233175   5.203   0.097  16.944 -0.4625 -0.0961  0.3153
 2994TIP3   OH233176   4.316   4.601  17.477 -0.1053  0.1542  0.3788
 2994TIP3    H133177   4.258   4.526  17.488 -0.6189  0.5694  0.5207
 2994TIP3    H233178   4.366   4.581  17.398 -2.4455  1.0857 -1.4146
 2995TIP3   OH233179   6.549   1.097  17.672  0.8675  0.2008  0.6619
 2995TIP3    H133180   6.541   1.018  17.618  2.0909  0.4791  0.0494
 2995TIP3    H233181   6.638   1.128  17.657  0.1840  2.1542  0.2532
 2996TIP3   OH233182   0.892   0.624  15.645 -0.4213 -0.4245  1.0155
 2996TIP3    H133183   0.953   0.569  15.596 -0.1482  1.1429 -0.4640
 2996TIP3    H233184   0.948   0.678  15.701 -0.4783  0.4591  0.2372
 2997TIP3   OH233185   0.088   6.392  15.764  0.0089  0.2771  0.2327
 2997TIP3    H133186   0.077   6.439  15.682 -3.5613 -0.8011 -0.0717
 2997TIP3    H233187   0.101   6.301  15.738 -0.1585  0.0726  0.8487
 2998TIP3   OH233188   3.371   3.539  16.342 -0.4556  0.2052 -0.1838
 2998TIP3    H133189   3.343   3.600  16.274 -2.6347 -0.5374 -0.0172
 2998TIP3    H233190   3.291   3.497  16.372  0.6335 -0.6207  1.7847
 2999TIP3   OH233191   0.986   1.613  16.215 -0.1892  0.1723  0.0505
 2999TIP3    H133192   1.015   1.624  16.125 -2.1861  0.8717 -0.5548
 2999TIP3    H233193   1.009   1.522  16.237  0.4759  0.0533 -1.0874
 3000TIP3   OH233194   4.709   6.891  16.233 -0.1726  0.0359  0.3549
 3000TIP3    H133195   4.771   6.929  16.170 -0.4260  0.7885  0.5544
 3000TIP3    H233196   4.765   6.846  16.297  0.2004  1.1205  0.8043
 3001TIP3   OH233197   8.064   1.577  16.524  0.2594 -0.6797  0.1334
 3001TIP3    H133198   7.971   1.598  16.533  0.6362  0.6287  1.2948
 3001TIP3    H233199   8.081   1.585  16.430 -0.7861 -0.9271 -0.0939
 3002TIP3   OH233200   2.058   0.841  15.866 -0.7272 -0.7056 -0.5378
 3002TIP3    H133201   2.027   0.906  15.929 -1.9212 -1.2522 -0.5428
 3002TIP3    H233202   2.079   0.764  15.918  0.1313 -0.5354 -0.6044
 3003TIP3   OH233203   7.867   7.118  15.865  0.0065 -0.2355 -0.5407
 3003TIP3    H133204   7.926   7.164  15.805 -0.5120 -1.1095 -1.7743
 3003TIP3    H233205   7.924   7.086  15.935  0.8846 -0.3617 -1.2884
 3004TIP3   OH233206   3.081   6.644  17.226  0.2055  0.1699 -0.2841
 3004TIP3    H133207   3.001   6.593  17.240  0.5190 -0.2648 -0.0303
 3004TIP3    H233208   3.125   6.599  17.154  0.6109 -0.0837  0.1142
 3005TIP3   OH233209   7.981   3.996  17.054 -0.0588 -0.0071  0.0720
 3005TIP3    H133210   7.893   4.030  17.069  0.1883  0.5591  0.2692
 3005TIP3    H233211   7.977   3.956  16.968 -0.2199  1.0024 -0.3986
 3006TIP3   OH233212   0.878   3.730  17.445  0.2667  0.0867  0.0822
 3006TIP3    H133213   0.786   3.742  17.469  0.2703  1.2730 -0.4302
 3006TIP3    H233214   0.927   3.767  17.518  0.4012 -1.9519  1.0962
 3007TIP3   OH233215   1.614   1.042  17.127 -0.4603 -0.3599 -0.2794
 3007TIP3    H133216   1.650   0.981  17.191 -0.2167 -0.3357 -0.3923
 3007TIP3    H233217   1.520   1.037  17.139 -0.4007 -0.0746  0.3434
 3008TIP3   OH233218   5.383   1.800  17.374 -0.3582  0.1867  0.3096
 3008TIP3    H133219   5.433   1.881  17.382 -0.0036 -0.0589  0.6400
 3008TIP3    H233220   5.300   1.819  17.416 -0.5975  0.6407 -0.3594
 3009TIP3   OH233221   5.336   8.057  16.202 -0.5352  0.1440  0.4378
 3009TIP3    H133222   5.387   8.022  16.129  0.1991  1.1036  0.4722
 3009TIP3    H233223   5.249   8.019  16.191 -0.8608  1.3372 -1.7468
 3010TIP3   OH233224   3.050   6.719  16.482 -0.4564 -0.1378  0.5188
 3010TIP3    H133225   3.146   6.711  16.475 -0.3191  1.3325  0.5638
 3010TIP3    H233226   3.018   6.684  16.399  0.1945  0.4387  0.0067
 3011TIP3   OH233227   2.984   0.418  17.829 -0.0283 -0.1724 -0.0823
 3011TIP3    H133228   3.027   0.500  17.854  0.4188 -0.1155 -1.0123
 3011TIP3    H233229   3.055   0.362  17.796 -0.6193 -0.1660 -1.4196
 3012TIP3   OH233230   3.147   7.520  16.607 -0.0785 -0.6293 -0.0868
 3012TIP3    H133231   3.144   7.546  16.699  0.2986 -0.3310 -0.1513
 3012TIP3    H233232   3.232   7.476  16.598 -0.1968 -0.8205 -0.2473
 3013TIP3   OH233233   0.180   0.176  16.198 -0.7245  0.4463  0.1286
 3013TIP3    H133234   0.210   0.267  16.193  0.0244  0.2001  0.1631
 3013TIP3    H233235   0.240   0.134  16.259  0.2084 -0.5967 -1.4562
 3014TIP3   OH233236   6.909   7.827  15.845 -0.2098 -0.2272  0.4671
 3014TIP3    H133237   6.884   7.748  15.796 -1.0020  0.6940 -0.6691
 3014TIP3    H233238   6.999   7.844  15.818 -0.6257  0.2479 -0.6751
 3015TIP3   OH233239   0.014   0.345  16.981 -0.4110  0.1434 -0.3757
 3015TIP3    H133240   0.077   0.416  16.996 -0.3388  0.1287 -0.5986
 3015TIP3    H233241  -0.001   0.307  17.067 -0.0827  0.1207 -0.3275
 3016TIP3   OH233242   6.031   3.172  16.742 -0.2034 -0.1849  0.2505
 3016TIP3    H133243   6.017   3.250  16.687 -0.8869  0.7067  1.6315
 3016TIP3    H233244   6.040   3.207  16.831 -2.1566 -1.7661  1.1409
 3017TIP3   OH233245   7.003   7.974  17.416 -0.5880  0.8812 -0.8233
 3017TIP3    H133246   7.077   7.975  17.356  0.5021  1.5832  0.4568
 3017TIP3    H233247   6.937   7.919  17.373  1.5236 -1.7236 -1.0420
 3018TIP3   OH233248   2.178   2.559  15.786  0.4258  0.0696  0.4285
 3018TIP3    H133249   2.249   2.494  15.783  0.5645  0.2441 -0.1173
 3018TIP3    H233250   2.153   2.561  15.878  0.5280 -0.6393  0.4825
 3019TIP3   OH233251   6.121   1.382  16.165 -0.1749  0.1058  0.2177
 3019TIP3    H133252   6.058   1.455  16.159  1.1729  1.2208 -1.3217
 3019TIP3    H233253   6.115   1.339  16.080  1.6151  0.6659 -0.2205
 3020TIP3   OH233254   3.308   7.559  17.283 -0.2612 -0.3760 -0.0090
 3020TIP3    H133255   3.315   7.613  17.205  1.2247  1.9572  1.6353
 3020TIP3    H233256   3.389   7.575  17.331 -0.5833 -2.6933  1.4577
 3021TIP3   OH233257   0.506   5.802  16.480  0.2074 -0.0816 -0.3791
 3021TIP3    H133258   0.574   5.775  16.418 -0.0988 -0.4245 -0.5757
 3021TIP3    H233259   0.540   5.881  16.521  1.4899 -1.1901  0.7845
 3022TIP3   OH233260   1.337   5.482  17.321 -0.1210 -0.0755  0.1496
 3022TIP3    H133261   1.317   5.551  17.257 -2.0577 -0.8814 -0.1990
 3022TIP3    H233262   1.389   5.526  17.388  0.5050  1.2112 -1.1063
 3023TIP3   OH233263   6.014   7.807  17.980 -0.4056  0.1457  0.3396
 3023TIP3    H133264   5.982   7.730  18.025  0.9205 -0.8750 -0.3785
 3023TIP3    H233265   6.102   7.822  18.016  0.6891 -0.6900 -1.7869
 3024TIP3   OH233266   1.289   3.284  16.943 -0.4580 -0.6575  0.1134
 3024TIP3    H133267   1.227   3.269  17.014  1.6931  0.3590  2.3769
 3024TIP3    H233268   1.257   3.361  16.897 -0.1392  0.8479  2.2566
 3025TIP3   OH233269   3.754   7.000  17.295  0.2714  0.5350 -0.1716
 3025TIP3    H133270   3.737   7.057  17.371  2.0720  0.2971  0.4689
 3025TIP3    H233271   3.764   7.060  17.222 -0.3915  0.8522 -0.0065
 3026TIP3   OH233272   0.953   7.451  15.822  0.3821 -0.4621 -0.2088
 3026TIP3    H133273   0.885   7.454  15.754 -0.1994  0.5397  0.3994
 3026TIP3    H233274   1.013   7.522  15.799  0.3412 -0.3082  0.1504
 3027TIP3   OH233275   1.964   3.108  16.135 -0.4641  0.0316  0.3853
 3027TIP3    H133276   1.877   3.067  16.138 -0.3789 -0.5851 -2.8822
 3027TIP3    H233277   2.007   3.069  16.059  2.0516  1.5994  0.9009
 3028TIP3   OH233278   3.583   6.544  16.048 -0.2625 -0.8541  0.2069
 3028TIP3    H133279   3.611   6.619  15.995 -1.0047 -0.6311  0.1059
 3028TIP3    H233280   3.487   6.544  16.039 -0.4410 -0.5784  1.8510
 3029TIP3   OH233281   7.866   6.487  16.570 -0.4183  0.5356 -0.1882
 3029TIP3    H133282   7.874   6.423  16.500 -0.6851 -0.5513  0.7367
 3029TIP3    H233283   7.778   6.472  16.606  0.0933  0.3390  1.0401
 3030TIP3   OH233284   3.445   2.668  17.539 -0.2070  0.0914  0.2906
 3030TIP3    H133285   3.411   2.604  17.476  0.6547 -2.3805  2.1907
 3030TIP3    H233286   3.540   2.653  17.540  0.1102  1.8659  0.3573
 3031TIP3   OH233287   5.596   5.787  16.690 -0.2031 -0.2731 -0.0706
 3031TIP3    H133288   5.519   5.805  16.745  0.4475  0.6212  0.5916
 3031TIP3    H233289   5.565   5.799  16.600 -1.1209 -1.0760  0.1245
 3032TIP3   OH233290   6.300   4.389  16.626 -0.2651  0.1826  0.3020
 3032TIP3    H133291   6.378   4.410  16.678 -0.5188 -1.2122  1.3057
 3032TIP3    H233292   6.305   4.295  16.612 -0.7745  0.3640 -1.3292
 3033TIP3   OH233293   3.948   3.766  17.092 -0.1629  0.2098 -0.2942
 3033TIP3    H133294   3.905   3.797  17.172  0.2693 -0.6546  0.2872
 3033TIP3    H233295   4.019   3.710  17.123 -0.2526 -0.4852 -1.2980
 3034TIP3   OH233296   5.857   2.374  17.136 -0.0942  0.8982 -0.1505
 3034TIP3    H133297   5.770   2.407  17.117 -0.8887 -0.7665  0.4062
 3034TIP3    H233298   5.858   2.361  17.231  0.5342  0.3003 -0.2283
 3035TIP3   OH233299   6.085   7.204  16.856 -1.5961  0.5815 -0.1395
 3035TIP3    H133300   6.016   7.141  16.836  1.8569 -3.7102 -0.0210
 3035TIP3    H233301   6.089   7.206  16.952 -0.4878 -0.7372 -0.1143
 3036TIP3   OH233302   4.327   3.662  17.826  0.0137  0.6296  0.3248
 3036TIP3    H133303   4.331   3.733  17.890 -1.1867 -0.0279  1.1905
 3036TIP3    H233304   4.404   3.673  17.772  0.4088  1.9537  1.1188
 3037TIP3   OH233305   4.735   3.210  17.837 -0.4487 -0.2854 -0.2682
 3037TIP3    H133306   4.747   3.125  17.879 -0.1657 -0.8717 -1.5023
 3037TIP3    H233307   4.814   3.259  17.858  0.6705 -1.3240 -1.8032
 3038TIP3   OH233308   5.960   6.888  16.167 -0.1240 -0.0436  0.0696
 3038TIP3    H133309   5.881   6.905  16.116  0.1185 -0.2258 -0.3828
 3038TIP3    H233310   5.939   6.812  16.221 -0.8644  1.0308  1.3190
 3039TIP3   OH233311   1.221   3.456  17.500 -0.5452 -0.7875  0.4774
 3039TIP3    H133312   1.211   3.548  17.474 -2.5433 -1.0646  0.1330
 3039TIP3    H233313   1.287   3.421  17.440 -0.0071  0.3215  0.3894
 3040TIP3   OH233314   6.662   7.412  16.216  0.5534  0.2175 -0.4603
 3040TIP3    H133315   6.648   7.498  16.175 -1.5699  0.8731  1.4773
 3040TIP3    H233316   6.603   7.353  16.169  1.6778 -0.1274 -1.4871
 3041TIP3   OH233317   4.360   8.355  16.807  0.7035 -0.2687  0.4847
 3041TIP3    H133318   4.336   8.437  16.764 -2.5187 -1.2770  0.0709
 3041TIP3    H233319   4.369   8.292  16.735 -0.5651 -1.0429  0.9588
 3042TIP3   OH233320   5.966   5.981  16.636 -0.3135 -0.0717 -0.0500
 3042TIP3    H133321   5.910   5.957  16.563 -1.6416  0.8740  0.6157
 3042TIP3    H233322   5.983   6.075  16.624 -1.5290  0.3823  1.4541
 3043TIP3   OH233323   8.209   6.427  18.044  0.2040 -1.1418 -0.0113
 3043TIP3    H133324   8.302   6.438  18.027  0.0190 -0.7371 -0.8243
 3043TIP3    H233325   8.189   6.488  18.115  0.3146 -0.3195 -0.6756
 3044TIP3   OH233326   1.368   3.688  17.046 -0.2530 -0.2454 -0.0680
 3044TIP3    H133327   1.304   3.617  17.034 -0.0364 -0.6322  0.9781
 3044TIP3    H233328   1.316   3.763  17.075 -0.1647 -0.8074  1.6561
 3045TIP3   OH233329   4.861   5.902  17.045  0.2807  0.2107 -1.0129
 3045TIP3    H133330   4.877   5.937  17.133 -3.2146  0.5041 -0.3326
 3045TIP3    H233331   4.865   5.807  17.056 -1.9212  0.1716 -0.0088
 3046TIP3   OH233332   5.439   2.986  16.789 -0.0415  0.6384  0.2886
 3046TIP3    H133333   5.485   3.063  16.756 -0.4599  1.4580  1.5271
 3046TIP3    H233334   5.492   2.956  16.863 -0.1389  0.0275  0.1147
 3047TIP3   OH233335   0.948   3.524  17.883 -0.3769  0.1659  0.4459
 3047TIP3    H133336   0.899   3.458  17.834  0.1982 -0.8043  1.1454
 3047TIP3    H233337   1.003   3.474  17.943  2.2387  1.1466 -0.9698
 3048TIP3   OH233338   7.912   3.306  17.091 -0.5521  0.0875  0.2865
 3048TIP3    H133339   7.908   3.339  17.002  0.7851 -1.1671 -0.2867
 3048TIP3    H233340   7.821   3.299  17.119 -0.9414  1.4232 -0.6055
 3049TIP3   OH233341   0.800   4.033  16.950 -0.3246  0.0788 -0.3418
 3049TIP3    H133342   0.708   4.016  16.932 -0.5012  0.6759  0.0020
 3049TIP3    H233343   0.801   4.111  17.004  0.3544 -0.2078  0.0821
 3050TIP3   OH233344   3.466   3.293  17.384  0.4041 -0.8499 -0.5005
 3050TIP3    H133345   3.548   3.271  17.430  0.3398  0.9343  0.5668
 3050TIP3    H233346   3.397   3.267  17.445  0.3170  1.5047  0.5061
 3051TIP3   OH233347   8.105   2.689  17.371  0.2675  0.2644 -0.0865
 3051TIP3    H133348   8.130   2.698  17.463  0.5126  1.0591 -0.2277
 3051TIP3    H233349   8.120   2.775  17.333 -0.4402  0.1153 -0.7303
 3052TIP3   OH233350   8.413   5.785  17.032  0.4968  0.2257 -0.3957
 3052TIP3    H133351   8.402   5.870  17.074 -1.6122  0.0469 -0.4754
 3052TIP3    H233352   8.475   5.801  16.961 -1.9731  2.4393 -2.2724
 3053TIP3   OH233353   3.043   3.748  18.141 -0.7049 -0.5068 -0.4814
 3053TIP3    H133354   2.981   3.738  18.069 -1.8629 -2.4499  0.7105
 3053TIP3    H233355   3.001   3.705  18.216  1.5175 -0.7482  0.7122
 3054TIP3   OH233356   1.016   0.074  15.670 -0.1991 -0.0578  0.2450
 3054TIP3    H133357   0.967   0.040  15.596 -2.0038  0.9584  0.9137
 3054TIP3    H233358   0.983   0.163  15.683  1.2434  0.3731  1.2520
 3055TIP3   OH233359   6.600   7.417  16.898  0.2253 -0.0024 -0.6854
 3055TIP3    H133360   6.660   7.441  16.828 -0.2795  0.3973 -0.9852
 3055TIP3    H233361   6.513   7.430  16.860 -0.0491 -0.1396 -0.1047
 3056TIP3   OH233362   4.527   5.205  16.848  0.1822 -0.2265  0.0823
 3056TIP3    H133363   4.566   5.123  16.879  1.2090 -0.5477 -1.8779
 3056TIP3    H233364   4.440   5.179  16.818  0.2786 -0.4932  0.0243
 3057TIP3   OH233365   6.567   7.653  17.366 -0.8890  0.9397 -0.0252
 3057TIP3    H133366   6.622   7.640  17.289 -0.9269  0.4076  0.0330
 3057TIP3    H233367   6.600   7.734  17.406  0.6855 -0.0206  0.7078
 3058TIP3   OH233368   7.742   2.233  16.167 -0.4752  0.2829  0.4466
 3058TIP3    H133369   7.648   2.250  16.172 -0.4354  0.7665 -0.2526
 3058TIP3    H233370   7.774   2.297  16.103  0.6543  1.4973  2.1376
 3059TIP3   OH233371   0.598   5.061  16.815  0.5698  0.0301 -1.0121
 3059TIP3    H133372   0.518   5.012  16.835  0.8664 -0.3368 -0.7161
 3059TIP3    H233373   0.605   5.058  16.720  1.6690 -2.2819 -0.9379
 3060TIP3   OH233374   2.487   2.195  15.527 -0.0661  0.9834  1.0565
 3060TIP3    H133375   2.542   2.130  15.571 -0.6695 -0.8423 -0.6975
 3060TIP3    H233376   2.508   2.185  15.434 -3.0008  0.4649  0.3292
 3061TIP3   OH233377   1.687   5.952  16.767  0.7742  0.0005  0.3168
 3061TIP3    H133378   1.692   5.856  16.760  0.2010 -0.1206  1.3718
 3061TIP3    H233379   1.602   5.968  16.808  0.7293  0.9869 -0.1506
 3062TIP3   OH233380   5.258   5.355  16.109 -0.0736 -0.2127  0.6192
 3062TIP3    H133381   5.179   5.368  16.161 -0.8535 -0.8348 -0.3655
 3062TIP3    H233382   5.289   5.444  16.089 -1.0195  0.0646  0.3074
 3063TIP3   OH233383   5.100   2.925  16.024  0.3473  1.1218 -0.4371
 3063TIP3    H133384   5.070   2.886  15.941 -0.7446 -0.2969  0.5643
 3063TIP3    H233385   5.195   2.920  16.020  0.2690 -1.1510 -0.6491
 3064TIP3   OH233386   2.052   0.978  15.592 -0.5264 -0.1147  0.2011
 3064TIP3    H133387   1.964   1.010  15.570 -0.3905  0.2795  0.2219
 3064TIP3    H233388   2.037   0.911  15.659 -0.7435  0.6843  0.9761
 3065TIP3   OH233389   3.248   0.604  16.676  0.6463 -0.2695 -0.1094
 3065TIP3    H133390   3.294   0.614  16.593  1.5063 -1.0607  0.2551
 3065TIP3    H233391   3.250   0.510  16.693  1.2808 -0.0293  1.2496
 3066TIP3   OH233392   0.859   6.462  17.790  0.3042  0.6798 -0.2814
 3066TIP3    H133393   0.769   6.488  17.767 -0.0942 -0.1169  0.3035
 3066TIP3    H233394   0.855   6.446  17.884  0.5912 -1.0924 -0.5268
 3067TIP3   OH233395   1.100   4.407  17.253 -0.0275 -0.0352  0.1654
 3067TIP3    H133396   1.080   4.369  17.338  0.2613 -0.8283 -0.1011
 3067TIP3    H233397   1.035   4.476  17.240  0.1842  0.3737  1.1988
 3068TIP3   OH233398   6.432   3.592  17.495 -0.4746  0.3930  0.6921
 3068TIP3    H133399   6.355   3.542  17.469 -0.6083  0.9891 -0.0825
 3068TIP3    H233400   6.404   3.683  17.494  0.8423  0.8865 -2.0752
 3069TIP3   OH233401   8.180   3.328  16.324 -0.3659  0.2657 -0.0426
 3069TIP3    H133402   8.271   3.350  16.342 -0.3179 -0.9384  1.4558
 3069TIP3    H233403   8.154   3.274  16.399 -2.2262  0.3543 -0.5842
 3070TIP3   OH233404   1.294   2.069  16.348 -0.1395 -0.0170  0.0034
 3070TIP3    H133405   1.286   2.145  16.405 -0.2379  0.7783 -1.0539
 3070TIP3    H233406   1.352   2.010  16.396  1.1635  1.3533  0.1739
 3071TIP3   OH233407   4.571   0.933  17.958  0.1307 -0.1775 -0.0368
 3071TIP3    H133408   4.616   0.868  18.013 -1.1557 -0.1607  1.0790
 3071TIP3    H233409   4.561   0.890  17.874 -2.3652 -2.2637  1.1852
 3072TIP3   OH233410   5.352   4.405  16.289 -0.7567 -0.3121  0.0649
 3072TIP3    H133411   5.424   4.389  16.350  0.7793  0.4406 -1.4659
 3072TIP3    H233412   5.364   4.339  16.221 -2.3446 -1.0311  0.4397
 3073TIP3   OH233413   6.239   3.658  17.081  0.1035  0.8663 -0.0885
 3073TIP3    H133414   6.173   3.691  17.020 -1.2212  0.1949  0.9256
 3073TIP3    H233415   6.323   3.675  17.037 -0.7932  0.0134 -2.2846
 3074TIP3   OH233416   6.061   1.750  17.152 -0.6083  0.1640 -0.0840
 3074TIP3    H133417   6.090   1.676  17.098 -1.3453 -1.7453  2.0047
 3074TIP3    H233418   5.975   1.773  17.117  0.2164  1.0578 -1.6560
 3075TIP3   OH233419   2.606   0.805  16.358  0.6639  0.3061 -0.0646
 3075TIP3    H133420   2.669   0.746  16.398  0.6871  0.3657 -0.0154
 3075TIP3    H233421   2.630   0.807  16.265  0.5985  0.1547 -0.0858
 3076TIP3   OH233422   2.167   2.023  17.361  0.3767  0.1972 -0.2467
 3076TIP3    H133423   2.094   1.962  17.369  0.7653 -0.1243  1.0590
 3076TIP3    H233424   2.234   1.975  17.314  0.5370 -0.2646  0.4402
 3077TIP3   OH233425   5.472   6.861  17.817 -0.0366  0.4022 -0.1396
 3077TIP3    H133426   5.525   6.908  17.881 -0.6684  1.3612 -0.2994
 3077TIP3    H233427   5.507   6.772  17.817 -1.2726 -0.2104  3.0041
 3078TIP3   OH233428   3.359   6.737  15.306 -0.4832  0.1289  0.1981
 3078TIP3    H133429   3.277   6.723  15.352 -2.1805  0.2710 -2.5466
 3078TIP3    H233430   3.370   6.657  15.253  0.5617  0.5740 -0.2814
 3079TIP3   OH233431   6.143   6.599  15.905 -0.0849  0.1388 -0.7391
 3079TIP3    H133432   6.047   6.596  15.904 -0.0999 -0.5817  0.5185
 3079TIP3    H233433   6.165   6.675  15.852 -1.3673  0.4995 -0.7911
 3080TIP3   OH233434   7.905   3.320  16.356  0.1554  0.1402 -0.3498
 3080TIP3    H133435   7.978   3.334  16.295  0.3134 -1.8848 -0.6771
 3080TIP3    H233436   7.880   3.409  16.383  1.8207  0.9539 -1.2967
 3081TIP3   OH233437   5.380   1.086  17.661  0.2565 -0.4156  0.0286
 3081TIP3    H133438   5.442   1.030  17.615 -0.4124 -1.4396  0.3452
 3081TIP3    H233439   5.305   1.092  17.602  0.0309 -0.4508  0.3104
 3082TIP3   OH233440   5.054   2.890  17.328 -0.7048  0.0476 -0.1850
 3082TIP3    H133441   5.083   2.843  17.407 -1.4181 -0.6919 -0.3416
 3082TIP3    H233442   4.970   2.848  17.305 -1.2346  1.2453 -0.4888
 3083TIP3   OH233443   4.331   0.575  15.646 -0.0892  0.3694  0.3599
 3083TIP3    H133444   4.327   0.486  15.612  0.2911  0.4107  0.2042
 3083TIP3    H233445   4.391   0.570  15.720 -0.2462  0.4520  0.4932
 3084TIP3   OH233446   7.838   6.148  16.985  0.2754 -0.0979 -0.4670
 3084TIP3    H133447   7.753   6.135  17.027 -0.3052  1.5431 -1.0147
 3084TIP3    H233448   7.896   6.177  17.055  0.9795 -3.1168  0.3030
 3085TIP3   OH233449   3.174   4.896  17.131 -0.4944 -0.0116  0.3028
 3085TIP3    H133450   3.137   4.968  17.181  0.5279 -0.3708  1.6463
 3085TIP3    H233451   3.261   4.927  17.105  0.1242 -0.8708  1.2558
 3086TIP3   OH233452   3.842   0.850  15.676 -0.2168 -0.4009  0.6932
 3086TIP3    H133453   3.855   0.820  15.585 -0.3803  1.2386  0.0929
 3086TIP3    H233454   3.907   0.801  15.726 -0.8675 -2.1893 -0.0922
 3087TIP3   OH233455   3.432   0.506  16.038 -0.0507 -0.6185  0.0230
 3087TIP3    H133456   3.354   0.463  16.001 -0.0614  0.7414 -1.6690
 3087TIP3    H233457   3.455   0.573  15.974  1.6100  0.0539  1.2475
 3088TIP3   OH233458   0.029   5.021  16.869  0.7002 -0.0668  0.2485
 3088TIP3    H133459   0.007   4.964  16.943  1.2573 -0.8235 -0.1507
 3088TIP3    H233460  -0.024   5.099  16.881 -1.2989 -1.3247 -0.0341
 3089TIP3   OH233461   4.055   4.983  17.231  0.2463 -0.5584 -0.0154
 3089TIP3    H133462   4.074   4.943  17.316  0.0076 -1.3192 -0.3097
 3089TIP3    H233463   4.070   5.077  17.245 -0.3650 -0.5986  1.0241
 3090TIP3   OH233464   1.346   7.105  17.190 -0.2237 -0.3805 -0.0275
 3090TIP3    H133465   1.378   7.193  17.170 -0.0246 -0.5591 -0.5275
 3090TIP3    H233466   1.390   7.081  17.271  0.9233 -0.6058 -0.6839
 3091TIP3   OH233467   5.696   7.640  16.146 -0.0807 -0.3749  0.2415
 3091TIP3    H133468   5.703   7.703  16.218  0.5625 -1.0348  0.7699
 3091TIP3    H233469   5.691   7.695  16.067 -0.5678  0.3511  0.7578
 3092TIP3   OH233470   7.280   0.800  17.586 -0.6395  0.0941 -0.0799
 3092TIP3    H133471   7.271   0.855  17.508  0.5047  1.1269  0.4833
 3092TIP3    H233472   7.264   0.711  17.554  0.5903  0.3949 -1.6695
 3093TIP3   OH233473   4.854   2.206  15.901 -0.2506 -0.5084 -0.3966
 3093TIP3    H133474   4.873   2.293  15.865 -0.4996 -0.0632  0.5020
 3093TIP3    H233475   4.937   2.176  15.937 -0.3536 -0.2601  0.0575
 3094TIP3   OH233476   1.452   3.707  17.305  0.2313 -0.3040 -0.2201
 3094TIP3    H133477   1.524   3.661  17.348  1.1070  1.2100  0.0100
 3094TIP3    H233478   1.467   3.694  17.211  1.3326  0.6896 -0.2095
 3095TIP3   OH233479   6.732   1.574  16.837  0.4610 -0.3564  0.1193
 3095TIP3    H133480   6.701   1.602  16.750  0.9512  0.5037  0.2094
 3095TIP3    H233481   6.705   1.482  16.844  0.6723 -0.5254 -1.0659
 3096TIP3   OH233482   2.017   4.859  17.090  0.3512 -0.1216  0.1801
 3096TIP3    H133483   1.993   4.921  17.022  0.6540  0.1929  0.3564
 3096TIP3    H233484   2.003   4.907  17.172 -0.4263 -0.6417  0.3526
 3097TIP3   OH233485   6.906   1.607  17.602 -0.5308  0.1411  0.1859
 3097TIP3    H133486   6.899   1.699  17.578 -0.6327  1.0007  3.2136
 3097TIP3    H233487   7.000   1.591  17.609 -0.5418  0.4050  0.9831
 3098TIP3   OH233488   2.510   6.023  17.038 -0.4127  0.1541 -0.3884
 3098TIP3    H133489   2.555   5.972  17.106 -0.4177 -0.0318 -0.5236
 3098TIP3    H233490   2.469   5.957  16.983 -1.9391  0.3451  0.4604
 3099TIP3   OH233491   2.091   7.140  16.906 -0.7509 -0.4778  0.6389
 3099TIP3    H133492   2.162   7.076  16.902 -0.6305 -0.2817 -1.0609
 3099TIP3    H233493   2.033   7.117  16.833 -1.5888  0.3335  1.0230
 3100TIP3   OH233494   3.245   0.664  17.301 -0.0816 -0.3008 -0.5895
 3100TIP3    H133495   3.168   0.705  17.261  0.3278  1.3205  0.2297
 3100TIP3    H233496   3.208   0.605  17.367 -0.6390  1.1019  0.3970
 3101TIP3   OH233497   4.967   4.860  17.467 -0.1679  0.0056  0.1161
 3101TIP3    H133498   4.970   4.951  17.497  1.0944 -0.1285  0.4384
 3101TIP3    H233499   5.057   4.830  17.473 -0.5565 -1.2426 -0.0984
 3102TIP3   OH233500   2.471   3.864  16.463 -0.0943  0.1524  0.1613
 3102TIP3    H133501   2.496   3.949  16.426 -1.1809  0.1294 -0.6493
 3102TIP3    H233502   2.379   3.873  16.485 -0.2685 -0.8695 -0.0950
 3103TIP3   OH233503   1.759   0.391  16.934  0.0361 -0.1387 -0.1128
 3103TIP3    H133504   1.725   0.341  17.008 -0.7165 -0.7723 -0.8698
 3103TIP3    H233505   1.687   0.395  16.872  0.3054  1.2980 -0.3830
 3104TIP3   OH233506   6.499   6.279  17.157 -0.3224 -0.1593 -0.2020
 3104TIP3    H133507   6.525   6.362  17.196  2.1064 -0.8510 -0.2007
 3104TIP3    H233508   6.411   6.295  17.124 -1.1665  1.4733  2.4899
 3105TIP3   OH233509   1.234   7.434  16.445 -0.1201  0.0727 -0.0912
 3105TIP3    H133510   1.309   7.381  16.473 -0.5207 -0.4369  0.0490
 3105TIP3    H233511   1.213   7.487  16.522  1.0527  1.3787 -0.6210
 3106TIP3   OH233512   1.664   0.547  16.578 -0.5948 -0.3253  0.4854
 3106TIP3    H133513   1.597   0.596  16.532  0.1754 -1.1041 -1.5772
 3106TIP3    H233514   1.616   0.491  16.639 -1.8539 -0.9944 -1.0657
 3107TIP3   OH233515   0.959   1.261  17.450  0.1185  0.5744 -0.1628
 3107TIP3    H133516   0.890   1.327  17.451 -1.3024 -0.8234 -1.1208
 3107TIP3    H233517   0.978   1.248  17.357 -0.6743 -1.3538 -0.0960
 3108TIP3   OH233518   5.072   8.401  16.026  0.3956  0.0794  0.0810
 3108TIP3    H133519   5.076   8.490  16.062  0.4639 -0.4928  1.5471
 3108TIP3    H233520   5.163   8.380  16.004  0.1994  0.8915 -1.6683
 3109TIP3   OH233521   1.085   3.297  18.015  0.5230  0.5014  0.4033
 3109TIP3    H133522   1.178   3.319  18.008  0.1999  2.0315  0.6328
 3109TIP3    H233523   1.059   3.328  18.101 -0.5628  1.5691 -0.2799
 3110TIP3   OH233524   8.094   0.980  17.697  0.1179  0.1271 -0.7383
 3110TIP3    H133525   8.087   0.980  17.601  0.2390  1.3330 -0.7633
 3110TIP3    H233526   8.005   0.961  17.727  0.2058 -0.8616 -1.0838
 3111TIP3   OH233527   6.215   0.747  16.127  0.0788  0.1894  0.3676
 3111TIP3    H133528   6.187   0.838  16.118  1.2484  0.6443  1.0980
 3111TIP3    H233529   6.254   0.726  16.043  1.6051  1.0441  0.8112
 3112TIP3   OH233530   5.295   2.434  17.689 -0.3428 -0.1704  0.5960
 3112TIP3    H133531   5.205   2.402  17.682 -0.5510  0.5060  0.0981
 3112TIP3    H233532   5.338   2.372  17.749 -1.1355 -0.4981  0.8394
 3113TIP3   OH233533   1.668   6.227  16.049 -0.2799  0.3983  0.2781
 3113TIP3    H133534   1.656   6.145  16.096 -0.2916 -0.6398 -1.4733
 3113TIP3    H233535   1.580   6.265  16.045 -0.6392 -0.5107 -0.6691
 3114TIP3   OH233536   5.832   4.913  17.368  0.4940  0.3757 -0.1190
 3114TIP3    H133537   5.885   4.845  17.409  0.1422  0.4277  0.4370
 3114TIP3    H233538   5.868   4.995  17.401 -0.2413  0.4000  0.6872
 3115TIP3   OH233539   7.560   1.992  17.131 -0.1850 -0.0619 -0.2160
 3115TIP3    H133540   7.607   2.034  17.203 -0.6507 -0.6348  0.4458
 3115TIP3    H233541   7.540   1.905  17.165  1.9324 -1.3557 -2.0310
 3116TIP3   OH233542   8.020   5.864  17.693  0.5355  0.3885  0.0370
 3116TIP3    H133543   8.098   5.811  17.710  0.5275  0.6803  1.0740
 3116TIP3    H233544   7.976   5.869  17.778 -0.9650 -0.2912 -0.6790
 3117TIP3   OH233545   6.904   0.395  17.902  0.4885  0.6188 -0.5906
 3117TIP3    H133546   6.940   0.445  17.829 -0.1691  1.3234 -0.4444
 3117TIP3    H233547   6.967   0.324  17.916  0.5793  0.4152 -1.8929
 3118TIP3   OH233548   3.182   6.483  16.066 -0.3378 -0.1824 -0.3087
 3118TIP3    H133549   3.253   6.475  16.003  0.9215  2.3893  0.6184
 3118TIP3    H233550   3.164   6.393  16.095  0.5078 -1.1811 -2.6884
 3119TIP3   OH233551   0.299   2.856  17.102 -0.4230  0.6235  0.4800
 3119TIP3    H133552   0.337   2.770  17.122 -1.0708  0.7382  2.3988
 3119TIP3    H233553   0.235   2.871  17.172 -1.4149  2.0194 -0.6551
 3120TIP3   OH233554   1.829   4.092  16.484 -0.2206  0.0971  0.1185
 3120TIP3    H133555   1.766   4.019  16.486  1.1776 -1.2141 -0.7956
 3120TIP3    H233556   1.906   4.055  16.440  2.1787  0.8606  3.3550
 3121TIP3   OH233557   3.258   4.366  17.765  0.0648 -0.0624 -0.3606
 3121TIP3    H133558   3.176   4.400  17.802  0.0848  1.3970 -1.5234
 3121TIP3    H233559   3.326   4.401  17.822  0.0722  1.8944 -1.4441
 3122TIP3   OH233560   1.425   1.618  17.178 -0.1863  0.9322  0.0547
 3122TIP3    H133561   1.450   1.638  17.088 -1.0584 -3.0984 -1.3023
 3122TIP3    H233562   1.334   1.645  17.185  0.1681  2.1663  0.1104
 3123TIP3   OH233563   7.217   5.402  17.303  0.1136  0.0094  0.4270
 3123TIP3    H133564   7.305   5.412  17.340  0.0379  0.2111  0.5533
 3123TIP3    H233565   7.228   5.418  17.209  0.0483  1.0247  0.5768
 3124TIP3   OH233566   8.267   3.992  17.019  0.0512 -0.3093  0.5575
 3124TIP3    H133567   8.173   3.979  17.030  0.0056  0.3725  1.0325
 3124TIP3    H233568   8.275   4.079  16.979  0.3839 -1.3072 -1.6954
 3125TIP3   OH233569   1.676   6.274  16.969 -0.5080  0.0034 -0.7071
 3125TIP3    H133570   1.619   6.349  16.952  1.4428  2.5668  2.7959
 3125TIP3    H233571   1.621   6.213  17.018 -1.5411  0.1154 -1.6909
 3126TIP3   OH233572   6.280   5.741  17.130  0.5009 -0.6047 -0.7164
 3126TIP3    H133573   6.186   5.734  17.147  0.7716 -0.9034  0.8474
 3126TIP3    H233574   6.299   5.834  17.139  0.0971 -0.2694 -2.7750
 3127TIP3   OH233575   8.250   3.815  17.732 -0.0166 -0.4383  0.3452
 3127TIP3    H133576   8.197   3.778  17.661  1.2301  2.8167 -2.5414
 3127TIP3    H233577   8.312   3.745  17.754 -0.5970 -1.6588 -1.6450
 3128TIP3   OH233578   2.661   3.101  15.603  0.2547  0.0088  0.7104
 3128TIP3    H133579   2.677   3.066  15.691  1.1338 -0.3074  0.4252
 3128TIP3    H233580   2.715   3.179  15.598  0.2251  0.0127  0.4374
 3129TIP3   OH233581   3.237   2.277  15.986 -0.1367  0.1480  0.3540
 3129TIP3    H133582   3.185   2.197  15.974 -1.7714  1.0602  0.9217
 3129TIP3    H233583   3.242   2.315  15.898 -0.9732  0.3332  0.3715
 3130TIP3   OH233584   6.300   0.305  16.888 -0.8504  0.3370 -0.2779
 3130TIP3    H133585   6.220   0.319  16.939 -0.9655  0.3159 -0.4526
 3130TIP3    H233586   6.351   0.385  16.901 -0.3277 -0.1720  0.8778
 3131TIP3   OH233587   2.692   4.159  15.923 -0.3409 -0.1988  0.2258
 3131TIP3    H133588   2.697   4.091  15.856  0.2896 -0.2807  0.3485
 3131TIP3    H233589   2.648   4.117  15.997 -0.0520 -0.4371  0.2616
 3132TIP3   OH233590   7.613   7.824  17.519 -0.8439  0.0971 -0.2885
 3132TIP3    H133591   7.666   7.744  17.515 -1.3036 -0.2183 -0.1570
 3132TIP3    H233592   7.523   7.793  17.525 -0.9536  0.6171  1.1214
 3133TIP3   OH233593   6.347   7.800  15.803  0.0386 -0.2710 -0.0993
 3133TIP3    H133594   6.408   7.816  15.732  0.4583  0.7050  0.4600
 3133TIP3    H233595   6.262   7.826  15.769  0.3369  0.8307 -0.0425
 3134TIP3   OH233596   4.316   2.827  17.932  0.1038 -0.7266  0.2304
 3134TIP3    H133597   4.373   2.750  17.934  2.5798  0.9547 -0.4323
 3134TIP3    H233598   4.356   2.888  17.994 -0.3677  0.8907 -0.9770
 3135TIP3   OH233599   1.317   0.209  16.524 -0.1378  0.2079 -0.3995
 3135TIP3    H133600   1.298   0.235  16.615 -1.2846 -0.6839 -0.3687
 3135TIP3    H233601   1.334   0.292  16.479  1.6557  0.5941  0.8689
 3136TIP3   OH233602   1.335   1.873  15.646 -0.2061  0.4672  0.4154
 3136TIP3    H133603   1.263   1.862  15.708 -1.1845  1.6192 -0.4547
 3136TIP3    H233604   1.392   1.798  15.662 -2.8568 -1.9493 -0.5370
 3137TIP3   OH233605   3.085   4.461  17.297 -0.0917  0.2126 -0.0778
 3137TIP3    H133606   3.081   4.506  17.381  0.1549 -0.2206  0.1729
 3137TIP3    H233607   3.040   4.378  17.312  1.0465 -0.4210 -0.0007
 3138TIP3   OH233608   3.150   7.376  17.020  0.3864  0.0952  0.1251
 3138TIP3    H133609   3.184   7.416  16.940 -0.8001  0.9513  0.0315
 3138TIP3    H233610   3.145   7.282  16.999  0.3221  0.2761 -0.7203
 3139TIP3   OH233611   7.883   6.542  16.966 -0.0595 -0.4046 -0.2352
 3139TIP3    H133612   7.847   6.628  16.942 -1.5211 -1.0713 -0.5123
 3139TIP3    H233613   7.974   6.546  16.937  0.1837  1.3943  0.6364
 3140TIP3   OH233614   0.677   3.050  17.579 -0.0645 -0.0905  0.1703
 3140TIP3    H133615   0.668   3.002  17.662 -1.3375 -1.4734 -0.7087
 3140TIP3    H233616   0.744   3.001  17.531 -0.9804 -0.7173 -0.5123
 3141TIP3   OH233617   1.658   0.165  15.646 -0.5079 -0.7611  0.2498
 3141TIP3    H133618   1.747   0.156  15.681  0.1812 -0.6249 -1.3481
 3141TIP3    H233619   1.619   0.235  15.698  0.1589 -1.1272  1.2757
 3142TIP3   OH233620   7.358   8.103  17.008  0.0008 -0.2291 -0.2754
 3142TIP3    H133621   7.320   8.036  16.952 -1.9942 -0.1786  0.9246
 3142TIP3    H233622   7.391   8.054  17.084 -0.1810  0.0049 -0.0450
 3143TIP3   OH233623   1.016   3.414  15.782  0.2234 -0.2977  0.3848
 3143TIP3    H133624   1.004   3.386  15.873  1.3315 -3.1886 -0.2339
 3143TIP3    H233625   0.982   3.341  15.730  5.7489 -2.0548 -1.4098
 3144TIP3   OH233626   0.957   1.688  16.535 -0.1828  0.2372  0.2780
 3144TIP3    H133627   0.994   1.600  16.536 -0.4437  0.1055 -0.7325
 3144TIP3    H233628   0.937   1.706  16.627  0.4412 -0.5071  0.5775
 3145TIP3   OH233629   3.955   6.151  16.644  0.1169  0.1291 -0.1635
 3145TIP3    H133630   4.007   6.200  16.708  0.1864  0.4156 -0.4341
 3145TIP3    H233631   3.948   6.063  16.680  2.6853 -0.5564 -1.1661
 3146TIP3   OH233632   5.800   3.602  16.949 -0.0890  0.6080 -0.5346
 3146TIP3    H133633   5.881   3.552  16.945  0.6955  1.8067 -0.1422
 3146TIP3    H233634   5.766   3.586  17.037 -0.1625  0.2979 -0.6166
 3147TIP3   OH233635   5.259   4.473  16.868  0.3865  0.1670  0.5185
 3147TIP3    H133636   5.324   4.416  16.828 -0.1658 -0.4472  0.4774
 3147TIP3    H233637   5.192   4.484  16.801 -1.2306 -1.9686  1.6597
 3148TIP3   OH233638   3.602   8.106  17.436 -0.3893 -0.3817  0.2645
 3148TIP3    H133639   3.606   8.172  17.367  0.7769 -2.1147 -1.4153
 3148TIP3    H233640   3.693   8.084  17.454 -0.6649  0.0166  2.4154
 3149TIP3   OH233641   3.389   0.183  17.390 -0.9758  0.3908  0.0291
 3149TIP3    H133642   3.368   0.089  17.388  0.1927  0.1156 -0.5674
 3149TIP3    H233643   3.426   0.198  17.477  0.8919 -0.2181 -0.6110
 3150TIP3   OH233644   3.878   5.051  16.178  0.0144 -0.5997 -0.8558
 3150TIP3    H133645   3.798   4.999  16.185 -0.2462 -0.0987  0.1198
 3150TIP3    H233646   3.950   4.988  16.185 -0.2927 -0.8387  0.2031
 3151TIP3   OH233647   2.926   4.612  16.171  1.0819  0.5272  0.1470
 3151TIP3    H133648   2.980   4.535  16.151  1.0430  1.0055 -2.0562
 3151TIP3    H233649   2.836   4.577  16.175  1.2559  0.1624  1.1637
 3152TIP3   OH233650   0.877   8.149  16.260  0.0218  0.4524 -0.6380
 3152TIP3    H133651   0.892   8.100  16.179 -0.1418  0.6600 -0.7935
 3152TIP3    H233652   0.799   8.109  16.298  0.4279 -0.0251 -0.2873
 3153TIP3   OH233653   5.089   2.148  16.743  0.4199  0.3631 -0.0070
 3153TIP3    H133654   5.085   2.228  16.690  3.3552  1.7737  1.6133
 3153TIP3    H233655   5.029   2.165  16.816 -0.3327  0.2949 -0.6043
 3154TIP3   OH233656   2.259   5.247  15.974  0.4786  0.5746 -0.3659
 3154TIP3    H133657   2.285   5.178  15.913  2.4987  0.3584  0.6659
 3154TIP3    H233658   2.241   5.201  16.056  0.9283  1.1703  0.0732
 3155TIP3   OH233659   8.149   0.953  18.162  0.2047 -0.4421  0.2462
 3155TIP3    H133660   8.154   0.903  18.081 -0.9502  1.0989 -0.8425
 3155TIP3    H233661   8.229   0.930  18.210  1.6396 -0.3677 -1.9491
 3156TIP3   OH233662   6.641   2.684  16.850  0.1743  0.3495 -0.0636
 3156TIP3    H133663   6.719   2.633  16.873 -0.3243 -0.3368  0.1441
 3156TIP3    H233664   6.612   2.647  16.767  0.3135  0.8905 -0.3526
 3157TIP3   OH233665   5.801   3.224  17.043  0.3745  0.0406 -0.4769
 3157TIP3    H133666   5.768   3.179  16.965  0.4719 -0.3736 -0.2848
 3157TIP3    H233667   5.723   3.241  17.096  0.1405  1.4822 -1.2386
 3158TIP3   OH233668   6.551   5.693  15.802  0.3430 -0.2634  0.6101
 3158TIP3    H133669   6.635   5.735  15.820  0.2733  0.1579 -0.0140
 3158TIP3    H233670   6.550   5.616  15.858  0.6836  0.3111  1.4348
 3159TIP3   OH233671   8.161   4.607  17.044  0.0659  0.7575 -0.5596
 3159TIP3    H133672   8.124   4.695  17.041  0.6681  1.1032  1.3753
 3159TIP3    H233673   8.088   4.551  17.072  0.1971  0.9660  0.2154
 3160TIP3   OH233674   2.534   6.149  17.360 -0.2542  0.1113 -0.6567
 3160TIP3    H133675   2.439   6.155  17.375 -0.1443  0.7933 -0.1920
 3160TIP3    H233676   2.544   6.076  17.300 -1.0421 -0.2575 -0.3536
 3161TIP3   OH233677   3.538   3.056  16.165  0.3315 -0.1078  0.0108
 3161TIP3    H133678   3.515   2.997  16.236 -1.9148  0.7010  0.0209
 3161TIP3    H233679   3.471   3.123  16.166  1.4693  1.1425 -1.5165
 3162TIP3   OH233680   4.272   3.827  17.420 -0.2382  0.5693 -0.0650
 3162TIP3    H133681   4.302   3.740  17.393 -0.0269  0.9834 -1.2134
 3162TIP3    H233682   4.217   3.810  17.497 -0.0550 -0.5589 -0.1597
 3163TIP3   OH233683   1.606   8.278  16.671 -0.0611  0.1773  0.1831
 3163TIP3    H133684   1.686   8.228  16.680  0.7522  1.1054 -1.3911
 3163TIP3    H233685   1.567   8.247  16.588  0.5701  2.1962 -0.9404
 3164TIP3   OH233686   8.370   0.225  16.183  0.9025 -0.0396  0.0322
 3164TIP3    H133687   8.466   0.218  16.188  0.8081 -0.4076  1.6344
 3164TIP3    H233688   8.347   0.170  16.108  2.0095  0.8960 -1.0567
 3165TIP3   OH233689   5.138   0.667  17.495  0.0491 -0.2860  0.8097
 3165TIP3    H133690   5.143   0.572  17.487 -1.8276 -0.3497 -0.1874
 3165TIP3    H233691   5.196   0.700  17.426 -0.8528 -0.7470 -0.1915
 3166TIP3   OH233692   6.784   5.651  16.196  0.4753  0.3931  0.1401
 3166TIP3    H133693   6.849   5.581  16.187  0.6033  0.7836 -2.8924
 3166TIP3    H233694   6.700   5.605  16.202  0.8338 -0.0682  2.5801
 3167TIP3   OH233695   3.502   3.625  15.853  0.2375 -0.0388  0.3388
 3167TIP3    H133696   3.446   3.674  15.794  1.6284  0.9497 -0.2276
 3167TIP3    H233697   3.554   3.569  15.795 -1.2072 -2.1151  0.9649
 3168TIP3   OH233698   3.270   0.343  17.210  0.5914  0.0850  0.4213
 3168TIP3    H133699   3.251   0.414  17.271 -1.3491 -1.0477  1.2439
 3168TIP3    H233700   3.312   0.276  17.263  2.9591  0.7761 -0.4716
 3169TIP3   OH233701   6.912   3.405  17.233  0.3659  0.0355  0.2174
 3169TIP3    H133702   6.865   3.487  17.217  1.6795  1.0044  1.1097
 3169TIP3    H233703   6.913   3.361  17.147  1.1317  1.7731 -0.7246
 3170TIP3   OH233704   6.957   1.480  17.336  0.2957  0.6344 -0.0647
 3170TIP3    H133705   6.936   1.565  17.374 -0.5331  0.0696  0.7894
 3170TIP3    H233706   6.952   1.419  17.409 -0.0608 -0.2945 -0.8344
 3171TIP3   OH233707   7.969   0.756  16.198 -0.4317  0.1907  0.5102
 3171TIP3    H133708   8.006   0.745  16.110 -0.1440  0.2946  0.6209
 3171TIP3    H233709   7.905   0.685  16.205 -2.4619  1.7554 -0.8310
 3172TIP3   OH233710   6.985   5.020  16.021 -0.1598  0.0997  0.2413
 3172TIP3    H133711   7.034   4.980  16.092  1.3152  0.6799 -0.4049
 3172TIP3    H233712   7.006   4.966  15.944  0.0346  0.7494 -0.1742
 3173TIP3   OH233713   1.180   8.431  16.426  0.0126  0.0514 -0.2527
 3173TIP3    H133714   1.235   8.501  16.461 -0.5937 -0.2006  1.2593
 3173TIP3    H233715   1.103   8.476  16.392  0.8990  0.3603 -1.9555
 3174TIP3   OH233716   1.580   1.242  16.495  0.3087 -0.1284  0.0479
 3174TIP3    H133717   1.532   1.205  16.569  0.8033 -1.6338 -0.3528
 3174TIP3    H233718   1.557   1.187  16.420 -1.4232  2.2870 -1.3555
 3175TIP3   OH233719   2.299   3.393  17.907 -0.4482 -0.2946  0.2867
 3175TIP3    H133720   2.264   3.467  17.956 -0.8108 -0.3448  0.1049
 3175TIP3    H233721   2.275   3.316  17.957  1.1471 -0.2299  1.2320
 3176TIP3   OH233722   0.425   6.868  17.429 -0.3788 -0.2493 -0.3530
 3176TIP3    H133723   0.428   6.808  17.354 -1.2269 -0.7744  0.0191
 3176TIP3    H233724   0.376   6.943  17.399 -0.8746 -0.5395 -0.2751
 3177TIP3   OH233725   0.863   2.681  15.842  0.7175  0.0383  0.1335
 3177TIP3    H133726   0.784   2.635  15.871 -0.4362 -0.8095 -3.8077
 3177TIP3    H233727   0.833   2.768  15.819  1.8458  1.0979  2.3338
 3178TIP3   OH233728   0.912   8.417  16.256 -0.3248 -0.1079  0.4397
 3178TIP3    H133729   0.862   8.442  16.178  0.9499 -1.3509 -0.8291
 3178TIP3    H233730   0.916   8.321  16.251 -0.1721 -0.2053  2.0294
 3179TIP3   OH233731   4.091   2.506  17.614  0.2739  0.2649  0.0418
 3179TIP3    H133732   4.084   2.489  17.520 -1.3972 -1.7373  0.4426
 3179TIP3    H233733   4.000   2.502  17.645  0.8251  0.5848  1.7923
 3180TIP3   OH233734   7.526   2.008  16.391 -0.3639 -0.1582  0.1025
 3180TIP3    H133735   7.517   2.103  16.375 -0.3526  0.0303  1.1846
 3180TIP3    H233736   7.450   1.970  16.346 -1.0348  0.4851  0.6530
 3181TIP3   OH233737   7.782   4.348  15.829  0.2199  0.0808  0.1265
 3181TIP3    H133738   7.732   4.270  15.803  0.9596  0.0392 -1.2382
 3181TIP3    H233739   7.728   4.422  15.801  0.4065  0.0462 -0.3210
 3182TIP3   OH233740   1.719   0.873  17.325  0.1275 -0.0347  0.3856
 3182TIP3    H133741   1.682   0.870  17.413  0.8494  0.7679  0.7308
 3182TIP3    H233742   1.741   0.781  17.305 -1.2555 -0.4021  0.4952
 3183TIP3   OH233743   3.089   2.076  17.821  0.0752  0.2900  0.0090
 3183TIP3    H133744   3.010   2.120  17.849 -0.5493  0.1320 -1.3824
 3183TIP3    H233745   3.122   2.129  17.748  1.2051  0.3031  0.5070
 3184TIP3   OH233746   0.998   2.194  15.775 -0.0705  0.0070  0.0081
 3184TIP3    H133747   1.006   2.282  15.738 -0.7151 -0.3482 -0.9927
 3184TIP3    H233748   1.047   2.138  15.715  0.2604 -0.3464  0.5953
 3185TIP3   OH233749   4.444   3.651  16.150  0.1413  0.5622 -0.2654
 3185TIP3    H133750   4.439   3.644  16.245  0.2200  0.3325 -0.2782
 3185TIP3    H233751   4.353   3.663  16.122 -0.2287 -2.1027 -0.3837
 3186TIP3   OH233752   4.335   1.109  16.103  0.0918 -0.4053  0.1058
 3186TIP3    H133753   4.248   1.070  16.114 -0.0657 -0.4071 -0.9993
 3186TIP3    H233754   4.392   1.034  16.086  0.2151 -0.3586  0.3136
 3187TIP3   OH233755   6.554   4.604  17.067 -0.4142  0.4216 -0.1796
 3187TIP3    H133756   6.592   4.606  16.979 -0.0642 -2.3583 -0.1828
 3187TIP3    H233757   6.514   4.690  17.078  1.1006  1.4891 -2.3372
 3188TIP3   OH233758   7.923   1.555  17.380 -0.2533 -0.2487  0.5478
 3188TIP3    H133759   7.922   1.593  17.468  0.3729 -2.2359  1.4799
 3188TIP3    H233760   8.011   1.518  17.371 -0.5853 -0.8101 -0.5825
 3189TIP3   OH233761   5.368   2.613  17.913 -0.2331 -0.2150 -0.6591
 3189TIP3    H133762   5.318   2.567  17.847 -0.0360  0.1702 -1.0824
 3189TIP3    H233763   5.307   2.678  17.948 -1.0697 -1.8755  1.1495
 3190TIP3   OH233764   8.056   2.384  17.833  0.4168 -0.3919  0.2558
 3190TIP3    H133765   8.103   2.437  17.898  0.4379  0.0998 -0.1538
 3190TIP3    H233766   7.986   2.441  17.803 -0.3394 -1.0588  0.7322
 3191TIP3   OH233767   6.679   4.937  16.878 -0.1903 -0.8674  0.2050
 3191TIP3    H133768   6.594   4.910  16.915 -1.2686  2.0012  0.0695
 3191TIP3    H233769   6.657   5.005  16.815  2.1706 -0.8941 -0.7449
 3192TIP3   OH233770   1.756   2.370  16.614  0.1676 -0.2157  0.0354
 3192TIP3    H133771   1.832   2.392  16.667 -0.1341 -0.3245  0.5253
 3192TIP3    H233772   1.764   2.276  16.598  1.4613  0.2048 -2.0691
 3193TIP3   OH233773   6.925   6.457  16.423  0.2596  0.0145 -0.3638
 3193TIP3    H133774   6.911   6.439  16.330  2.3665 -0.0398 -0.7168
 3193TIP3    H233775   7.018   6.438  16.438 -0.1266 -0.4125  1.8621
 3194TIP3   OH233776   7.351   6.324  17.411  0.5819 -0.5361 -0.3536
 3194TIP3    H133777   7.439   6.335  17.375  0.1864  0.6930 -1.0253
 3194TIP3    H233778   7.293   6.335  17.335 -0.1726 -0.7009  0.1929
 3195TIP3   OH233779   5.048   8.289  17.492 -0.5073 -0.8041 -0.1884
 3195TIP3    H133780   4.975   8.341  17.525 -1.2153 -2.3474  0.8032
 3195TIP3    H233781   5.126   8.333  17.526 -1.0489 -0.0401  0.0960
 3196TIP3   OH233782   0.455   5.869  15.846  0.9342 -0.1443  0.2606
 3196TIP3    H133783   0.501   5.842  15.926  1.8611  0.9044  0.1131
 3196TIP3    H233784   0.508   5.832  15.775  2.6756  2.5296  0.0257
 3197TIP3   OH233785   7.103   2.486  17.954  0.4844 -0.4018  0.3177
 3197TIP3    H133786   7.062   2.572  17.946  1.5717  0.2571  1.4283
 3197TIP3    H233787   7.030   2.424  17.955 -0.3324  0.5354 -0.0855
 3198TIP3   OH233788   6.662   0.551  17.123 -0.5562  0.2133  0.4969
 3198TIP3    H133789   6.712   0.490  17.070 -1.1528  0.9718 -0.9946
 3198TIP3    H233790   6.593   0.497  17.163 -1.1012 -0.1207 -0.8329
 3199TIP3   OH233791   7.321   6.955  16.126  0.0484 -0.0180  0.0345
 3199TIP3    H133792   7.390   6.937  16.190  0.3547 -1.6619 -0.7085
 3199TIP3    H233793   7.240   6.954  16.177  0.4278  0.4357  0.6622
 3200TIP3   OH233794   0.084   8.054  16.370 -0.2496 -0.5745  0.6861
 3200TIP3    H133795   0.011   8.106  16.404  1.1001  0.9262  1.4507
 3200TIP3    H233796   0.143   8.119  16.332  1.0142 -1.6575  0.7322
 3201TIP3   OH233797   5.797   5.292  17.088 -0.0075  0.3960 -0.1770
 3201TIP3    H133798   5.873   5.314  17.143 -0.9086  2.0384  0.4854
 3201TIP3    H233799   5.831   5.291  16.999  1.0928 -0.4305  0.2313
 3202TIP3   OH233800   6.913   0.106  17.052  0.3987  1.1504  0.1429
 3202TIP3    H133801   6.852   0.053  17.000  2.1046  0.1077 -0.9100
 3202TIP3    H233802   6.882   0.098  17.142 -0.6871  0.2070 -0.2960
 3203TIP3   OH233803   6.117   7.078  17.141 -0.4512 -0.5987  0.0853
 3203TIP3    H133804   6.145   7.049  17.228 -1.7856 -2.2495  0.0172
 3203TIP3    H233805   6.179   7.148  17.118  1.5066 -1.8339  1.2836
 3204TIP3   OH233806   4.876   0.865  17.875 -0.7014  0.2493 -0.4139
 3204TIP3    H133807   4.791   0.884  17.835 -1.3094 -1.8004 -0.2374
 3204TIP3    H233808   4.854   0.823  17.958  0.4833 -0.0765 -0.2470
 3205TIP3   OH233809   5.180   8.273  16.279  0.1749  0.2218  0.3167
 3205TIP3    H133810   5.171   8.306  16.190 -2.3433 -1.0642 -0.0008
 3205TIP3    H233811   5.231   8.193  16.270 -0.5752 -0.2216 -0.0916
 3206TIP3   OH233812   6.533   6.833  16.804 -0.9567 -0.0077  0.2870
 3206TIP3    H133813   6.493   6.917  16.781 -0.8722 -0.0668 -0.0824
 3206TIP3    H233814   6.496   6.771  16.741  0.7786  0.2017 -1.0173
 3207TIP3   OH233815   4.905   2.638  16.738  0.4285  0.3265 -0.0296
 3207TIP3    H133816   4.828   2.695  16.729  1.7681  2.0275 -1.4301
 3207TIP3    H233817   4.976   2.698  16.760  1.7197 -0.9297 -0.6485
 3208TIP3   OH233818   7.974   5.822  16.499 -0.5473  0.3907  0.3665
 3208TIP3    H133819   8.048   5.779  16.543  0.2691  0.7965 -0.5684
 3208TIP3    H233820   8.015   5.884  16.439 -1.5912 -0.7444 -1.6042
 3209TIP3   OH233821   2.102   6.588  15.826  0.1488  0.2982 -0.0816
 3209TIP3    H133822   2.112   6.596  15.731  1.1119  1.7501  0.1182
 3209TIP3    H233823   2.106   6.494  15.842  1.7233  0.1074 -1.3105
 3210TIP3   OH233824   5.269   3.463  16.879 -0.4030 -0.9049  0.3224
 3210TIP3    H133825   5.289   3.371  16.863 -1.0325 -0.8799 -0.7167
 3210TIP3    H233826   5.300   3.479  16.968  2.1247 -1.4164 -0.3870
 3211TIP3   OH233827   2.131   7.893  16.613  0.1896 -0.3503  0.0033
 3211TIP3    H133828   2.118   7.985  16.635  0.3003 -0.6033  1.2027
 3211TIP3    H233829   2.188   7.860  16.683 -0.1279 -1.4121 -0.2249
 3212TIP3   OH233830   7.758   1.367  17.507  0.1079 -0.2882  0.1722
 3212TIP3    H133831   7.791   1.284  17.473 -1.6796 -0.6752 -0.7722
 3212TIP3    H233832   7.835   1.412  17.540  1.0451 -2.6003  1.3403
 3213TIP3   OH233833   5.727   4.639  17.270 -0.4979 -0.2949 -0.0158
 3213TIP3    H133834   5.757   4.727  17.249  1.4180 -0.2418  2.4355
 3213TIP3    H233835   5.644   4.652  17.316  0.4102  0.4125  1.5069
 3214TIP3   OH233836   4.446   0.502  15.944 -0.0318 -0.0019 -0.1644
 3214TIP3    H133837   4.365   0.451  15.949  0.3595 -0.5620  0.8654
 3214TIP3    H233838   4.505   0.447  15.893  0.1001 -0.1713  0.1684
 3215TIP3   OH233839   3.828   0.019  17.152 -0.4185  0.7421 -0.1461
 3215TIP3    H133840   3.817  -0.075  17.134  2.3337  0.7256 -2.3793
 3215TIP3    H233841   3.806   0.062  17.069 -0.1541  1.9507  0.3920
 3216TIP3   OH233842   6.775   6.168  17.500  0.1489  0.1042  0.5675
 3216TIP3    H133843   6.788   6.245  17.445  0.9047  0.0959  0.7272
 3216TIP3    H233844   6.744   6.203  17.583 -1.9584  0.0557 -0.1348
 3217TIP3   OH233845   1.134   0.433  16.360 -0.4987  1.2451  0.1502
 3217TIP3    H133846   1.109   0.343  16.337 -0.3264  0.7382  1.8404
 3217TIP3    H233847   1.078   0.455  16.435 -1.4290  3.0288 -0.9855
 3218TIP3   OH233848   0.817   4.404  16.875 -0.1006 -0.1198  0.1094
 3218TIP3    H133849   0.776   4.480  16.916 -2.3510 -0.7955 -0.7312
 3218TIP3    H233850   0.873   4.440  16.806 -2.1626  0.8103 -1.1725
 3219TIP3   OH233851   7.526   7.144  16.442  0.5712  0.1786  0.3703
 3219TIP3    H133852   7.575   7.064  16.460 -1.4653 -1.3393 -0.5260
 3219TIP3    H233853   7.539   7.159  16.348 -0.7373 -0.3162  0.0971
 3220TIP3   OH233854   1.590   3.989  16.985  0.0928 -0.2668 -0.3836
 3220TIP3    H133855   1.676   4.026  16.964  0.4890 -2.2653 -2.7153
 3220TIP3    H233856   1.530   4.062  16.975  1.4986  1.2840  1.7224
 3221TIP3   OH233857   3.837   8.145  16.463 -0.0921  0.0280 -0.0550
 3221TIP3    H133858   3.808   8.186  16.382  0.6464  1.1511  0.2271
 3221TIP3    H233859   3.757   8.126  16.511 -0.4601  2.7405  0.5650
 3222TIP3   OH233860   5.596   0.912  17.529  0.9011  0.1065 -1.0114
 3222TIP3    H133861   5.588   0.849  17.600  3.2998  1.0734  0.2176
 3222TIP3    H233862   5.611   0.858  17.451  0.3922 -0.8813 -0.4451
 3223TIP3   OH233863   6.109   0.656  16.760  0.6882  0.3958  0.1208
 3223TIP3    H133864   6.026   0.609  16.764 -0.3184  2.0223 -0.3691
 3223TIP3    H233865   6.152   0.623  16.682  1.2625 -1.5646  1.1896
 3224TIP3   OH233866   1.467   4.666  17.626  0.5308  0.4166  0.3773
 3224TIP3    H133867   1.470   4.627  17.539  1.3591  0.9997  0.1364
 3224TIP3    H233868   1.381   4.708  17.630  0.5520  0.5306 -0.2235
 3225TIP3   OH233869   0.365   2.047  16.944 -0.9261 -0.5684  0.0092
 3225TIP3    H133870   0.413   2.054  17.026  0.7580 -2.0451 -0.7720
 3225TIP3    H233871   0.305   2.122  16.944  0.3614  0.5347  1.7088
 3226TIP3   OH233872   1.461   5.653  17.522 -0.2752 -0.0435 -0.1547
 3226TIP3    H133873   1.456   5.741  17.487  0.1562 -0.5539 -1.5678
 3226TIP3    H233874   1.549   5.647  17.561 -0.2220  0.0698 -0.2588
 3227TIP3   OH233875   7.676   0.626  15.871  0.5088 -0.1955 -0.0782
 3227TIP3    H133876   7.662   0.718  15.848 -1.3794 -0.5657 -0.5438
 3227TIP3    H233877   7.603   0.604  15.928  0.9285 -1.4189  0.0093
 3228TIP3   OH233878   8.125   1.739  16.285 -0.0596  0.2500  0.1704
 3228TIP3    H133879   8.044   1.778  16.317 -0.2866  0.2170 -0.3504
 3228TIP3    H233880   8.119   1.746  16.189  0.9170  0.9948  0.1418
 3229TIP3   OH233881   8.246   6.881  16.202 -0.4967 -0.0976 -0.0953
 3229TIP3    H133882   8.282   6.799  16.236  1.5011  0.0859 -1.6177
 3229TIP3    H233883   8.206   6.857  16.119  2.1789  0.7324 -1.7448
 3230TIP3   OH233884   4.554   2.689  17.817  0.0651 -0.2531  0.7193
 3230TIP3    H133885   4.612   2.634  17.871 -1.1146 -1.4683  0.8078
 3230TIP3    H233886   4.545   2.641  17.735  0.2971  0.6215  0.1828
 3231TIP3   OH233887   4.982   0.649  17.713 -0.4243  0.2023 -0.1264
 3231TIP3    H133888   4.961   0.737  17.746 -1.5731  0.0993 -0.5362
 3231TIP3    H233889   5.039   0.666  17.638 -0.4292  0.5913 -0.0485
 3232TIP3   OH233890   7.310   6.273  15.801 -0.4280  0.6873 -0.1398
 3232TIP3    H133891   7.218   6.272  15.826 -0.4559  0.5843 -0.2478
 3232TIP3    H233892   7.329   6.366  15.784 -1.3099  0.4504 -3.0358
 3233TIP3   OH233893   6.176   5.366  16.812  0.1709  0.1632 -0.3134
 3233TIP3    H133894   6.154   5.458  16.831  1.2386  0.9250 -2.4095
 3233TIP3    H233895   6.096   5.318  16.831 -0.0903  1.3277  1.9358
 3234TIP3   OH233896   6.317   6.740  15.711  0.0152  0.5658  0.2947
 3234TIP3    H133897   6.381   6.746  15.782  0.4812  2.7502 -0.2352
 3234TIP3    H233898   6.277   6.827  15.708  1.0541  1.0608 -3.0118
 3235TIP3   OH233899   6.683   6.538  16.789 -0.2666 -0.4944  0.6141
 3235TIP3    H133900   6.714   6.610  16.843  1.6555 -0.1415 -0.8424
 3235TIP3    H233901   6.732   6.547  16.707 -1.6924 -2.0920 -0.4856
 3236TIP3   OH233902   0.268   1.652  17.913  0.3093 -0.1319  0.2071
 3236TIP3    H133903   0.269   1.558  17.930 -0.0337 -0.0518  0.6922
 3236TIP3    H233904   0.176   1.673  17.903  0.3680  0.1991  0.3615
 3237TIP3   OH233905   8.198   0.038  17.310  0.5753  0.3106  0.0746
 3237TIP3    H133906   8.121  -0.018  17.299  0.9343 -0.1138 -0.3131
 3237TIP3    H233907   8.248  -0.004  17.380 -0.2621  1.4018  1.3852
 3238TIP3   OH233908   3.624   5.360  15.870  0.5424  0.4018 -0.3758
 3238TIP3    H133909   3.664   5.439  15.834 -0.7089  0.7933 -0.9570
 3238TIP3    H233910   3.691   5.293  15.861  1.6768  1.4178  0.2470
 3239TIP3   OH233911   7.036   4.781  16.443  0.5745  0.5140 -0.0620
 3239TIP3    H133912   7.060   4.757  16.353  1.5722  2.1340 -0.2628
 3239TIP3    H233913   6.942   4.768  16.447  0.4672  0.7562 -1.4579
 3240TIP3   OH233914   6.208   2.140  17.173 -0.2260 -0.5314 -0.2987
 3240TIP3    H133915   6.193   2.056  17.216  0.3736 -0.3269  0.3329
 3240TIP3    H233916   6.137   2.147  17.109 -0.8630 -1.0744  0.3190
 3241TIP3   OH233917   2.721   5.798  17.893 -0.1548 -0.3315  0.3083
 3241TIP3    H133918   2.701   5.862  17.961  0.0295  0.1055 -0.0409
 3241TIP3    H233919   2.782   5.737  17.934 -0.2673 -0.2313  0.6215
 3242TIP3   OH233920   0.810   2.863  16.097  0.0087 -0.7215 -0.6143
 3242TIP3    H133921   0.753   2.938  16.110 -1.3789 -1.9151  0.6172
 3242TIP3    H233922   0.751   2.789  16.087  1.2644 -2.2157  1.9805
 3243TIP3   OH233923   3.985   7.526  15.943 -0.6747 -0.1540 -0.1563
 3243TIP3    H133924   3.989   7.449  15.999  0.0475 -1.3322 -1.7310
 3243TIP3    H233925   4.010   7.599  16.000 -0.7873 -1.1565  1.2260
 3244TIP3   OH233926   8.133   2.894  17.562  0.2331 -0.4574  0.2698
 3244TIP3    H133927   8.162   2.980  17.532 -2.5431  0.1397 -1.0742
 3244TIP3    H233928   8.065   2.912  17.626  1.5010 -1.7438  2.0715
 3245TIP3   OH233929   8.051   8.411  16.714  0.3215  0.5805 -0.1551
 3245TIP3    H133930   8.021   8.381  16.800  1.3212  1.4020  0.5026
 3245TIP3    H233931   8.025   8.342  16.654 -1.1314  0.3686  0.6780
 3246TIP3   OH233932   4.415   4.108  16.639  0.1093  0.3623 -0.4029
 3246TIP3    H133933   4.387   4.159  16.563 -0.3787  0.5578 -0.0975
 3246TIP3    H233934   4.488   4.158  16.676 -0.7192  1.1587  0.2199
 3247TIP3   OH233935   3.708   5.872  17.012 -0.7219  0.1387 -0.2745
 3247TIP3    H133936   3.638   5.880  17.076 -0.6252 -0.5828 -0.0679
 3247TIP3    H233937   3.788   5.871  17.064 -0.3482  3.3069 -0.6368
 3248TIP3   OH233938   7.830   0.935  16.590 -0.1735 -0.1419  0.1755
 3248TIP3    H133939   7.813   0.840  16.587 -2.0173  0.1789 -0.6891
 3248TIP3    H233940   7.754   0.971  16.636  0.2885  0.9735  0.0828
 3249TIP3   OH233941   2.883   2.562  17.594  0.2104  0.2109  0.9889
 3249TIP3    H133942   2.869   2.518  17.678 -1.9009 -0.5290  0.2869
 3249TIP3    H233943   2.796   2.588  17.565  1.0255  1.5490 -0.4270
 3250TIP3   OH233944   4.870   6.746  15.896 -0.1535 -0.3283 -0.2883
 3250TIP3    H133945   4.844   6.729  15.805  1.8365 -0.1290 -0.9431
 3250TIP3    H233946   4.865   6.841  15.905  0.2412 -0.2972 -0.3873
 3251TIP3   OH233947   1.878   3.626  17.285  0.3552  0.0735  0.0899
 3251TIP3    H133948   1.819   3.664  17.350 -0.0853  1.1148 -0.8872
 3251TIP3    H233949   1.965   3.641  17.320  0.0860 -0.3328  0.9436
 3252TIP3   OH233950   2.911   2.190  16.674 -0.3012 -0.1731 -0.0184
 3252TIP3    H133951   2.828   2.165  16.632  0.1131 -0.0792 -0.9259
 3252TIP3    H233952   2.888   2.263  16.731 -0.2410  2.6309 -3.2775
 3253TIP3   OH233953   0.737   8.391  15.737 -0.1428 -0.2215 -0.2662
 3253TIP3    H133954   0.670   8.362  15.798  1.7338 -0.5782  1.7609
 3253TIP3    H233955   0.772   8.471  15.776 -0.6154  1.0350 -2.2687
 3254TIP3   OH233956   5.798   3.962  17.848 -0.2037 -0.2338  0.1472
 3254TIP3    H133957   5.745   4.001  17.779 -1.2240 -0.1079  0.9843
 3254TIP3    H233958   5.884   4.005  17.839 -0.6267  0.5292 -0.3740
 3255TIP3   OH233959   1.557   2.851  16.442  0.2380 -0.5837 -0.1830
 3255TIP3    H133960   1.519   2.837  16.355 -2.9349 -0.4271  1.0422
 3255TIP3    H233961   1.568   2.762  16.477  0.6659 -0.6126 -0.3781
 3256TIP3   OH233962   7.111   7.487  15.897  0.2863 -0.4112 -0.1663
 3256TIP3    H133963   7.131   7.420  15.832  0.2492 -1.4264  0.8344
 3256TIP3    H233964   7.188   7.545  15.896  0.2459 -0.3525 -1.1503
 3257TIP3   OH233965   4.542   7.169  17.393  0.0413 -0.0836  0.0455
 3257TIP3    H133966   4.547   7.252  17.440  1.1773 -0.7384  1.1522
 3257TIP3    H233967   4.607   7.177  17.323 -0.6617  0.3719 -0.5663
 3258TIP3   OH233968   1.542   5.720  16.877 -0.2087 -0.9744  0.1243
 3258TIP3    H133969   1.556   5.746  16.968  1.5456  0.5303 -0.5142
 3258TIP3    H233970   1.583   5.634  16.871  0.9351 -0.4690  0.4412
 3259TIP3   OH233971   3.567   5.549  16.850  0.0241  0.7011 -0.5396
 3259TIP3    H133972   3.495   5.549  16.914  0.7438  0.1002  0.2888
 3259TIP3    H233973   3.629   5.485  16.884  1.6443  2.2472 -0.4786
 3260TIP3   OH233974   2.308   6.490  18.027  0.0054 -0.1364 -0.6556
 3260TIP3    H133975   2.219   6.465  18.002 -0.6265  0.6028  0.7250
 3260TIP3    H233976   2.345   6.410  18.066 -0.5434 -0.0961 -0.0247
 3261TIP3   OH233977   4.113   1.416  17.985 -0.5194  0.3020  0.3020
 3261TIP3    H133978   4.063   1.385  17.910  0.7931 -0.2973 -0.3439
 3261TIP3    H233979   4.177   1.347  18.002 -0.0209  0.9669  1.2377
 3262TIP3   OH233980   1.989   5.762  17.358  0.2967  0.4255  0.4635
 3262TIP3    H133981   1.958   5.747  17.447 -0.0798 -0.3003  0.2176
 3262TIP3    H233982   2.079   5.794  17.370 -0.8011  3.4918  1.2133
 3263TIP3   OH233983   0.345   0.296  18.064  0.3415 -0.3180 -0.5668
 3263TIP3    H133984   0.375   0.228  18.003  2.2914 -0.3775  0.3870
 3263TIP3    H233985   0.388   0.376  18.032 -0.7764  0.1990 -0.8180
 3264TIP3   OH233986   4.442   5.913  16.800 -0.1867 -0.4212  0.3961
 3264TIP3    H133987   4.458   5.837  16.856  3.2549 -0.0840  0.0705
 3264TIP3    H233988   4.479   5.986  16.848  0.2379  0.3560 -1.0728
 3265TIP3   OH233989   0.359   1.403  17.404 -0.0698 -0.3148  0.5560
 3265TIP3    H133990   0.335   1.478  17.350  0.7431 -0.4728 -0.0561
 3265TIP3    H233991   0.455   1.398  17.397 -0.0864 -1.2410  0.8058
 3266TIP3   OH233992   0.733   7.838  16.827  0.7482  0.5965  0.2598
 3266TIP3    H133993   0.817   7.876  16.801  1.4048 -0.3604  0.9023
 3266TIP3    H233994   0.697   7.899  16.891  1.0312  0.9286  0.1033
 3267TIP3   OH233995   6.654   1.491  17.310  0.2687  0.1119 -0.3930
 3267TIP3    H133996   6.705   1.557  17.264  0.3275 -0.6920 -1.5284
 3267TIP3    H233997   6.677   1.408  17.268 -1.8572 -0.3025 -0.8727
 3268TIP3   OH233998   3.108   3.417  16.114  0.0585 -0.0468 -0.2159
 3268TIP3    H133999   3.084   3.508  16.095 -0.9402  0.3078  2.3749
 3268TIP3    H234000   3.082   3.369  16.035  1.1242  1.9329 -1.8827
 3269TIP3   OH234001   2.139   5.450  16.467  0.0479  0.0726 -0.2379
 3269TIP3    H134002   2.222   5.445  16.420 -0.5669 -2.8886 -1.2566
 3269TIP3    H234003   2.160   5.491  16.551  1.8998  2.0876 -1.5942
 3270TIP3   OH234004   3.476   6.456  16.907  0.2079 -0.3166 -0.2354
 3270TIP3    H134005   3.566   6.441  16.935  0.0871 -0.6129  0.0002
 3270TIP3    H234006   3.484   6.512  16.830  0.6413 -1.1092 -0.7756
 3271TIP3   OH234007   0.954   7.660  16.786  0.4924 -0.4363  0.0262
 3271TIP3    H134008   0.987   7.583  16.832  0.1874  0.6308  2.1501
 3271TIP3    H234009   0.859   7.648  16.785  0.5900 -1.5239 -2.4209
 3272TIP3   OH234010   5.098   6.473  15.740 -0.3523 -0.1725 -0.5505
 3272TIP3    H134011   5.076   6.383  15.718  0.5684 -0.5390 -0.0022
 3272TIP3    H234012   5.184   6.468  15.780 -0.8969  0.7728  0.7988
 3273TIP3   OH234013   7.135   0.325  16.192  0.4573  0.4351  0.0504
 3273TIP3    H134014   7.117   0.342  16.099 -1.6284  1.8421  0.6463
 3273TIP3    H234015   7.171   0.237  16.193  0.0821  0.1944 -2.0578
 3274TIP3   OH234016   3.331   8.123  17.541 -0.5758 -0.1922  0.0981
 3274TIP3    H134017   3.420   8.152  17.518 -0.8454  2.2571  1.8087
 3274TIP3    H234018   3.284   8.124  17.457  0.9747 -1.5761 -0.8447
 3275TIP3   OH234019   5.907   2.112  16.468  0.4296  0.2134 -0.5718
 3275TIP3    H134020   5.913   2.130  16.375 -0.9800  2.7018 -0.2541
 3275TIP3    H234021   5.982   2.158  16.507 -0.1092  0.8682 -0.2930
 3276TIP3   OH234022   6.511   1.361  15.879  0.2587 -0.2760  0.2386
 3276TIP3    H134023   6.415   1.354  15.875  0.1704  0.3332  1.0156
 3276TIP3    H234024   6.534   1.324  15.964  0.6186  0.4551  0.4676
 3277TIP3   OH234025   7.891   1.203  16.706 -0.1832  0.1040 -0.0267
 3277TIP3    H134026   7.922   1.119  16.673  0.3901  0.4582 -0.4174
 3277TIP3    H234027   7.970   1.257  16.712 -0.8741  1.6006 -2.6911
 3278TIP3   OH234028   7.372   5.879  18.106 -0.1006 -0.1440 -0.2800
 3278TIP3    H134029   7.385   5.968  18.139  0.7711  1.1529 -3.6841
 3278TIP3    H234030   7.453   5.859  18.059 -0.7203 -2.3124 -0.5138
 3279TIP3   OH234031   4.935   1.177  16.849  0.0466 -0.1412  0.2778
 3279TIP3    H134032   4.995   1.109  16.817 -0.4747 -0.8915  0.8626
 3279TIP3    H234033   4.945   1.174  16.944 -0.5631  0.0622  0.3484
 3280TIP3   OH234034   2.137   5.854  17.125  0.0777  0.9257 -0.0269
 3280TIP3    H134035   2.198   5.864  17.198 -1.1601  0.8286  1.0518
 3280TIP3    H234036   2.051   5.866  17.164 -1.0066 -3.6790 -0.4882
 3281TIP3   OH234037   6.906   1.842  16.267 -0.1523 -0.4947  0.2602
 3281TIP3    H134038   6.970   1.771  16.277 -0.0707 -0.5100 -0.3205
 3281TIP3    H234039   6.834   1.819  16.325  0.3737 -0.4737  0.9288
 3282TIP3   OH234040   1.785   7.171  17.447  0.7902  0.3062 -0.1424
 3282TIP3    H134041   1.738   7.254  17.446  0.2540  0.0128 -1.5368
 3282TIP3    H234042   1.861   7.187  17.503  1.5542  2.2170 -1.6473
 3283TIP3   OH234043   2.155   5.886  16.850 -0.2490 -0.1339 -0.0035
 3283TIP3    H134044   2.246   5.906  16.832 -0.4647  0.4102 -0.5353
 3283TIP3    H234045   2.152   5.867  16.944  0.5796 -1.1643 -0.1714
 3284TIP3   OH234046   0.359   0.199  17.609  0.1109 -0.4414 -0.0371
 3284TIP3    H134047   0.273   0.164  17.587  0.0320 -0.2972  0.0370
 3284TIP3    H234048   0.370   0.273  17.549 -0.4500  0.4553  0.9252
 3285TIP3   OH234049   8.231   3.072  17.041 -0.1286  0.4931 -0.5922
 3285TIP3    H134050   8.197   3.153  17.080 -1.0626  0.4269 -1.2324
 3285TIP3    H234051   8.210   3.004  17.105 -2.6724  0.2064 -1.6198
 3286TIP3   OH234052   6.101   0.843  16.945  0.4015  0.4850 -0.1165
 3286TIP3    H134053   6.013   0.831  16.981 -0.0316  1.7568 -0.7093
 3286TIP3    H234054   6.106   0.780  16.874 -0.2516  0.7930 -0.4460
 3287TIP3   OH234055   6.672   4.183  16.626  0.2733  0.4713 -0.1412
 3287TIP3    H134056   6.624   4.134  16.559 -0.1311  0.4687  0.1481
 3287TIP3    H234057   6.764   4.167  16.606  0.1587  0.8145 -0.9490
 3288TIP3   OH234058   3.186   5.324  16.300  0.2701  0.3185 -0.2251
 3288TIP3    H134059   3.094   5.332  16.275  0.6397  0.1650 -1.7809
 3288TIP3    H234060   3.191   5.244  16.352 -0.5366  0.5567  0.2271
 3289TIP3   OH234061   0.898   5.314  16.991 -0.0059 -0.2955  0.4261
 3289TIP3    H134062   0.824   5.373  17.002  0.8011  0.8615 -0.1041
 3289TIP3    H234063   0.967   5.369  16.954  0.6858 -1.6488 -0.3751
 3290TIP3   OH234064   8.273   4.808  15.784  0.4769  0.0228 -0.0238
 3290TIP3    H134065   8.188   4.769  15.763  0.2385  0.1303  0.7004
 3290TIP3    H234066   8.279   4.802  15.880  0.9701  0.6597 -0.0057
 3291TIP3   OH234067   6.227   1.289  15.911 -0.2609  0.7401  0.1467
 3291TIP3    H134068   6.145   1.293  15.862 -0.5090  1.4628  0.6130
 3291TIP3    H234069   6.243   1.195  15.924 -0.6275  0.5698 -0.5753
 3292TIP3   OH234070   3.283   0.286  15.269 -0.4442 -0.0474  0.4843
 3292TIP3    H134071   3.373   0.256  15.264  0.1067  1.5191  0.3347
 3292TIP3    H234072   3.290   0.379  15.290 -2.0456 -0.0355  1.0929
 3293TIP3   OH234073   8.417   6.822  17.542  0.3075 -0.2202 -0.5846
 3293TIP3    H134074   8.380   6.798  17.627  0.9914 -2.1689 -0.7705
 3293TIP3    H234075   8.342   6.853  17.491 -0.1384  0.8019  0.6611
 3294TIP3   OH234076   6.404   2.555  17.473 -0.2702  0.6340  0.0554
 3294TIP3    H134077   6.381   2.557  17.565  0.1832 -2.3028  0.3390
 3294TIP3    H234078   6.354   2.481  17.437  0.8285  0.6446 -1.6445
 3295TIP3   OH234079   3.236   4.260  16.318  0.3171  0.1672  0.3995
 3295TIP3    H134080   3.215   4.326  16.252 -1.1838 -0.5045  0.1533
 3295TIP3    H234081   3.151   4.236  16.355  0.3985 -3.4941 -1.3234
 3296TIP3   OH234082   0.264   8.283  17.596 -0.1092  0.2919  0.2713
 3296TIP3    H134083   0.308   8.256  17.677 -1.2944 -0.9596  0.5389
 3296TIP3    H234084   0.319   8.354  17.561  1.2064 -0.1164  1.4123
 3297TIP3   OH234085   6.629   5.740  16.879  0.2949 -0.2341 -0.0280
 3297TIP3    H134086   6.643   5.832  16.902  1.0425 -0.5415  0.7931
 3297TIP3    H234087   6.714   5.699  16.893  0.2701 -0.8456 -1.4617
 3298TIP3   OH234088   2.383   1.783  16.222 -0.0885 -0.4915  0.2286
 3298TIP3    H134089   2.439   1.759  16.295  0.0574  0.6205  0.5052
 3298TIP3    H234090   2.376   1.704  16.169  1.2866 -0.7955  0.4794
 3299TIP3   OH234091   1.090   1.814  17.103  0.6259  0.3281  0.1758
 3299TIP3    H134092   1.164   1.825  17.163  0.5052 -3.0315  1.1278
 3299TIP3    H234093   1.012   1.822  17.159  0.4203 -0.1461 -0.0376
 3300TIP3   OH234094   5.154   5.245  16.486 -0.3536 -0.2832  0.4986
 3300TIP3    H134095   5.112   5.160  16.495 -0.9863  0.1948  2.7677
 3300TIP3    H234096   5.118   5.280  16.404 -1.7344 -1.3325  0.6049
 3301TIP3   OH234097   5.662   7.583  16.674  0.0596 -0.1420  0.0513
 3301TIP3    H134098   5.752   7.550  16.666  0.2076 -0.5708  2.6500
 3301TIP3    H234099   5.608   7.504  16.681 -0.2600  0.1074  0.4955
 3302TIP3   OH234100   0.056   3.061  17.041  0.0011 -0.1843  0.2429
 3302TIP3    H134101  -0.035   3.047  17.067  0.2507 -0.9142  0.7443
 3302TIP3    H234102   0.066   3.156  17.041 -1.4733  0.0802 -2.2951
 3303TIP3   OH234103   1.328   2.176  15.175  0.3213  0.1399  0.4775
 3303TIP3    H134104   1.414   2.139  15.198  0.6287 -1.3103 -2.5430
 3303TIP3    H234105   1.343   2.220  15.091 -2.0850 -1.0684 -0.6676
 3304TIP3   OH234106   0.179   2.246  16.926  0.5483 -0.6756 -0.1265
 3304TIP3    H134107   0.148   2.208  16.844  0.9251 -1.4473  0.0765
 3304TIP3    H234108   0.125   2.323  16.939  1.3434  0.1986 -1.7544
 3305TIP3   OH234109   1.239   6.442  16.531 -0.1408 -0.0352 -0.5345
 3305TIP3    H134110   1.326   6.472  16.557 -1.1026  1.4003  1.2409
 3305TIP3    H234111   1.254   6.356  16.491  2.1650  0.5557 -1.0750
 3306TIP3   OH234112   0.503   2.776  15.830  0.0422 -0.0674  0.2996
 3306TIP3    H134113   0.408   2.777  15.845 -0.0766 -0.1163 -0.4272
 3306TIP3    H234114   0.526   2.683  15.832  0.0369 -0.0697  0.2654
 3307TIP3   OH234115   6.162   3.042  15.849 -0.5920  0.1536 -0.1439
 3307TIP3    H134116   6.106   2.986  15.902 -0.3263 -0.1133 -0.1419
 3307TIP3    H234117   6.206   2.982  15.789  1.4465  0.0103  1.3612
 3308TIP3   OH234118   0.852   7.606  16.115 -0.2796  0.4129  0.2261
 3308TIP3    H134119   0.869   7.611  16.021  1.9733 -0.0272  0.5443
 3308TIP3    H234120   0.798   7.528  16.126  3.7111 -2.7434 -0.3333
 3309TIP3   OH234121   7.672   2.418  17.322 -0.0008  0.0507 -0.0841
 3309TIP3    H134122   7.722   2.493  17.290 -1.5202  0.4441 -1.7173
 3309TIP3    H234123   7.633   2.448  17.404  0.4047  0.6191 -0.0944
 3310TIP3   OH234124   4.391   1.879  15.913 -0.0366 -0.1182 -0.4914
 3310TIP3    H134125   4.367   1.787  15.902  2.8258 -1.1494  0.9246
 3310TIP3    H234126   4.480   1.885  15.879 -0.1153  2.1336 -0.4706
 3311TIP3   OH234127   5.179   0.340  16.516  0.1708 -0.4697  0.4682
 3311TIP3    H134128   5.194   0.416  16.571 -1.0104  1.3235 -1.5291
 3311TIP3    H234129   5.258   0.331  16.464 -1.1041  1.9765 -2.1051
 3312TIP3   OH234130   7.872   0.587  17.477  0.2821 -0.1277  0.4289
 3312TIP3    H134131   7.836   0.588  17.388 -0.1540 -0.2703  0.6041
 3312TIP3    H234132   7.900   0.677  17.493 -0.5747  0.1338  0.5257
 3313TIP3   OH234133   0.900   2.207  15.489  0.4727 -0.3690 -0.8041
 3313TIP3    H134134   0.958   2.204  15.414 -0.5838  0.8279 -1.7176
 3313TIP3    H234135   0.919   2.291  15.531  1.0500 -1.0218  0.2890
 3314TIP3   OH234136   0.911   1.331  16.533  0.1383 -0.0047  0.3222
 3314TIP3    H134137   0.995   1.333  16.487 -0.1949  0.5089 -0.2914
 3314TIP3    H234138   0.846   1.334  16.463 -0.3895 -0.3990  0.7924
 3315TIP3   OH234139   1.765   7.478  17.095 -0.0180 -0.2832 -0.0480
 3315TIP3    H134140   1.729   7.396  17.128  0.4170 -0.2021  0.6528
 3315TIP3    H234141   1.860   7.466  17.100  0.0528  0.4792  0.6471
 3316TIP3   OH234142   2.504   7.510  16.527  0.4617  0.0028  0.3449
 3316TIP3    H134143   2.575   7.573  16.538 -0.0457  0.4319  1.2996
 3316TIP3    H234144   2.527   7.461  16.448  1.4664  0.5891  0.2580
 3317TIP3   OH234145   0.645   0.856  16.296 -1.0437  0.0742  0.7332
 3317TIP3    H134146   0.615   0.903  16.374 -0.4010  0.8920  0.4934
 3317TIP3    H234147   0.695   0.920  16.247 -1.4242 -0.4358 -0.3579
 3318TIP3   OH234148   0.294   0.745  16.295 -0.0987  0.1712  0.0507
 3318TIP3    H134149   0.359   0.723  16.229 -0.1691  0.9466 -0.2901
 3318TIP3    H234150   0.265   0.661  16.329  0.2670 -0.2214 -0.5860
 3319TIP3   OH234151   0.342   1.332  16.298  0.4605 -0.3347 -1.0184
 3319TIP3    H134152   0.385   1.335  16.213 -1.8272  1.7243 -2.2335
 3319TIP3    H234153   0.294   1.414  16.304 -0.5102 -0.9881  1.7184
 3320TIP3   OH234154   4.384   1.571  15.560  0.3129  0.2582  0.0772
 3320TIP3    H134155   4.448   1.618  15.506 -0.3646  1.0394 -0.0658
 3320TIP3    H234156   4.396   1.607  15.648  1.3750 -0.9725  0.4706
 3321TIP3   OH234157   6.417   7.588  17.666 -0.5311 -0.5047 -0.5345
 3321TIP3    H134158   6.407   7.682  17.656 -0.3783 -0.4761 -0.4130
 3321TIP3    H234159   6.492   7.565  17.611  0.4389 -0.3177  0.6616
 3322TIP3   OH234160   7.316   5.695  17.519  0.2495 -0.2116 -0.1515
 3322TIP3    H134161   7.403   5.735  17.523 -0.2920  0.8926  1.5168
 3322TIP3    H234162   7.303   5.659  17.607 -0.8692 -0.6164 -0.4752
 3323TIP3   OH234163   3.874   6.683  16.714 -0.4016  0.9321 -0.5886
 3323TIP3    H134164   3.805   6.662  16.651  0.1598 -1.9725 -0.4039
 3323TIP3    H234165   3.953   6.696  16.661  0.0792 -1.5481 -0.5947
 3324TIP3   OH234166   8.207   0.488  17.185 -0.5138 -0.0244  0.1164
 3324TIP3    H134167   8.211   0.471  17.091 -0.8142 -1.6878  0.3888
 3324TIP3    H234168   8.270   0.427  17.223  0.4702  1.4244  0.9257
 3325TIP3   OH234169   4.761   2.527  17.947  0.6713  0.5826  0.1138
 3325TIP3    H134170   4.704   2.455  17.920 -0.5661  1.6363 -0.2010
 3325TIP3    H234171   4.846   2.486  17.964  0.5257 -0.6805 -1.8794
 3326TIP3   OH234172   0.192   7.264  16.194  0.2485 -0.0762 -0.1558
 3326TIP3    H134173   0.182   7.176  16.228 -0.6747  0.5699  1.3670
 3326TIP3    H234174   0.123   7.273  16.128  2.2048 -1.4232 -2.5274
 3327TIP3   OH234175   2.832   3.001  17.704  0.2350  0.4159 -0.1133
 3327TIP3    H134176   2.805   3.083  17.746  2.2231  1.0077  0.0692
 3327TIP3    H234177   2.820   2.934  17.772 -0.5673  0.6684  0.0064
 3328TIP3   OH234178   6.906   3.177  17.674  0.2880 -0.4768 -0.1152
 3328TIP3    H134179   6.857   3.251  17.638 -0.6802  0.3494  2.6383
 3328TIP3    H234180   6.993   3.212  17.691 -0.1670  0.0681  1.1758
 3329TIP3   OH234181   4.801   5.249  16.531  0.3099 -0.1607 -0.5391
 3329TIP3    H134182   4.794   5.153  16.530  2.1972 -0.3352 -0.1231
 3329TIP3    H234183   4.797   5.273  16.438  1.2660 -0.7999 -0.7688
 3330TIP3   OH234184   2.327   7.139  17.622  0.3241 -0.4018 -0.0913
 3330TIP3    H134185   2.349   7.046  17.630 -3.5663 -1.4353  0.2917
 3330TIP3    H234186   2.343   7.174  17.710  1.2795 -0.7916 -0.0884
 3331TIP3   OH234187   3.288   8.229  16.774  0.2034  0.3262 -0.6324
 3331TIP3    H134188   3.320   8.298  16.716 -0.9249  1.4415  0.0159
 3331TIP3    H234189   3.320   8.148  16.735  0.7417  1.1452 -1.9597
 3332TIP3   OH234190   0.557   3.977  16.841  0.0124 -0.1824 -0.2956
 3332TIP3    H134191   0.555   3.889  16.879  3.0702 -0.3901 -0.3380
 3332TIP3    H234192   0.539   3.963  16.748 -0.2337 -0.6504 -0.1846
 3333TIP3   OH234193   6.190   1.531  17.463 -0.0179 -0.1084 -0.1059
 3333TIP3    H134194   6.191   1.497  17.373 -1.1548  0.1736 -0.2390
 3333TIP3    H234195   6.246   1.470  17.512  2.7453  1.1406 -1.4694
 3334TIP3   OH234196   3.611   0.945  15.772  0.0582 -0.3233 -0.7919
 3334TIP3    H134197   3.696   0.925  15.732  0.3756  0.8985 -0.7567
 3334TIP3    H234198   3.547   0.901  15.716  0.5816  0.3678 -1.9674
 3335TIP3   OH234199   4.490   2.576  16.499 -0.3553 -0.6113  0.7072
 3335TIP3    H134200   4.549   2.647  16.524 -0.6935  0.1951 -0.6483
 3335TIP3    H234201   4.528   2.498  16.538  1.2959 -0.0306  0.3434
 3336TIP3   OH234202   7.347   3.322  16.521 -0.0221  0.5570  0.2880
 3336TIP3    H134203   7.271   3.332  16.579  0.6215  2.2626  0.8925
 3336TIP3    H234204   7.379   3.233  16.539 -1.4528  0.0495  0.5087
 3337TIP3   OH234205   5.563   7.650  17.360  0.0768 -0.3463  0.7130
 3337TIP3    H134206   5.650   7.688  17.366 -0.6847  2.0339 -1.6424
 3337TIP3    H234207   5.504   7.719  17.392 -1.1716 -0.3591 -1.3512
 3338TIP3   OH234208   7.800   0.114  16.677  0.2590 -0.2276 -0.3855
 3338TIP3    H134209   7.784   0.100  16.771 -1.5389 -0.2016 -0.6436
 3338TIP3    H234210   7.895   0.113  16.668  0.5010  0.7273  1.5788
 3339TIP3   OH234211   7.801   4.009  16.595 -0.2304 -0.0968 -0.0527
 3339TIP3    H134212   7.747   4.088  16.594 -2.3292 -1.4684 -0.4812
 3339TIP3    H234213   7.800   3.977  16.505 -0.3087 -1.1899  0.3176
 3340TIP3   OH234214   3.623   2.454  17.434 -0.2334 -0.5637 -0.0327
 3340TIP3    H134215   3.649   2.442  17.343  1.5689 -2.2884  0.6437
 3340TIP3    H234216   3.688   2.516  17.469 -0.9194  0.0951  0.1021
 3341TIP3   OH234217   1.097   3.075  16.787 -0.1454  0.3158  0.3827
 3341TIP3    H134218   1.046   2.995  16.788 -1.3606  1.0725  0.5313
 3341TIP3    H234219   1.162   3.064  16.857  0.9809 -1.3094 -0.8425
 3342TIP3   OH234220   7.983   2.890  15.925 -0.1355  0.0118  0.0017
 3342TIP3    H134221   8.008   2.807  15.885 -0.1339 -0.6121  1.2432
 3342TIP3    H234222   8.061   2.918  15.973 -0.3471  0.3917  0.1266
 3343TIP3   OH234223   4.948   2.530  17.340  1.0169  0.2918 -0.0773
 3343TIP3    H134224   4.960   2.528  17.435  0.1023 -0.9304  0.0349
 3343TIP3    H234225   4.976   2.444  17.311  0.2984  0.2879 -0.7786
 3344TIP3   OH234226   5.188   3.837  16.549 -0.1272  0.1044  0.2199
 3344TIP3    H134227   5.232   3.921  16.531 -0.6385  0.2427 -0.4150
 3344TIP3    H234228   5.233   3.803  16.626  1.0419  0.2960 -0.3503
 3345TIP3   OH234229   3.707   7.149  17.497 -0.0200  0.0784 -0.1277
 3345TIP3    H134230   3.662   7.227  17.531 -2.8237 -1.5131  0.1082
 3345TIP3    H234231   3.751   7.112  17.574 -0.6142  0.1948  0.2786
 3346TIP3   OH234232   3.262   5.897  16.147 -0.4225  0.1959  0.5417
 3346TIP3    H134233   3.187   5.925  16.200  1.1045  0.6228  2.5703
 3346TIP3    H234234   3.337   5.942  16.186  1.2252 -1.9101 -0.0320
 3347TIP3   OH234235   7.433   1.512  17.818 -0.0976  0.2498  0.1235
 3347TIP3    H134236   7.484   1.460  17.880  0.2070  0.4543  0.0479
 3347TIP3    H234237   7.499   1.564  17.772 -0.3670  0.4331 -0.0513
 3348TIP3   OH234238   1.857   4.039  17.348 -0.0512  0.3036 -0.2404
 3348TIP3    H134239   1.774   4.022  17.303  0.8840 -2.4446 -1.1002
 3348TIP3    H234240   1.924   4.019  17.282  1.3310  1.6132  0.7139
 3349TIP3   OH234241   0.636   2.442  17.147 -0.4841  0.4054  0.2028
 3349TIP3    H134242   0.696   2.516  17.141 -1.0470  0.8210 -0.4660
 3349TIP3    H234243   0.673   2.387  17.216  1.2009  0.1654 -0.8239
 3350TIP3   OH234244   7.495   2.277  17.953 -0.1671  0.0580  0.6175
 3350TIP3    H134245   7.435   2.264  18.026 -0.2319  0.9624  0.7414
 3350TIP3    H234246   7.560   2.208  17.962 -0.9022 -0.6216  0.7775
 3351TIP3   OH234247   6.912   8.388  17.985 -0.0907 -0.4712 -0.0199
 3351TIP3    H134248   6.974   8.316  17.995  1.2532  0.7441  0.7479
 3351TIP3    H234249   6.966   8.467  17.986 -1.5737  0.5911 -0.2324
 3352TIP3   OH234250   7.498   2.671  16.521  0.0872  0.1816 -0.0634
 3352TIP3    H134251   7.409   2.645  16.499 -0.1659 -1.4695  2.4732
 3352TIP3    H234252   7.492   2.764  16.543 -0.4910  0.6814 -2.0728
 3353TIP3   OH234253   2.172   5.295  17.284 -0.0050  0.0920  0.0325
 3353TIP3    H134254   2.183   5.294  17.189 -1.0322  1.6325 -0.1412
 3353TIP3    H234255   2.230   5.226  17.316 -0.4390 -1.1659 -1.7800
 3354TIP3   OH234256   3.192   3.959  16.754  0.2932  0.1374  0.3506
 3354TIP3    H134257   3.102   3.983  16.778  0.1660 -0.2827  0.3040
 3354TIP3    H234258   3.244   4.035  16.777 -0.4795  1.6732 -2.5214
 3355TIP3   OH234259   3.059   3.161  17.553  0.9465 -0.0831 -0.3841
 3355TIP3    H134260   2.994   3.215  17.599  2.5279  0.7410  0.9870
 3355TIP3    H234261   3.042   3.072  17.585 -1.0113 -0.3161 -1.8853
 3356TIP3   OH234262   7.417   7.046  16.877  0.5655 -0.4073  0.2619
 3356TIP3    H134263   7.383   7.095  16.952  0.1117 -0.5350  0.1391
 3356TIP3    H234264   7.470   7.110  16.829  1.8761 -0.6361  1.3470
 3357TIP3   OH234265   8.419   1.716  16.548  0.6366  0.2733  0.4407
 3357TIP3    H134266   8.420   1.702  16.642  0.6220 -0.6402  0.3098
 3357TIP3    H234267   8.387   1.634  16.511  2.5902 -0.1299 -0.4818
 3358TIP3   OH234268   2.406   5.711  16.456 -0.7817  0.2737  0.0829
 3358TIP3    H134269   2.354   5.790  16.470  1.6364  1.8157  0.8600
 3358TIP3    H234270   2.445   5.723  16.370  0.0505  0.2353  0.4423
 3359TIP3   OH234271   4.388   0.727  16.079 -0.3873  0.3718 -0.7281
 3359TIP3    H134272   4.413   0.660  16.015  0.3280  1.4150 -1.5640
 3359TIP3    H234273   4.457   0.792  16.075 -0.1053  0.2955  1.4234
 3360TIP3   OH234274   8.300   0.720  17.286  0.2364  0.0888  0.1104
 3360TIP3    H134275   8.342   0.669  17.355 -0.4175 -0.6145 -0.0028
 3360TIP3    H234276   8.236   0.661  17.247 -0.8396  1.1027  0.2491
 3361TIP3   OH234277   6.626   3.556  17.688 -0.2030 -0.0175  0.2578
 3361TIP3    H134278   6.591   3.510  17.764 -0.1370  1.4834  1.2288
 3361TIP3    H234279   6.554   3.558  17.625 -0.1129 -1.6661  0.0577
 3362TIP3   OH234280   8.392   7.993  17.317  0.0101 -0.1095  0.0728
 3362TIP3    H134281   8.464   7.933  17.339 -0.9936 -0.9421  1.1668
 3362TIP3    H234282   8.417   8.076  17.357 -0.9516 -1.1371  3.0584
 3363TIP3   OH234283   6.675   7.872  17.576 -0.8573  0.0259 -0.1894
 3363TIP3    H134284   6.752   7.818  17.592 -1.8150 -1.4713 -0.4060
 3363TIP3    H234285   6.658   7.915  17.660 -1.3713 -1.7983  0.6883
 3364TIP3   OH234286   2.586   5.253  15.539 -0.3774 -0.0375  0.4818
 3364TIP3    H134287   2.647   5.219  15.605 -0.7551 -0.5829  0.5578
 3364TIP3    H234288   2.526   5.180  15.523 -0.7916  0.3765  0.1468
 3365TIP3   OH234289   5.617   6.637  17.854  0.0688 -0.0738  0.0165
 3365TIP3    H134290   5.588   6.595  17.935 -0.7535  0.3162 -0.0692
 3365TIP3    H234291   5.711   6.619  17.850 -0.0371 -0.8111  0.6309
 3366TIP3   OH234292   0.928   1.836  15.881  0.3874 -0.1493  0.1781
 3366TIP3    H134293   0.876   1.856  15.804 -0.2015 -1.7750  0.1231
 3366TIP3    H234294   0.985   1.764  15.854  1.5009  0.4858  0.7358
 3367TIP3   OH234295   7.653   8.070  17.654 -0.0184 -0.3327 -0.0013
 3367TIP3    H134296   7.648   7.977  17.634  1.5561 -0.2144 -1.1341
 3367TIP3    H234297   7.650   8.074  17.750 -1.0182 -1.4582  0.0312
 3368TIP3   OH234298   0.181   4.136  16.815 -0.0778  0.5567 -0.2513
 3368TIP3    H134299   0.167   4.200  16.884  0.4267  0.9942 -0.5519
 3368TIP3    H234300   0.239   4.179  16.753  1.0388 -0.5028  0.0031
 3369TIP3   OH234301   1.600   1.655  16.948  0.2866 -0.1536 -0.4580
 3369TIP3    H134302   1.620   1.605  16.868  1.9209  0.0864 -0.2367
 3369TIP3    H234303   1.627   1.744  16.927 -1.4235  0.4109 -0.4044
 3370TIP3   OH234304   0.216   4.342  16.539  0.1240 -0.3742  0.3956
 3370TIP3    H134305   0.217   4.363  16.446 -0.9299  0.7319  0.6076
 3370TIP3    H234306   0.294   4.386  16.574 -1.5701  2.6904  0.6725
 3371TIP3   OH234307   7.028   6.791  16.826 -0.4548  0.1571  0.3623
 3371TIP3    H134308   7.002   6.699  16.816  1.7911 -0.5636  0.7187
 3371TIP3    H234309   6.986   6.835  16.751  0.4858 -1.6387 -1.3143
 3372TIP3   OH234310   6.266   2.718  17.184  0.4835 -1.0510  0.0997
 3372TIP3    H134311   6.343   2.666  17.161  0.7959 -0.1766 -0.9137
 3372TIP3    H234312   6.200   2.653  17.209  1.6063 -1.8019  1.2233
 3373TIP3   OH234313   0.679   0.594  16.237 -0.5738 -0.1203  0.2788
 3373TIP3    H134314   0.664   0.679  16.278  1.5078  0.4554 -0.0429
 3373TIP3    H234315   0.620   0.592  16.162 -0.7269  0.9873  0.3636
 3374TIP3   OH234316   3.824   6.113  16.212 -0.1465  0.2452 -0.0455
 3374TIP3    H134317   3.904   6.150  16.248  1.1971 -0.9244 -1.6664
 3374TIP3    H234318   3.791   6.180  16.153 -0.1864  0.5962  0.3672
 3375TIP3   OH234319   1.236   1.775  17.829  0.2018  0.6849  0.1222
 3375TIP3    H134320   1.216   1.841  17.895  0.8587 -0.0892  1.1256
 3375TIP3    H234321   1.305   1.722  17.869 -2.1292 -2.2877  0.5314
 3376TIP3   OH234322   7.127   4.326  17.847 -0.2519  0.7898  0.3189
 3376TIP3    H134323   7.071   4.355  17.775 -0.3229 -0.5200 -0.1845
 3376TIP3    H234324   7.079   4.255  17.888  1.5429 -1.3265 -0.9890
 3377TIP3   OH234325   3.743   0.766  15.947 -0.7458  0.3534  0.1279
 3377TIP3    H134326   3.679   0.827  15.909  0.4150  0.6006 -1.5159
 3377TIP3    H234327   3.788   0.817  16.014 -1.3629  0.5822  0.3755
 3378TIP3   OH234328   7.516   8.267  16.853  0.1944  0.3374 -0.1230
 3378TIP3    H134329   7.477   8.194  16.901 -1.0050  0.2961 -1.1122
 3378TIP3    H234330   7.459   8.279  16.777  0.7854  1.8357 -0.3645
 3379TIP3   OH234331   2.507   0.243  17.809 -0.2576 -0.8443  0.4362
 3379TIP3    H134332   2.601   0.238  17.823  0.2121  2.0711 -1.0263
 3379TIP3    H234333   2.472   0.283  17.888 -0.0471 -0.4596  0.3340
 3380TIP3   OH234334   1.219   3.372  17.766  0.0070  0.9091  0.0738
 3380TIP3    H134335   1.203   3.402  17.677 -1.2908  0.7599  0.2281
 3380TIP3    H234336   1.247   3.281  17.756 -0.1156  0.8989 -0.1894
 3381TIP3   OH234337   2.285   0.298  17.036  0.6142  0.5587 -0.0355
 3381TIP3    H134338   2.301   0.381  17.081  0.1296 -0.2053  1.6090
 3381TIP3    H234339   2.294   0.320  16.943  2.0706  2.0965  0.4103
 3382TIP3   OH234340   7.570   7.423  16.103 -0.0236 -0.1959  0.1322
 3382TIP3    H134341   7.500   7.424  16.169 -0.8085 -1.6794 -0.6248
 3382TIP3    H234342   7.526   7.447  16.021  0.7784  0.8336 -0.0143
 3383TIP3   OH234343   6.866   8.219  17.508 -0.3418 -0.1043  0.2361
 3383TIP3    H134344   6.849   8.209  17.602  2.2716  0.6509  0.8589
 3383TIP3    H234345   6.927   8.148  17.488 -0.3619  0.1547 -0.7510
 3384TIP3   OH234346   0.696   8.146  15.986 -0.0512  0.7320 -0.3108
 3384TIP3    H134347   0.612   8.114  15.952 -0.3907  0.1052  1.0454
 3384TIP3    H234348   0.760   8.122  15.919 -0.2419 -3.1081  0.6605
 3385TIP3   OH234349   5.889   5.172  17.468 -0.3464 -0.1552  0.5053
 3385TIP3    H134350   5.982   5.170  17.445 -0.6157  2.5853 -1.4887
 3385TIP3    H234351   5.887   5.173  17.563  1.8490  1.4689  0.6182
 3386TIP3   OH234352   5.195   5.915  17.100  0.3500  0.5279 -0.4983
 3386TIP3    H134353   5.187   5.954  17.013 -0.0444  0.8578 -0.3143
 3386TIP3    H234354   5.252   5.976  17.148  0.5599  0.3506 -0.5203
 3387TIP3   OH234355   2.065   8.134  17.229 -0.2855  0.2995  0.1980
 3387TIP3    H134356   2.062   8.137  17.133  0.5134 -1.4595  0.0834
 3387TIP3    H234357   2.091   8.222  17.255 -1.5639  1.1137 -1.1324
 3388TIP3   OH234358   5.249   7.744  16.393  0.2776  0.2591  0.2237
 3388TIP3    H134359   5.288   7.765  16.308 -0.1480  1.8250  0.3883
 3388TIP3    H234360   5.155   7.757  16.380  0.3378  1.9942  1.3033
 3389TIP3   OH234361   0.405   1.228  15.639  0.0451  0.1918 -0.3079
 3389TIP3    H134362   0.310   1.222  15.650  0.1449 -0.8215  0.2040
 3389TIP3    H234363   0.432   1.137  15.623  1.0766  0.2451  0.9877
 3390TIP3   OH234364   0.583   2.850  16.972  0.0711  0.3317 -0.5136
 3390TIP3    H134365   0.562   2.932  17.016  1.5773 -0.0122  0.9300
 3390TIP3    H234366   0.659   2.816  17.019 -1.7891 -3.0251  0.4031
 3391TIP3   OH234367   0.736   7.613  15.403  0.8658 -0.1588  0.0089
 3391TIP3    H134368   0.726   7.690  15.459 -0.2435 -0.3150  0.0369
 3391TIP3    H234369   0.827   7.617  15.374  1.3007  0.2336  1.3539
 3392TIP3   OH234370   7.145   3.201  17.967  0.0420  0.4958 -0.2378
 3392TIP3    H134371   7.218   3.227  18.022  1.0904 -0.9504 -0.8651
 3392TIP3    H234372   7.186   3.169  17.886 -1.0982 -2.0036  0.0608
 3393TIP3   OH234373   2.471   6.731  16.754 -0.4656  0.7427 -0.4116
 3393TIP3    H134374   2.477   6.638  16.775  0.5643  1.0943  1.0481
 3393TIP3    H234375   2.477   6.735  16.659  0.1753 -0.6424 -0.4497
 3394TIP3   OH234376   4.167   4.069  16.275 -0.1355  0.0920  0.1470
 3394TIP3    H134377   4.148   4.013  16.350  0.7466 -0.0470  0.2813
 3394TIP3    H234378   4.230   4.020  16.223 -0.4880  0.3278 -0.5218
 3395TIP3   OH234379   7.712   2.154  16.901  0.0398 -0.1651  0.6035
 3395TIP3    H134380   7.652   2.189  16.835  2.2158 -0.8470 -1.8642
 3395TIP3    H234381   7.665   2.080  16.940 -1.7964  1.0548  0.8606
 3396TIP3   OH234382   6.867   1.467  16.297  0.0075 -0.1952 -0.7359
 3396TIP3    H134383   6.872   1.524  16.220  3.4048  0.4667 -0.1867
 3396TIP3    H234384   6.912   1.387  16.270  0.7750 -0.1561  0.3641
 3397TIP3   OH234385   3.811   8.315  16.250 -0.2880 -0.3771  0.2423
 3397TIP3    H134386   3.799   8.320  16.155  0.5327 -1.2461  0.0713
 3397TIP3    H234387   3.867   8.389  16.271 -0.4106 -0.2253  0.0436
 3398TIP3   OH234388   7.369   2.285  16.952  0.1124  0.3183  0.0613
 3398TIP3    H134389   7.416   2.362  16.920  1.4180 -0.1639  0.7253
 3398TIP3    H234390   7.419   2.257  17.028 -1.0146 -0.5131  0.5200
 3399TIP3   OH234391   3.146   2.404  16.214  0.1492  0.4394  0.8818
 3399TIP3    H134392   3.221   2.351  16.188  0.5238  0.3060  2.1454
 3399TIP3    H234393   3.080   2.387  16.148  1.1020  0.2663 -0.0503
 3400TIP3   OH234394   1.307   4.041  16.791  0.4826  0.1355 -0.1553
 3400TIP3    H134395   1.218   4.047  16.826  0.3092 -1.2813 -0.2853
 3400TIP3    H234396   1.361   4.084  16.857 -0.2947  1.0728 -0.1005
 3401TIP3   OH234397   0.656   6.628  15.622 -0.2537 -0.5097 -0.2822
 3401TIP3    H134398   0.702   6.710  15.640  0.2587 -1.0111  0.7879
 3401TIP3    H234399   0.656   6.621  15.527 -0.2892  0.7160 -0.3986
 3402TIP3   OH234400   2.173   2.469  16.938  0.5266 -0.7291 -0.1721
 3402TIP3    H134401   2.215   2.396  16.983  0.0705  1.0625  3.5821
 3402TIP3    H234402   2.190   2.545  16.995 -2.5466  1.2655 -1.6460
 3403TIP3   OH234403   5.024   1.547  16.569 -0.0633 -0.0370  0.5745
 3403TIP3    H134404   5.118   1.529  16.579  0.0605 -1.2986 -2.1629
 3403TIP3    H234405   5.020   1.620  16.508 -0.9014  0.7950  1.5756
 3404TIP3   OH234406   6.884   7.602  16.209 -0.1173 -0.2058  0.1179
 3404TIP3    H134407   6.875   7.646  16.124 -3.0577  1.7911  1.3380
 3404TIP3    H234408   6.809   7.543  16.214 -1.6880  1.7966  2.3880
 3405TIP3   OH234409   3.585   1.423  17.413  1.0463 -0.1293  0.2388
 3405TIP3    H134410   3.503   1.384  17.381 -0.0412  0.9954  1.5271
 3405TIP3    H234411   3.577   1.516  17.391  1.9768 -0.0004  0.4142
 3406TIP3   OH234412   1.538   2.147  16.678 -0.5369 -0.3405  0.0858
 3406TIP3    H134413   1.634   2.148  16.686 -0.2965  0.0319 -2.0743
 3406TIP3    H234414   1.519   2.065  16.631 -0.9612  0.7851 -1.8325
 3407TIP3   OH234415   1.170   5.248  16.827  0.3482 -0.0886  0.0593
 3407TIP3    H134416   1.199   5.329  16.870 -2.1788  0.5977  0.6500
 3407TIP3    H234417   1.169   5.270  16.734 -0.6678  0.7331  0.2393
 3408TIP3   OH234418   6.733   7.382  17.131 -0.8597 -0.3973  0.1874
 3408TIP3    H134419   6.670   7.413  17.066  0.3477  1.2775 -0.2467
 3408TIP3    H234420   6.817   7.417  17.103 -0.0209 -1.0125  1.7640
 3409TIP3   OH234421   5.788   0.074  15.790 -0.2283  0.7777 -0.0543
 3409TIP3    H134422   5.808   0.031  15.873 -0.0808 -2.1192 -1.4677
 3409TIP3    H234423   5.695   0.096  15.796 -0.8917 -1.7676 -0.0167
 3410TIP3   OH234424   1.441   0.799  17.264  0.4665  0.1256  0.6485
 3410TIP3    H134425   1.494   0.725  17.294  0.4880 -0.2313 -0.2475
 3410TIP3    H234426   1.471   0.873  17.316  1.2530 -0.2518  0.7363
 3411TIP3   OH234427   4.038   7.559  17.225  0.7604 -0.2996 -0.7512
 3411TIP3    H134428   4.098   7.490  17.198  0.5758 -0.7872  0.0464
 3411TIP3    H234429   4.032   7.550  17.320  0.6730  0.7719 -0.6375
 3412TIP3   OH234430   6.425   7.688  16.397  0.0952  0.6491 -0.9643
 3412TIP3    H134431   6.378   7.666  16.316 -2.4083  1.4568  0.1724
 3412TIP3    H234432   6.438   7.605  16.441 -0.4186  0.4275 -1.2239
 3413TIP3   OH234433   4.768   3.119  16.176  0.3351 -0.0788  0.0247
 3413TIP3    H134434   4.760   3.067  16.256  1.2342  1.5267  1.2017
 3413TIP3    H234435   4.770   3.054  16.105 -2.7057 -1.4863  1.0560
 3414TIP3   OH234436   5.664   1.538  17.184  0.0684  0.3731  0.3199
 3414TIP3    H134437   5.682   1.445  17.197  2.4436  0.7642  0.3642
 3414TIP3    H234438   5.588   1.555  17.239  0.3975 -1.2769  1.3803
 3415TIP3   OH234439   1.411   5.704  15.838  0.0110  0.1191 -0.1731
 3415TIP3    H134440   1.350   5.768  15.874  1.1672  1.3254 -0.2925
 3415TIP3    H234441   1.469   5.682  15.910  0.0723 -0.2597 -0.3320
 3416TIP3   OH234442   3.395   6.798  16.486  0.3397  0.0535 -0.2397
 3416TIP3    H134443   3.418   6.870  16.427 -0.5953  0.1783 -0.4615
 3416TIP3    H234444   3.383   6.723  16.429  0.6051 -0.1153 -0.0784
 3417TIP3   OH234445   6.587   2.569  16.603  0.5321 -0.1188  0.2531
 3417TIP3    H134446   6.548   2.497  16.553 -0.6058  0.2405  0.5782
 3417TIP3    H234447   6.674   2.580  16.566  0.9113 -1.9561  0.4995
 3418TIP3   OH234448   2.113   8.156  16.218 -0.1650 -0.4217 -0.8961
 3418TIP3    H134449   2.084   8.082  16.165 -0.1000 -0.2409 -1.1852
 3418TIP3    H234450   2.194   8.126  16.260 -2.6323 -2.4529  3.0967
 3419TIP3   OH234451   0.414   0.168  17.250 -0.1473 -0.3450 -0.1887
 3419TIP3    H134452   0.391   0.245  17.302 -0.4638 -1.6717  1.7565
 3419TIP3    H234453   0.430   0.202  17.162  1.0109  2.0978  0.8867
 3420TIP3   OH234454   2.286   2.319  15.716  0.4212 -0.2772 -0.6055
 3420TIP3    H134455   2.219   2.279  15.660  0.3365 -1.1878  0.1361
 3420TIP3    H234456   2.369   2.295  15.674  0.4174 -1.9721  0.2547
 3421TIP3   OH234457   5.819   4.407  16.566 -1.0289 -0.3265  0.0802
 3421TIP3    H134458   5.859   4.477  16.618  0.8349  0.4396 -2.1991
 3421TIP3    H234459   5.805   4.336  16.628  1.5282  0.3397  1.5594
 3422TIP3   OH234460   2.480   7.110  17.930  0.0373 -0.4418 -0.5863
 3422TIP3    H134461   2.566   7.070  17.941  0.4027  0.3662 -0.4894
 3422TIP3    H234462   2.498   7.198  17.895 -0.6579  0.3256  0.9099
 3423TIP3   OH234463   4.875   6.203  16.206 -0.4904 -0.2261  0.0873
 3423TIP3    H134464   4.832   6.288  16.206 -1.5043 -0.7220 -0.1677
 3423TIP3    H234465   4.875   6.175  16.115  2.8326  0.9228 -0.4078
 3424TIP3   OH234466   6.137   1.009  16.132 -0.6221  0.4872  0.0252
 3424TIP3    H134467   6.109   0.984  16.219 -0.2845  0.9177  0.2620
 3424TIP3    H234468   6.057   1.041  16.089 -0.6912  0.7671  0.3575
 3425TIP3   OH234469   2.803   8.258  16.435 -0.1298 -0.2203  0.2922
 3425TIP3    H134470   2.869   8.321  16.408 -0.6432  0.4107  0.4882
 3425TIP3    H234471   2.843   8.172  16.419  0.2203  0.1451 -0.8390
 3426TIP3   OH234472   3.127   6.071  16.533 -0.0388 -0.6770 -0.5166
 3426TIP3    H134473   3.200   6.102  16.479  0.0095  1.1990  0.5492
 3426TIP3    H234474   3.057   6.133  16.516 -0.2309 -0.4123  1.0852
 3427TIP3   OH234475   3.550   3.740  17.347  0.2878  0.8318 -0.0189
 3427TIP3    H134476   3.559   3.790  17.428  2.4419 -0.1159  0.3919
 3427TIP3    H234477   3.485   3.672  17.367  2.9702 -1.3238  2.0231
 3428TIP3   OH234478   5.398   8.236  16.647  0.6818 -0.0055 -0.5091
 3428TIP3    H134479   5.327   8.279  16.693 -0.1062 -0.1722 -1.5416
 3428TIP3    H234480   5.355   8.176  16.587  1.7283 -1.1015 -0.2089
 3429TIP3   OH234481   4.836   0.901  16.667  0.1206 -0.2549  0.2855
 3429TIP3    H134482   4.792   0.832  16.717  0.4810  0.2221  1.2710
 3429TIP3    H234483   4.913   0.923  16.719  1.8413 -1.3977 -1.6080
 3430TIP3   OH234484   1.911   1.066  17.588 -0.2089 -0.2360  0.4453
 3430TIP3    H134485   1.864   1.002  17.643 -1.1291 -0.8040 -0.9504
 3430TIP3    H234486   1.983   1.017  17.550  0.4795  0.1798  1.1906
 3431TIP3   OH234487   5.339   0.716  15.930  0.3939  0.0993 -0.3328
 3431TIP3    H134488   5.267   0.771  15.962 -0.6170 -0.7248 -1.1237
 3431TIP3    H234489   5.406   0.779  15.901 -0.1673  0.8889  0.0495
 3432TIP3   OH234490   4.493   0.641  17.279 -0.0903  0.3890  0.1377
 3432TIP3    H134491   4.478   0.547  17.295  0.4993  0.4514  1.1808
 3432TIP3    H234492   4.582   0.645  17.244 -0.4613  0.4862 -0.8103
 3433TIP3   OH234493   2.130   3.190  18.069 -0.6196 -0.1064 -0.1974
 3433TIP3    H134494   2.202   3.154  18.017 -0.8373 -0.1134 -0.4973
 3433TIP3    H234495   2.111   3.123  18.134  0.0190  0.1305  0.2433
 3434TIP3   OH234496   2.558   1.229  17.011  0.3539  0.1399 -0.4550
 3434TIP3    H134497   2.552   1.185  17.096 -1.6681 -0.4108 -0.8111
 3434TIP3    H234498   2.592   1.316  17.030  0.3091 -0.1175  0.8673
 3435TIP3   OH234499   3.734   3.284  17.835 -0.0035 -0.2004 -0.0638
 3435TIP3    H134500   3.698   3.242  17.913 -1.0976 -0.4277 -0.6765
 3435TIP3    H234501   3.817   3.321  17.864  0.0957 -1.1690  0.9531
 3436TIP3   OH234502   5.593   6.222  16.024  0.1377 -0.6136 -0.1714
 3436TIP3    H134503   5.669   6.233  15.966  0.1418 -0.3222 -0.1144
 3436TIP3    H234504   5.606   6.137  16.065 -0.4008 -1.3112 -1.3801
 3437TIP3   OH234505   4.945   1.859  17.850  0.3555 -0.0153  0.4676
 3437TIP3    H134506   4.955   1.824  17.938 -0.7610 -0.0934  0.5740
 3437TIP3    H234507   4.951   1.782  17.793  3.2795  0.2607  0.2572
 3438TIP3   OH234508   5.774   7.944  17.962  0.4344  0.0647 -0.4127
 3438TIP3    H134509   5.786   8.020  18.019  0.1812  0.1775 -0.5075
 3438TIP3    H234510   5.860   7.904  17.956  1.0588  1.5130 -2.0125
 3439TIP3   OH234511   5.054   3.102  16.513 -0.1940  0.0389  0.2603
 3439TIP3    H134512   4.995   3.033  16.542  0.4145 -0.9190 -0.6653
 3439TIP3    H234513   5.128   3.055  16.474 -0.5245  1.1967 -1.9451
 3440TIP3   OH234514   2.672   2.587  17.052 -0.0404 -0.2938  0.5101
 3440TIP3    H134515   2.678   2.511  16.994 -0.3488  0.3078 -0.3366
 3440TIP3    H234516   2.607   2.563  17.117  0.2514 -0.9551  0.5657
 3441TIP3   OH234517   3.890   8.095  15.489 -0.9706 -0.0360  0.1771
 3441TIP3    H134518   3.918   8.090  15.397  1.4905  1.4205  0.7628
 3441TIP3    H234519   3.920   8.013  15.527  1.3096  0.8393  0.4229
 3442TIP3   OH234520   0.221   4.629  16.914 -0.0970  0.6669  0.0032
 3442TIP3    H134521   0.306   4.586  16.923  0.6801  2.2310  0.3148
 3442TIP3    H234522   0.171   4.600  16.991  0.8602  1.3161  0.8838
 3443TIP3   OH234523   3.400   4.846  16.941 -0.4080  0.0737 -0.6120
 3443TIP3    H134524   3.348   4.771  16.912  1.8626 -1.4718 -0.9630
 3443TIP3    H234525   3.464   4.860  16.871  1.5577 -0.0912  1.0254
 3444TIP3   OH234526   7.624   7.824  16.858  0.3838 -0.0956 -0.2243
 3444TIP3    H134527   7.653   7.799  16.945  0.9646 -0.3195 -0.4760
 3444TIP3    H234528   7.601   7.741  16.816 -0.8385  0.0912  0.0368
 3445TIP3   OH234529   1.505   1.511  15.876 -0.2529 -0.0037  0.7033
 3445TIP3    H134530   1.426   1.460  15.859  0.2280 -1.4082  2.3958
 3445TIP3    H234531   1.506   1.577  15.807 -0.9606 -2.2073 -1.5916
 3446TIP3   OH234532   1.082   7.889  17.015  0.5880 -0.3922 -0.5062
 3446TIP3    H134533   1.059   7.937  16.936  1.9554  1.0277 -0.0792
 3446TIP3    H234534   1.105   7.957  17.079  0.0308 -1.5159  0.9588
 3447TIP3   OH234535   6.474   6.665  16.606 -0.1778  0.0149  0.1912
 3447TIP3    H134536   6.536   6.631  16.542  0.0721 -1.0875  0.9837
 3447TIP3    H234537   6.394   6.682  16.555 -0.1547 -1.3256 -0.3394
 3448TIP3   OH234538   0.516   2.557  16.617  0.3629  0.2496  0.1581
 3448TIP3    H134539   0.603   2.562  16.578  0.7658 -0.7314  0.8689
 3448TIP3    H234540   0.532   2.545  16.711 -0.5624  1.4026  0.4990
 3449TIP3   OH234541   8.176   7.527  16.728 -0.0600 -0.0344  0.0723
 3449TIP3    H134542   8.199   7.441  16.692  0.2324 -1.1900  2.7829
 3449TIP3    H234543   8.260   7.565  16.756 -0.2453  0.9551 -0.6454
 3450TIP3   OH234544   1.569   4.879  16.703  0.5702  0.0629 -0.4317
 3450TIP3    H134545   1.643   4.892  16.762 -0.2910 -1.1446  0.9606
 3450TIP3    H234546   1.523   4.963  16.704  0.4875  0.0128  0.7374
 3451TIP3   OH234547   2.180   6.819  17.193 -0.0797  0.0318 -0.1251
 3451TIP3    H134548   2.247   6.779  17.248  1.3802  1.0279 -1.1005
 3451TIP3    H234549   2.169   6.907  17.228  0.0101  0.2789 -0.7074
 3452TIP3   OH234550   5.657   8.369  16.660  0.3228 -0.6517  0.4126
 3452TIP3    H134551   5.710   8.336  16.732  2.3767 -2.0891 -1.5917
 3452TIP3    H234552   5.582   8.310  16.657 -0.2051 -0.0850  1.8217
 3453TIP3   OH234553   7.455   4.894  16.497  0.4765 -0.4172 -0.0889
 3453TIP3    H134554   7.455   4.867  16.406 -0.2173 -0.2497 -0.1473
 3453TIP3    H234555   7.393   4.968  16.500 -0.0776 -0.8968  0.6480
 3454TIP3   OH234556   4.492   0.693  16.319 -0.1635  0.1060  0.0010
 3454TIP3    H134557   4.453   0.669  16.235 -0.7989 -1.2682  0.6423
 3454TIP3    H234558   4.423   0.741  16.365 -0.4255 -0.5914  0.3602
 3455TIP3   OH234559   5.477   3.134  17.426 -0.6109  0.5664  0.4169
 3455TIP3    H134560   5.498   3.117  17.518 -0.6552 -1.0786  0.1617
 3455TIP3    H234561   5.541   3.082  17.377 -0.8283  1.1167 -0.4828
 3456TIP3   OH234562   5.220   7.322  16.949 -0.6395  0.4697  0.1160
 3456TIP3    H134563   5.203   7.348  17.039 -0.0402 -0.4736  0.5275
 3456TIP3    H234564   5.294   7.377  16.921 -0.9941  0.9435  0.1062
 3457TIP3   OH234565   3.952   0.339  15.489  0.2167  0.1537  0.3006
 3457TIP3    H134566   3.932   0.305  15.577 -2.2632  3.0893  1.0663
 3457TIP3    H234567   4.029   0.394  15.502  1.2280 -1.1907  0.1147
 3458TIP3   OH234568   3.136   4.007  18.070  0.1309 -0.3129 -0.6073
 3458TIP3    H134569   3.229   3.995  18.090 -0.1266 -0.3417  0.7132
 3458TIP3    H234570   3.096   3.924  18.095 -0.4159  0.1389  0.0679
 3459TIP3   OH234571   3.857   7.674  16.795  0.2751 -0.0910 -0.1469
 3459TIP3    H134572   3.945   7.702  16.821 -0.2043  1.0993  0.3196
 3459TIP3    H234573   3.814   7.654  16.878 -0.1188  0.0825 -0.3074
 3460TIP3   OH234574   0.173   0.977  16.195  0.1820  0.1409  0.4503
 3460TIP3    H134575   0.175   1.037  16.269  0.3316 -0.2770  0.7906
 3460TIP3    H234576   0.191   0.891  16.233 -0.3819 -0.1749  0.0256
 3461TIP3   OH234577   3.251   5.463  16.706  0.5636  0.1579  0.1420
 3461TIP3    H134578   3.306   5.528  16.751 -0.7334  2.3954 -1.2926
 3461TIP3    H234579   3.303   5.435  16.631  0.7478  0.2772  0.2237
 3462TIP3   OH234580   1.996   5.591  17.107 -0.0753  0.1429 -0.6214
 3462TIP3    H134581   2.037   5.643  17.176 -0.7977 -1.6362  1.2575
 3462TIP3    H234582   2.068   5.547  17.064  0.2915  0.1655 -0.0474
 3463TIP3   OH234583   5.426   7.408  17.250 -0.4814 -0.3100 -0.0396
 3463TIP3    H134584   5.493   7.345  17.223 -0.2965  0.5523 -1.7428
 3463TIP3    H234585   5.474   7.473  17.302 -0.4083 -0.7869  0.5046
 3464TIP3   OH234586   0.207   7.117  16.610 -0.5444  0.3290 -0.0161
 3464TIP3    H134587   0.251   7.196  16.580 -0.8150 -0.4994 -2.8527
 3464TIP3    H234588   0.173   7.140  16.697  0.0420  3.0280 -0.4135
 3465TIP3   OH234589   4.882   6.992  17.510  0.2947  0.2186 -0.4551
 3465TIP3    H134590   4.964   7.040  17.523  0.0754  0.6381 -0.6003
 3465TIP3    H234591   4.879   6.976  17.416 -0.3469  1.2288 -0.6267
 3466TIP3   OH234592   4.466   1.327  17.712  0.3161  0.0120 -0.0387
 3466TIP3    H134593   4.552   1.285  17.699  1.0726  2.1271 -2.9603
 3466TIP3    H234594   4.407   1.280  17.653  0.4842  1.1276 -1.1260
 3467TIP3   OH234595   5.583   5.082  17.185 -0.2070 -0.3219  0.3696
 3467TIP3    H134596   5.664   5.133  17.180  0.4688 -1.2318  1.4831
 3467TIP3    H234597   5.518   5.144  17.217  0.2744  0.1888  0.3745
 3468TIP3   OH234598   7.915   6.073  17.921  0.1268  1.0484 -0.8052
 3468TIP3    H134599   7.853   6.016  17.875  2.5523 -0.8716 -1.9344
 3468TIP3    H234600   7.908   6.157  17.877 -2.3018  1.1806 -0.2687
 3469TIP3   OH234601   1.780   1.579  16.697 -0.0787  0.2153  0.0977
 3469TIP3    H134602   1.710   1.627  16.653  0.1455  0.1381 -0.3492
 3469TIP3    H234603   1.826   1.534  16.626 -1.1339 -1.8227  0.6214
 3470TIP3   OH234604   0.802   4.048  17.382 -0.3875 -0.3854  0.1585
 3470TIP3    H134605   0.873   4.055  17.446 -0.5508 -1.3366  0.4580
 3470TIP3    H234606   0.821   3.967  17.334 -2.1031 -1.5595  1.3232
 3471TIP3   OH234607   5.008   7.028  16.314 -0.5616  0.1595  0.3215
 3471TIP3    H134608   4.974   7.117  16.325 -0.0226  0.4346 -0.1674
 3471TIP3    H234609   4.942   6.972  16.354 -1.4234  0.7094 -0.3037
 3472TIP3   OH234610   1.457   7.008  17.417 -0.1434 -0.0220  0.1366
 3472TIP3    H134611   1.414   6.971  17.493  1.5192  0.4650  1.3693
 3472TIP3    H234612   1.532   7.056  17.452 -0.3935  1.8073 -1.6571
 3473TIP3   OH234613   3.074   8.014  17.649  0.0618  0.0019  0.5428
 3473TIP3    H134614   3.128   8.085  17.614  0.1961 -1.3393 -2.1718
 3473TIP3    H234615   2.994   8.018  17.597 -0.4209 -1.1239  1.1710
 3474TIP3   OH234616   6.619   6.269  17.706 -0.7252 -0.2036 -0.1457
 3474TIP3    H134617   6.546   6.227  17.661  0.1774 -0.6825 -1.2044
 3474TIP3    H234618   6.631   6.219  17.787 -1.1043 -0.5578 -0.3111
 3475TIP3   OH234619   4.439   1.036  17.401  0.2640  0.0799 -0.2251
 3475TIP3    H134620   4.409   1.116  17.358  2.3416  1.1879  0.2152
 3475TIP3    H234621   4.534   1.044  17.401  0.5610 -2.6627 -0.5786
 3476TIP3   OH234622   1.054   4.448  15.636 -0.7690 -0.2673 -0.6175
 3476TIP3    H134623   1.030   4.539  15.647 -1.4310 -0.6024  1.0771
 3476TIP3    H234624   0.971   4.400  15.638 -0.3026 -1.1056  1.3536
 3477TIP3   OH234625   0.930   0.253  17.614  0.2131  0.5890  0.2213
 3477TIP3    H134626   0.935   0.157  17.607 -1.4646  0.5373 -0.7786
 3477TIP3    H234627   0.898   0.268  17.703  0.5812  0.2343  0.4169
 3478TIP3   OH234628   7.184   4.922  15.819  0.0973  0.1630 -0.3847
 3478TIP3    H134629   7.179   4.832  15.850 -1.1592  0.2335 -0.3315
 3478TIP3    H234630   7.112   4.930  15.757  0.8639  0.8303 -1.2164
 3479TIP3   OH234631   0.691   0.156  18.097 -0.5045  0.2466  0.5863
 3479TIP3    H134632   0.662   0.074  18.057 -0.0534  0.7533 -0.8594
 3479TIP3    H234633   0.614   0.189  18.144 -1.1014 -0.3169  0.0191
 3480TIP3   OH234634   7.370   7.880  16.791 -0.3330  0.4071 -0.0325
 3480TIP3    H134635   7.458   7.870  16.827 -0.4949  0.5337  0.4034
 3480TIP3    H234636   7.326   7.798  16.814 -0.9447  1.1324  1.5110
 3481TIP3   OH234637   2.014   5.051  15.958 -0.5772 -0.0898 -0.3730
 3481TIP3    H134638   2.050   5.052  15.869 -1.3635  0.5651 -0.6989
 3481TIP3    H234639   1.922   5.076  15.947 -0.5661  0.4840  0.6729
 3482TIP3   OH234640   0.111   7.190  17.742  0.0164 -0.2349  0.4438
 3482TIP3    H134641   0.032   7.230  17.704  0.6016 -0.3670 -0.9624
 3482TIP3    H234642   0.095   7.096  17.736  0.7664 -0.3010 -1.0058
 3483TIP3   OH234643   2.112   4.490  16.508  0.6076 -0.2905  0.6792
 3483TIP3    H134644   2.123   4.396  16.491 -0.8237 -0.5978  1.3407
 3483TIP3    H234645   2.085   4.495  16.600  0.7122  0.7694  0.6588
 3484TIP3   OH234646   0.178   6.181  17.893  0.0570 -0.1485  0.3656
 3484TIP3    H134647   0.250   6.242  17.882  0.6569 -0.5179  1.9992
 3484TIP3    H234648   0.101   6.229  17.861  0.7022  1.0160  0.5021
 3485TIP3   OH234649   7.806   4.852  17.532 -0.2183 -0.1794  0.0344
 3485TIP3    H134650   7.730   4.900  17.498 -0.4440 -1.1546 -0.8814
 3485TIP3    H234651   7.882   4.899  17.497 -0.4395 -0.5140 -0.9242
 3486TIP3   OH234652   6.628   5.010  16.386 -0.3601 -0.0052 -0.0198
 3486TIP3    H134653   6.704   5.049  16.343  0.2462  0.3027  1.2999
 3486TIP3    H234654   6.556   5.070  16.367 -0.6267 -0.9559 -2.3816
 3487TIP3   OH234655   2.423   6.243  17.744  0.1644 -0.3329 -0.2410
 3487TIP3    H134656   2.456   6.170  17.692 -1.1892  0.1056 -1.7886
 3487TIP3    H234657   2.356   6.204  17.800  0.1262 -0.4433 -0.3626
 3488TIP3   OH234658   4.616   6.560  17.172  0.0454  0.6184 -0.5762
 3488TIP3    H134659   4.655   6.497  17.112 -1.2996 -0.8992  0.0511
 3488TIP3    H234660   4.554   6.609  17.118  1.2290  1.5871 -1.1078
 3489TIP3   OH234661   2.229   5.540  17.590  0.0456  0.6960 -0.6060
 3489TIP3    H134662   2.267   5.491  17.663 -0.1657  1.7178  0.2159
 3489TIP3    H234663   2.199   5.622  17.629 -2.8517  0.0482 -1.2125
 3490TIP3   OH234664   0.962   8.260  17.384 -0.3680 -0.3275 -0.8123
 3490TIP3    H134665   1.025   8.305  17.328 -0.5120  1.4226  0.3515
 3490TIP3    H234666   0.966   8.308  17.467 -1.5449 -1.6463  0.0434
 3491TIP3   OH234667   8.055   2.362  17.048 -0.8564 -0.3071 -0.4381
 3491TIP3    H134668   8.117   2.389  16.981 -1.5246 -0.3303 -1.0805
 3491TIP3    H234669   8.084   2.406  17.128  0.4703 -0.9855 -0.5335
 3492TIP3   OH234670   1.561   2.611  17.472 -0.4890  0.0881  0.3184
 3492TIP3    H134671   1.546   2.531  17.422  1.8546 -0.3645  0.1998
 3492TIP3    H234672   1.623   2.662  17.418 -0.9800  1.4160  0.9590
 3493TIP3   OH234673   2.780   1.934  17.678 -0.0868  0.5626 -0.1014
 3493TIP3    H134674   2.807   1.848  17.712 -1.7886 -0.7098 -1.7076
 3493TIP3    H234675   2.845   1.953  17.610  0.4811  0.7171  0.4731
 3494TIP3   OH234676   3.532   3.725  16.438  0.9068 -0.0181 -0.3044
 3494TIP3    H134677   3.486   3.644  16.416  0.1345  0.6866 -1.4064
 3494TIP3    H234678   3.585   3.703  16.515 -0.7774 -1.0316  0.6074
 3495TIP3   OH234679   6.475   2.061  17.593 -0.3566  0.0187 -0.0630
 3495TIP3    H134680   6.499   2.079  17.684 -1.5250  1.0083  0.0700
 3495TIP3    H234681   6.512   2.134  17.544 -2.2174  1.0540  0.0214
 3496TIP3   OH234682   2.878   8.282  16.024 -0.0639 -0.3465  0.0378
 3496TIP3    H134683   2.881   8.187  16.019 -0.9371 -0.3734 -0.1730
 3496TIP3    H234684   2.797   8.306  15.978  0.2236  0.5040 -0.0438
 3497TIP3   OH234685   0.320   8.048  17.417  0.1289  0.4536  0.9546
 3497TIP3    H134686   0.309   8.127  17.471 -1.7092  0.3603  0.7786
 3497TIP3    H234687   0.240   7.997  17.433 -0.4330  0.3619 -1.7337
 3498TIP3   OH234688   3.207   0.664  17.606  0.6968 -0.2399  0.4035
 3498TIP3    H134689   3.260   0.733  17.647  2.0349 -0.3144 -1.0964
 3498TIP3    H234690   3.245   0.582  17.639 -0.0246 -0.2909  1.1392
 3499TIP3   OH234691   6.282   3.365  17.986 -0.4256 -0.2476  0.1388
 3499TIP3    H134692   6.205   3.418  18.010 -0.7646  0.1728 -1.7206
 3499TIP3    H234693   6.271   3.284  18.034 -1.8890 -0.0653  0.1609
 3500TIP3   OH234694   7.521   2.552  17.522 -0.3271 -0.5032  0.3533
 3500TIP3    H134695   7.441   2.502  17.510  0.3302 -1.0675 -2.3608
 3500TIP3    H234696   7.492   2.639  17.548 -1.9960 -0.1908 -2.2594
 3501TIP3   OH234697   1.770   1.772  16.433 -0.0819  0.1705 -0.3860
 3501TIP3    H134698   1.848   1.730  16.397  0.4379  2.2238 -1.7756
 3501TIP3    H234699   1.716   1.698  16.462  0.8460 -1.4837 -2.5462
 3502TIP3   OH234700   5.524   7.946  16.895 -0.4335 -0.1256  0.0157
 3502TIP3    H134701   5.454   7.922  16.955  0.1364  0.6476  1.0387
 3502TIP3    H234702   5.568   8.019  16.939  0.6673 -0.2437 -0.8542
 3503TIP3   OH234703   6.203   2.682  16.428  0.1979  0.5306 -0.1667
 3503TIP3    H134704   6.250   2.701  16.509  0.4986  2.7200 -0.7830
 3503TIP3    H234705   6.181   2.589  16.434  1.6504  0.2403  1.6598
 3504TIP3   OH234706   7.028   2.299  17.162 -0.7184 -0.2051  0.0404
 3504TIP3    H134707   7.093   2.364  17.190 -1.6152  0.1125  1.4960
 3504TIP3    H234708   7.037   2.296  17.066  1.4891 -0.2618  0.2015
 3505TIP3   OH234709   1.457   4.653  16.058 -0.0068 -0.2295  0.3997
 3505TIP3    H134710   1.389   4.703  16.012 -0.3156 -0.1470  0.9327
 3505TIP3    H234711   1.522   4.633  15.991 -0.7255 -0.6082 -0.2043
 3506TIP3   OH234712   5.489   1.265  17.126  0.6688 -0.1240 -0.0861
 3506TIP3    H134713   5.502   1.333  17.060 -0.2864 -0.9498 -1.1700
 3506TIP3    H234714   5.539   1.190  17.092 -1.9572 -1.4332 -1.3108
 3507TIP3   OH234715   3.789   4.747  16.484  0.3350 -0.2286 -0.5701
 3507TIP3    H134716   3.814   4.742  16.392  0.4192  3.5895 -0.8973
 3507TIP3    H234717   3.856   4.802  16.525 -0.7193 -0.2741  1.3651
 3508TIP3   OH234718   4.748   8.175  17.688  0.4556 -0.0491  0.2398
 3508TIP3    H134719   4.693   8.233  17.634  0.0629 -0.9122 -0.3110
 3508TIP3    H234720   4.824   8.156  17.633 -0.5050 -1.8873 -0.5290
 3509TIP3   OH234721   0.624   7.420  15.270 -0.1071 -0.0158 -0.0783
 3509TIP3    H134722   0.649   7.493  15.327 -0.1197 -1.3297  1.6843
 3509TIP3    H234723   0.531   7.434  15.252  0.4357  1.7297 -1.8531
 3510TIP3   OH234724   1.951   2.216  17.211  0.0255 -0.0338  0.2687
 3510TIP3    H134725   2.013   2.194  17.280  1.3642  0.6495 -0.6718
 3510TIP3    H234726   1.993   2.185  17.130 -1.2641 -0.3488 -0.3125
 3511TIP3   OH234727   2.722   2.781  16.067  0.1402  0.1388 -0.0601
 3511TIP3    H134728   2.668   2.752  16.140  0.5202  0.6139  0.4173
 3511TIP3    H234729   2.792   2.715  16.063 -0.4490 -0.4647 -0.6670
 3512TIP3   OH234730   5.373   4.501  17.178 -0.2172  0.3423  0.6247
 3512TIP3    H134731   5.446   4.509  17.117 -1.2907 -1.0991 -0.9674
 3512TIP3    H234732   5.298   4.534  17.128 -1.3807 -2.1785  0.5535
 3513TIP3   OH234733   8.316   3.432  18.282 -0.5204  0.5263 -0.3575
 3513TIP3    H134734   8.315   3.365  18.214  0.2623 -0.7629  0.8518
 3513TIP3    H234735   8.401   3.474  18.273  0.5868 -1.2427  1.2664
 3514TIP3   OH234736   6.948   3.245  16.995 -0.9180 -0.4364 -0.0506
 3514TIP3    H134737   7.027   3.192  17.004  0.4600  1.7027  1.5198
 3514TIP3    H234738   6.938   3.256  16.900  1.7601  0.6437 -0.3089
 3515TIP3   OH234739   3.936   0.486  17.120  0.5881  0.1856 -0.3933
 3515TIP3    H134740   4.000   0.541  17.075 -0.7845  0.9238 -1.5238
 3515TIP3    H234741   3.892   0.544  17.181 -0.6097  0.3148 -1.3258
 3516TIP3   OH234742   7.107   1.266  16.622 -0.3533  0.0641  0.2015
 3516TIP3    H134743   7.136   1.287  16.711  0.5217 -0.3475  0.0297
 3516TIP3    H234744   7.017   1.238  16.632 -0.2389 -0.0537  0.9755
 3517TIP3   OH234745   5.230   3.691  16.054 -0.3468 -0.3091  0.2461
 3517TIP3    H134746   5.293   3.758  16.029  1.2130 -1.9713 -0.5572
 3517TIP3    H234747   5.276   3.608  16.038 -2.7821 -1.6194 -0.5004
 3518TIP3   OH234748   2.783   3.459  16.525  0.5001  0.2513  0.1378
 3518TIP3    H134749   2.799   3.464  16.431 -2.2194 -0.2779 -0.4421
 3518TIP3    H234750   2.717   3.391  16.535  0.2155  0.7601  2.3724
 3519TIP3   OH234751   1.514   4.231  16.882 -0.5090 -0.0676  0.1140
 3519TIP3    H134752   1.481   4.319  16.866 -1.0660 -0.1657  0.6895
 3519TIP3    H234753   1.571   4.213  16.807 -0.0227  0.9587  0.2130
 3520TIP3   OH234754   5.610   7.945  17.447  0.3179  0.1475  0.1521
 3520TIP3    H134755   5.693   7.899  17.435  1.2123  1.3822  1.2363
 3520TIP3    H234756   5.565   7.895  17.516  0.3312 -0.2907 -0.1510
 3521TIP3   OH234757   5.397   2.836  15.996 -0.3192 -0.0895  0.1545
 3521TIP3    H134758   5.402   2.787  15.914 -1.3815  0.2813 -0.1548
 3521TIP3    H234759   5.407   2.928  15.970  1.4312 -0.0911  0.7008
 3522TIP3   OH234760   1.925   3.184  15.753  0.0012  0.5834  0.7119
 3522TIP3    H134761   1.904   3.100  15.794 -1.0835  0.9079  0.8496
 3522TIP3    H234762   1.850   3.203  15.697 -0.1789  1.8750  1.3664
 3523TIP3   OH234763   8.214   3.874  17.392 -0.4130 -0.0137  0.2468
 3523TIP3    H134764   8.210   3.783  17.419 -2.3014 -0.4609 -1.3038
 3523TIP3    H234765   8.148   3.919  17.444  0.0236  0.3396  0.5077
 3524TIP3   OH234766   6.036   8.328  16.680 -0.4517 -0.1804 -0.1804
 3524TIP3    H134767   6.102   8.395  16.698  0.9862 -1.8094  0.8864
 3524TIP3    H234768   6.048   8.307  16.587  0.9840 -0.8606  0.1266
 3525TIP3   OH234769   6.943   3.542  16.301 -0.8014 -0.0556  0.1673
 3525TIP3    H134770   6.901   3.625  16.324 -0.9431  0.5202 -1.9737
 3525TIP3    H234771   6.981   3.557  16.214  0.0300 -1.9383  0.1484
 3526TIP3   OH234772   6.548   1.932  16.689 -0.4015 -0.3505  0.5650
 3526TIP3    H134773   6.601   1.975  16.756 -2.2983  1.4600  0.9855
 3526TIP3    H234774   6.478   1.994  16.669 -1.2893 -1.8524 -1.3454
 3527TIP3   OH234775   2.026   6.378  15.590  0.2738 -0.8629 -0.5533
 3527TIP3    H134776   2.051   6.461  15.549  1.6036 -0.0144  1.7677
 3527TIP3    H234777   1.957   6.402  15.652 -0.4653 -1.8051 -0.9845
 3528TIP3   OH234778   7.265   4.632  17.338  0.3951  0.1260 -0.3957
 3528TIP3    H134779   7.203   4.704  17.349 -0.5925 -0.8666  0.9020
 3528TIP3    H234780   7.253   4.578  17.416 -1.3261 -3.2485 -2.7380
 3529TIP3   OH234781   6.939   7.197  16.741  0.4357 -0.1730 -0.1128
 3529TIP3    H134782   7.020   7.153  16.715  0.2285  0.4342 -1.9701
 3529TIP3    H234783   6.873   7.128  16.745  0.0281 -0.1676 -3.3669
 3530TIP3   OH234784   1.868   8.262  16.195 -0.2098  0.1947 -0.4080
 3530TIP3    H134785   1.844   8.327  16.128 -0.6861  0.1802 -0.2555
 3530TIP3    H234786   1.961   8.246  16.180  0.0364  1.3000 -0.1149
 3531TIP3   OH234787   0.486   2.282  17.977  0.2004 -0.2993  0.2951
 3531TIP3    H134788   0.554   2.338  17.941  0.1288  0.1529  0.8619
 3531TIP3    H234789   0.407   2.306  17.928  0.2409 -0.1536  0.3042
 3532TIP3   OH234790   8.154   4.052  16.078 -0.1032  1.0535  0.1955
 3532TIP3    H134791   8.246   4.048  16.050  0.0464 -0.3227  0.8414
 3532TIP3    H234792   8.108   4.088  16.002  1.0698  2.6678  0.1818
 3533TIP3   OH234793   8.140   5.115  17.107  0.2647  0.0232  0.3756
 3533TIP3    H134794   8.180   5.149  17.187  0.4630 -1.0670  0.7609
 3533TIP3    H234795   8.191   5.155  17.036  1.6096 -0.7722  0.8438
 3534TIP3   OH234796   8.015   5.397  16.162 -0.3238 -0.1774 -0.6537
 3534TIP3    H134797   8.048   5.481  16.194 -1.1849  0.1661 -0.6251
 3534TIP3    H234798   8.093   5.345  16.144  0.2189  0.5986 -0.5820
 3535TIP3   OH234799   1.222   3.246  16.352  0.6626  0.5567 -0.2381
 3535TIP3    H134800   1.296   3.305  16.363  0.7704  0.6475 -1.3649
 3535TIP3    H234801   1.260   3.164  16.320  0.2308  0.7935 -1.4035
 3536TIP3   OH234802   6.254   4.852  17.279 -0.2685  0.0706 -0.3432
 3536TIP3    H134803   6.237   4.848  17.373  0.2205 -1.9680 -0.2949
 3536TIP3    H234804   6.171   4.826  17.239 -0.5733  1.2562 -0.5014
 3537TIP3   OH234805   5.566   2.463  17.205 -0.5329  0.0122 -0.2762
 3537TIP3    H134806   5.551   2.470  17.299  0.3373 -0.7745 -0.0603
 3537TIP3    H234807   5.484   2.430  17.170 -0.4414 -0.9491  0.3889
 3538TIP3   OH234808   0.515   4.361  17.819 -0.1674 -0.0356 -0.0331
 3538TIP3    H134809   0.495   4.446  17.778 -1.6291 -0.1382  0.3920
 3538TIP3    H234810   0.498   4.376  17.912  0.7703 -0.4705  0.2159
 3539TIP3   OH234811   0.948   5.988  16.418 -0.0027  0.5724 -0.3420
 3539TIP3    H134812   1.038   5.970  16.389  0.2398 -0.2658  0.8563
 3539TIP3    H234813   0.944   5.953  16.507 -2.3266 -1.9248 -1.3015
 3540TIP3   OH234814   4.961   7.085  16.943 -0.0307  0.1633 -0.9203
 3540TIP3    H134815   5.026   7.148  16.975  0.5788 -0.7447 -0.3144
 3540TIP3    H234816   5.001   7.047  16.865  0.7884 -1.3656  0.2076
 3541TIP3   OH234817   2.785   7.071  16.747  0.0904 -0.0809 -0.3049
 3541TIP3    H134818   2.727   7.061  16.672 -0.6410  0.1912  0.2072
 3541TIP3    H234819   2.871   7.088  16.709 -0.0815 -0.8964 -1.0849
 3542TIP3   OH234820   6.468   1.454  16.987  0.4145  0.2403  0.2698
 3542TIP3    H134821   6.477   1.536  16.939  0.5218  1.2855  1.9921
 3542TIP3    H234822   6.380   1.423  16.966  1.0070 -0.2052 -1.8272
 3543TIP3   OH234823   2.149   3.617  18.017  0.1442  0.0777 -0.0829
 3543TIP3    H134824   2.117   3.652  17.933  1.9355  1.2566 -0.3304
 3543TIP3    H234825   2.204   3.687  18.053 -0.5349 -0.4296  2.0772
 3544TIP3   OH234826   3.822   0.911  17.464  0.2231  0.1236  0.2159
 3544TIP3    H134827   3.912   0.941  17.452  0.5994 -0.8597  0.4511
 3544TIP3    H234828   3.814   0.894  17.558  0.4000 -1.5313 -0.0252
 3545TIP3   OH234829   3.100   2.231  17.584  0.3586 -0.3411  0.1731
 3545TIP3    H134830   3.177   2.237  17.527  1.0247  2.5131  1.2177
 3545TIP3    H234831   3.026   2.239  17.524  1.0151  1.1427 -0.4964
 3546TIP3   OH234832   8.360   6.247  17.808  0.0172 -0.3323  0.2030
 3546TIP3    H134833   8.329   6.183  17.744  1.4383 -1.5203  0.6459
 3546TIP3    H234834   8.284   6.269  17.861 -0.8724 -0.3355 -1.0435
 3547TIP3   OH234835   7.857   3.072  16.288 -0.0907  0.0834 -0.6842
 3547TIP3    H134836   7.855   3.078  16.193  2.0713  1.5069 -0.7026
 3547TIP3    H234837   7.881   3.160  16.317  1.2242 -0.8051  1.0627
 3548TIP3   OH234838   3.948   1.058  17.935  0.0711 -0.3797  0.1971
 3548TIP3    H134839   4.001   1.090  18.008 -1.1087 -0.8951  1.3096
 3548TIP3    H234840   3.987   0.974  17.912  0.0427 -0.5271  0.6789
 3549TIP3   OH234841   4.323   0.491  16.345 -0.1021 -0.1875  0.4994
 3549TIP3    H134842   4.395   0.554  16.350 -0.8745  0.9459 -1.4227
 3549TIP3    H234843   4.246   0.542  16.371 -0.4519 -0.9555  1.0012
 3550TIP3   OH234844   3.637   3.955  17.535  0.1917  0.1506  0.1149
 3550TIP3    H134845   3.647   4.029  17.595  0.7863  0.3002 -0.1560
 3550TIP3    H234846   3.642   3.878  17.590  0.8289  0.2846  0.2534
 3551TIP3   OH234847   0.209   8.445  15.965  0.4213  0.6230 -0.4939
 3551TIP3    H134848   0.192   8.502  16.040 -0.5393  1.1638 -1.0946
 3551TIP3    H234849   0.200   8.503  15.889  0.6285 -0.0741 -1.0608
 3552TIP3   OH234850   8.272   5.269  16.917 -0.3300 -0.5070 -0.1148
 3552TIP3    H134851   8.261   5.363  16.934  1.8343 -0.3135  0.6346
 3552TIP3    H234852   8.240   5.256  16.828  0.0319  1.1143 -0.5172
 3553TIP3   OH234853   1.335   6.775  16.366 -0.0512  0.2956 -0.2132
 3553TIP3    H134854   1.331   6.768  16.461  0.0055  2.5891  0.0110
 3553TIP3    H234855   1.244   6.785  16.339  0.0908  1.8689 -0.1586
 3554TIP3   OH234856   1.649   3.072  18.099 -0.0531 -0.1229  0.1000
 3554TIP3    H134857   1.579   3.119  18.055 -0.3576 -1.2144 -0.6071
 3554TIP3    H234858   1.611   2.987  18.123  0.9322 -0.6260 -0.0574
 3555TIP3   OH234859   4.110   3.759  16.489 -0.3204 -0.6174  0.3044
 3555TIP3    H134860   4.087   3.743  16.398  0.4547  2.4691 -0.5671
 3555TIP3    H234861   4.042   3.714  16.539 -1.6818 -1.0980 -1.8174
 3556TIP3   OH234862   0.177   6.142  15.731  0.6730 -0.4655  0.3500
 3556TIP3    H134863   0.257   6.136  15.678 -0.2026  0.7858 -1.1610
 3556TIP3    H234864   0.149   6.051  15.742  0.3641 -0.7431 -2.1904
 3557TIP3   OH234865   4.823   2.192  16.351 -0.3773 -0.3880  0.1207
 3557TIP3    H134866   4.914   2.209  16.372 -0.1132 -0.3234 -0.9852
 3557TIP3    H234867   4.808   2.241  16.270 -0.6698 -2.3983 -1.1038
 3558TIP3   OH234868   4.853   3.702  15.888 -0.0521 -0.0829 -0.0416
 3558TIP3    H134869   4.785   3.730  15.949  1.1737 -0.2997  1.4741
 3558TIP3    H234870   4.879   3.782  15.842 -1.2928 -0.0007 -0.6530
 3559TIP3   OH234871   8.197   8.182  16.925  0.2468  0.2729 -0.1465
 3559TIP3    H134872   8.159   8.154  16.841 -0.0223 -2.0435  0.6679
 3559TIP3    H234873   8.227   8.100  16.965  0.6807  1.3714  1.8657
 3560TIP3   OH234874   1.110   6.393  17.673 -0.4620 -0.1843 -0.4426
 3560TIP3    H134875   1.116   6.421  17.582 -0.8212  0.5586 -0.2462
 3560TIP3    H234876   1.017   6.370  17.685 -0.1314 -1.7845 -0.6792
 3561TIP3   OH234877   3.731   4.078  17.162  0.3137  0.4047  0.3518
 3561TIP3    H134878   3.751   4.167  17.193  0.1081  1.1316 -1.4868
 3561TIP3    H234879   3.783   4.021  17.219  1.6838  1.8027  0.5680
 3562TIP3   OH234880   7.420   4.277  17.861 -0.2925 -0.3395  0.3274
 3562TIP3    H134881   7.325   4.288  17.869 -0.3081  0.0864 -0.3359
 3562TIP3    H234882   7.453   4.366  17.847  0.2583 -0.4286  1.0224
 3563TIP3   OH234883   6.449   3.847  17.002  0.3059 -0.6325 -0.4175
 3563TIP3    H134884   6.538   3.869  17.030  0.3771 -1.8035  0.3353
 3563TIP3    H234885   6.431   3.909  16.931 -0.7990  4.3008  3.5303
 3564TIP3   OH234886   1.764   3.587  16.588  0.1920  0.1867  0.2078
 3564TIP3    H134887   1.843   3.548  16.552  0.7395  0.4262  1.1271
 3564TIP3    H234888   1.741   3.532  16.662 -0.4283  0.2009  0.0294
 3565TIP3   OH234889   2.301   1.488  16.397 -0.4372  0.4999 -0.2094
 3565TIP3    H134890   2.230   1.512  16.337 -0.3008 -0.9740 -0.9957
 3565TIP3    H234891   2.347   1.416  16.353  1.6297  1.4634  0.2122
 3566TIP3   OH234892   0.688   6.244  17.510  0.2133  0.1769  0.4070
 3566TIP3    H134893   0.601   6.284  17.506 -0.5347 -1.2719  1.2745
 3566TIP3    H234894   0.749   6.317  17.498 -1.0913  1.4338  1.1325
 3567TIP3   OH234895   3.593   7.500  16.422  0.4972 -0.4693  0.0655
 3567TIP3    H134896   3.527   7.549  16.373  0.3986 -0.8439 -0.1768
 3567TIP3    H234897   3.670   7.557  16.423  0.6925 -0.7060 -1.0232
 3568TIP3   OH234898   1.700   1.111  16.873 -0.9992  0.3627 -0.5006
 3568TIP3    H134899   1.678   1.032  16.824  1.7627 -1.0207  0.3102
 3568TIP3    H234900   1.687   1.087  16.965  0.2927  0.6685 -0.2160
 3569TIP3   OH234901   5.332   6.747  16.457  0.1551  0.2482 -0.0251
 3569TIP3    H134902   5.286   6.806  16.516  0.4441 -0.2899  0.7535
 3569TIP3    H234903   5.389   6.804  16.405 -1.4540  0.9505 -1.1266
 3570TIP3   OH234904   5.803   4.939  16.777  0.3143  0.6245 -0.4099
 3570TIP3    H134905   5.781   5.002  16.709 -0.8257 -0.4849 -1.1234
 3570TIP3    H234906   5.751   4.861  16.756  1.0405 -0.2729  0.8999
 3571TIP3   OH234907   2.627   0.019  16.422  0.0737 -0.1105 -0.0947
 3571TIP3    H134908   2.533   0.011  16.404  0.4111 -1.4338 -1.5348
 3571TIP3    H234909   2.656  -0.070  16.441  0.7233  0.5528  2.3300
 3572TIP3   OH234910   2.083   4.638  16.912 -0.3348 -0.0142 -0.5551
 3572TIP3    H134911   2.168   4.607  16.942  0.3585  1.7946 -0.5222
 3572TIP3    H234912   2.064   4.714  16.968 -1.9377 -0.3383 -0.6055
 3573TIP3   OH234913   7.591   5.803  17.480  0.0171 -0.0007 -0.0676
 3573TIP3    H134914   7.665   5.755  17.442 -0.5124 -1.0257  0.1537
 3573TIP3    H234915   7.572   5.872  17.416 -0.7458 -1.5711 -1.6356
 3574TIP3   OH234916   1.483   6.135  17.108 -0.4664 -0.3362 -0.2291
 3574TIP3    H134917   1.517   6.104  17.192  0.5932 -1.0686 -0.8924
 3574TIP3    H234918   1.403   6.183  17.129 -1.1157 -1.9087  1.0321
 3575TIP3   OH234919   6.164   0.917  15.592  0.4999 -0.3325  0.1611
 3575TIP3    H134920   6.183   1.004  15.557  0.2037 -0.1769  0.3780
 3575TIP3    H234921   6.249   0.880  15.613  0.6416 -0.1742 -0.1206
 3576TIP3   OH234922   2.378   3.512  17.165 -0.0514 -0.3889  0.4516
 3576TIP3    H134923   2.402   3.528  17.073  0.1428 -0.1773  0.5374
 3576TIP3    H234924   2.375   3.600  17.204 -0.0548 -0.4856  0.6668
 3577TIP3   OH234925   2.654   6.364  17.252  0.1273  0.0825  0.0239
 3577TIP3    H134926   2.627   6.290  17.307 -1.9754 -0.7952 -2.0182
 3577TIP3    H234927   2.583   6.374  17.188  0.8911  3.1302 -0.5468
 3578TIP3   OH234928   4.431   1.576  17.223  0.1872 -0.2668  0.1367
 3578TIP3    H134929   4.516   1.565  17.268  0.1848  0.3462  0.3072
 3578TIP3    H234930   4.388   1.647  17.272 -0.8588 -1.2475  0.6915
 3579TIP3   OH234931   4.282   5.538  16.550  0.1086 -0.3961 -0.5739
 3579TIP3    H134932   4.284   5.572  16.639  0.6092 -0.1331 -0.6791
 3579TIP3    H234933   4.221   5.464  16.553  0.1208 -0.3843 -0.0189
 3580TIP3   OH234934   4.016   2.794  17.517  0.3639 -0.6297 -0.0436
 3580TIP3    H134935   3.967   2.714  17.536  2.0563 -1.9642 -1.0096
 3580TIP3    H234936   4.051   2.821  17.602 -0.5203 -0.6789  0.3482
 3581TIP3   OH234937   5.931   0.022  17.378 -0.4674 -0.2903  0.4022
 3581TIP3    H134938   5.995   0.081  17.340  0.0939 -1.6444 -0.8793
 3581TIP3    H234939   5.922   0.050  17.469 -0.7386  2.1336 -0.3196
 3582TIP3   OH234940   5.117   0.139  17.721 -0.5726  0.1808 -0.1850
 3582TIP3    H134941   5.094   0.207  17.658 -0.4768 -0.0104 -0.4277
 3582TIP3    H234942   5.052   0.148  17.791 -0.3996  0.6890 -0.0903
 3583TIP3   OH234943   1.060   3.759  17.772  0.1484 -0.3923 -0.0293
 3583TIP3    H134944   1.150   3.772  17.802  0.2295  1.7327 -0.9886
 3583TIP3    H234945   1.044   3.665  17.782  2.9771 -1.0931 -1.2243
 3584TIP3   OH234946   8.365   6.838  16.678  0.4348 -0.9586  0.2708
 3584TIP3    H134947   8.422   6.898  16.726  0.3878 -0.8012  0.1326
 3584TIP3    H234948   8.277   6.856  16.712  0.1449  0.3319 -1.0085
 3585TIP3   OH234949   7.071   5.611  17.090  0.4410 -0.0785 -0.1621
 3585TIP3    H134950   7.146   5.621  17.149 -0.2038 -0.3596  0.7389
 3585TIP3    H234951   7.102   5.553  17.021  1.0989 -0.0620  0.1153
 3586TIP3   OH234952   4.343   3.620  16.403 -0.0850 -0.2974  0.6350
 3586TIP3    H134953   4.259   3.662  16.421 -1.1121 -2.4685  1.2802
 3586TIP3    H234954   4.320   3.530  16.380  2.0185 -0.6604 -0.2779
 3587TIP3   OH234955   4.491   4.592  17.262 -0.1231  0.0763 -0.3349
 3587TIP3    H134956   4.494   4.685  17.239 -1.4635  0.1494 -0.3073
 3587TIP3    H234957   4.538   4.548  17.192 -0.9115  0.6370 -1.2408
 3588TIP3   OH234958   7.045   4.289  17.149 -0.5050 -1.1787 -0.3667
 3588TIP3    H134959   6.987   4.273  17.074 -1.1816  0.0768 -0.1323
 3588TIP3    H234960   7.011   4.368  17.189  1.3966 -0.3615 -0.2503
 3589TIP3   OH234961   2.411   7.438  16.784  0.1054  0.5438  0.2732
 3589TIP3    H134962   2.319   7.440  16.810  0.1989 -1.1181  0.8526
 3589TIP3    H234963   2.409   7.445  16.688 -0.5614  1.3473  0.3327
 3590TIP3   OH234964   3.178   5.029  16.466 -0.1025 -0.5394 -0.2892
 3590TIP3    H134965   3.106   4.967  16.472  0.0571 -0.7379 -0.4077
 3590TIP3    H234966   3.197   5.052  16.557 -0.1678 -0.6589 -0.2456
 3591TIP3   OH234967   7.933   0.634  15.953  0.1648 -0.1145  0.4549
 3591TIP3    H134968   7.843   0.622  15.923 -0.7642  2.6633  1.8455
 3591TIP3    H234969   7.946   0.563  16.016 -0.1176 -2.0021 -1.4631
 3592TIP3   OH234970   7.706   8.132  17.120 -0.1767  0.3933 -0.2583
 3592TIP3    H134971   7.697   8.182  17.201  1.9510 -1.9750  1.6314
 3592TIP3    H234972   7.636   8.067  17.125 -1.2726  1.4439 -1.3754
 3593TIP3   OH234973   3.318   2.641  16.834 -0.1693 -0.3308  0.0926
 3593TIP3    H134974   3.260   2.693  16.778 -0.8872 -0.8103  0.3687
 3593TIP3    H234975   3.404   2.682  16.825 -0.0625 -0.9007 -2.0346
 3594TIP3   OH234976   4.887   7.349  16.707 -0.1501 -0.0725  0.1085
 3594TIP3    H134977   4.953   7.411  16.675 -1.0540  1.5188  1.1977
 3594TIP3    H234978   4.809   7.370  16.655 -0.1048 -1.2547 -0.4621
 3595TIP3   OH234979   7.148   1.300  16.914  0.4247  0.1647  0.2373
 3595TIP3    H134980   7.163   1.205  16.906  2.0922  0.3773  0.4945
 3595TIP3    H234981   7.089   1.308  16.989 -2.2860 -0.8146 -1.6235
 3596TIP3   OH234982   2.424   7.221  17.390 -0.0779 -0.2538 -0.0651
 3596TIP3    H134983   2.489   7.168  17.343 -0.0421  0.5983 -1.0210
 3596TIP3    H234984   2.396   7.166  17.463  1.8463 -0.5971  0.4750
 3597TIP3   OH234985   0.019   1.781  17.867  0.3045 -0.5781 -0.4201
 3597TIP3    H134986  -0.002   1.834  17.790  0.0445 -0.5548 -0.3366
 3597TIP3    H234987  -0.062   1.782  17.919  1.0856  1.1780  0.9094
 3598TIP3   OH234988   4.281   1.542  17.630 -0.0779  0.5672 -0.2644
 3598TIP3    H134989   4.373   1.536  17.657  0.0591 -0.0333 -0.8368
 3598TIP3    H234990   4.258   1.453  17.603 -0.2887  1.0542 -1.8185
 3599TIP3   OH234991   7.923   8.382  17.308 -0.4771 -0.1229  0.4290
 3599TIP3    H134992   7.877   8.340  17.381 -1.2621 -0.3266 -0.1741
 3599TIP3    H234993   7.891   8.472  17.307 -0.9919 -0.3052 -0.0862
 3600TIP3   OH234994   3.151   7.200  17.634  0.1722  0.0459  0.2289
 3600TIP3    H134995   3.072   7.240  17.597  0.5078  0.1834 -0.3369
 3600TIP3    H234996   3.133   7.196  17.728 -0.3780  0.3679  0.1432
 3601TIP3   OH234997   5.371   5.608  16.284 -0.0893 -0.7924 -0.3194
 3601TIP3    H134998   5.287   5.619  16.330  0.4699  0.8481  0.3983
 3601TIP3    H234999   5.374   5.682  16.223  2.2002  1.1690  1.9530
 3602TIP3   OH235000   0.714   7.349  17.224 -0.0043 -0.2733  0.1744
 3602TIP3    H135001   0.670   7.305  17.297  2.1361 -0.2097  1.5900
 3602TIP3    H235002   0.779   7.286  17.194 -0.7032 -0.2019 -1.5798
 3603TIP3   OH235003   5.085   2.855  16.734  0.6649  0.0712  0.0033
 3603TIP3    H135004   5.102   2.851  16.828  1.5704  0.0227 -0.1522
 3603TIP3    H235005   5.158   2.906  16.699  1.8630 -2.2106 -1.0092
 3604TIP3   OH235006   7.202   3.296  16.232 -0.1192  0.6213 -0.5049
 3604TIP3    H135007   7.113   3.293  16.198 -1.1599  0.6093  2.0217
 3604TIP3    H235008   7.193   3.329  16.321  2.1560 -1.2282  0.5296
 3605TIP3   OH235009   2.292   1.418  16.999 -0.1317  0.0865  0.1478
 3605TIP3    H135010   2.357   1.357  17.033 -0.8359  0.1805  1.7274
 3605TIP3    H235011   2.209   1.389  17.035 -0.7118  1.0227 -0.3811
 3606TIP3   OH235012   3.206   6.518  17.019 -0.1021  0.0886 -0.4786
 3606TIP3    H135013   3.155   6.563  16.951  0.0769 -1.5055 -1.7412
 3606TIP3    H235014   3.274   6.471  16.970 -0.6974 -2.0998  0.6720
 3607TIP3   OH235015   1.133   5.042  17.520  0.0427  0.1086  0.0165
 3607TIP3    H135016   1.132   5.126  17.475 -2.5910  0.0952 -0.0706
 3607TIP3    H235017   1.091   4.981  17.460 -0.3071 -0.7055  1.0553
 3608TIP3   OH235018   3.390   2.548  16.325 -0.0144  0.0433 -0.5176
 3608TIP3    H135019   3.409   2.614  16.258 -0.3016 -0.6263 -1.2848
 3608TIP3    H235020   3.368   2.469  16.275  2.0123 -1.1568  0.3479
 3609TIP3   OH235021   7.995   3.225  18.301  0.6252 -0.0397 -0.3104
 3609TIP3    H135022   8.076   3.175  18.291  0.4182 -0.6020  0.7435
 3609TIP3    H235023   8.024   3.316  18.308  1.1736 -0.2448  0.1322
 3610TIP3   OH235024   0.693   4.479  16.502  0.1193 -0.2374  0.1960
 3610TIP3    H135025   0.693   4.563  16.548  0.1807  1.1586 -2.1701
 3610TIP3    H235026   0.667   4.501  16.412  1.4508 -2.5504 -0.8503
 3611TIP3   OH235027   3.384   0.382  16.299 -0.6524  0.4290  0.0254
 3611TIP3    H135028   3.350   0.299  16.266  2.9949 -0.6832 -1.3075
 3611TIP3    H235029   3.433   0.419  16.226  0.5872  2.1264  1.6413
 3612TIP3   OH235030   2.526   4.791  16.322 -0.2145 -0.3588 -0.2710
 3612TIP3    H135031   2.445   4.761  16.364 -0.5168 -0.7241 -1.1041
 3612TIP3    H235032   2.529   4.885  16.340 -1.5470 -0.0655 -1.3910
 3613TIP3   OH235033   1.709   5.080  17.313 -0.6834 -0.2594  0.0668
 3613TIP3    H135034   1.689   5.100  17.405 -0.9812 -1.0114  0.1712
 3613TIP3    H235035   1.642   5.127  17.263 -0.7666 -0.1713  0.2584
 3614TIP3   OH235036   0.103   2.553  16.437 -0.6103  0.0194  0.2929
 3614TIP3    H135037   0.119   2.622  16.372  0.9637 -0.6777 -0.1161
 3614TIP3    H235038   0.026   2.507  16.405 -0.0115 -0.1542 -0.9695
 3615TIP3   OH235039   7.022   3.043  15.961  0.1174 -0.8243  0.2129
 3615TIP3    H135040   7.069   3.037  16.044  1.5614 -0.7158 -0.5645
 3615TIP3    H235041   6.987   2.955  15.946  0.9443 -1.1703  0.3081
 3616TIP3   OH235042   3.112   1.531  17.438  0.1538  0.3332  0.0136
 3616TIP3    H135043   3.030   1.557  17.397 -0.5231 -0.6174  0.7423
 3616TIP3    H235044   3.107   1.567  17.527  0.1046 -0.5033  0.3595
 3617TIP3   OH235045   2.073   0.904  17.450 -0.2619 -0.0592 -0.1667
 3617TIP3    H135046   2.073   0.847  17.373  0.1111 -0.0501 -0.1764
 3617TIP3    H235047   2.162   0.900  17.483  0.1527  1.5492 -0.9384
 3618TIP3   OH235048   0.338   4.884  16.823 -0.0388 -0.1062  0.1485
 3618TIP3    H135049   0.256   4.934  16.827 -0.6754 -0.8520 -1.8694
 3618TIP3    H235050   0.312   4.795  16.847  0.0417 -0.4413 -0.9309
 3619TIP3   OH235051   7.299   5.672  16.715 -0.4380 -0.1215 -0.1423
 3619TIP3    H135052   7.295   5.726  16.794  0.9318  1.2990 -0.9637
 3619TIP3    H235053   7.333   5.588  16.745  2.0054  1.0088  0.5806
 3620TIP3   OH235054   5.088   0.690  16.741 -0.3129  0.1103  0.4420
 3620TIP3    H135055   5.170   0.649  16.768 -0.1704 -0.3878 -0.6939
 3620TIP3    H235056   5.022   0.621  16.751 -0.7256  0.6586  1.8595
 3621TIP3   OH235057   5.296   1.792  16.591  0.0396 -0.3476 -0.3260
 3621TIP3    H135058   5.220   1.850  16.592  0.3071  0.0127  1.0069
 3621TIP3    H235059   5.323   1.789  16.499  0.4699  2.2554 -0.3488
 3622TIP3   OH235060   7.400   0.849  16.396  0.1772  0.3662 -0.2430
 3622TIP3    H135061   7.477   0.849  16.340 -1.4192  0.4834 -2.5694
 3622TIP3    H235062   7.420   0.913  16.465  3.1036 -1.4371  0.7579
 3623TIP3   OH235063   1.936   4.731  16.533 -0.3398 -0.0351 -0.2600
 3623TIP3    H135064   1.896   4.770  16.456  0.9938  1.4884 -0.2397
 3623TIP3    H235065   1.988   4.659  16.500  0.0010  0.4366 -0.7597
 3624TIP3   OH235066   5.653   3.534  17.197 -0.1077  0.2226  0.7275
 3624TIP3    H135067   5.565   3.496  17.190  0.2801 -1.0085  1.9891
 3624TIP3    H235068   5.700   3.474  17.255  1.9119  0.2400 -0.7991
 3625TIP3   OH235069   0.974   6.284  16.402  0.1912 -0.2296 -0.1748
 3625TIP3    H135070   0.939   6.198  16.424 -2.1601  1.1669  2.0867
 3625TIP3    H235071   1.011   6.317  16.484 -1.0909  1.7908 -0.3180
 3626TIP3   OH235072   6.372   1.400  16.439  0.1239 -0.0276  0.3680
 3626TIP3    H135073   6.307   1.470  16.444  1.2514  1.2690 -1.8417
 3626TIP3    H235074   6.328   1.330  16.391 -0.0788  0.3385  0.0127
 3627TIP3   OH235075   4.330   2.152  16.441 -0.1287  0.0390 -0.0269
 3627TIP3    H135076   4.294   2.093  16.507 -0.3362  2.6072  2.3015
 3627TIP3    H235077   4.253   2.192  16.401  0.0314 -0.6447 -1.0562
 3628TIP3   OH235078   3.025   5.990  17.395  0.1028  0.7046 -0.0918
 3628TIP3    H135079   3.069   5.981  17.480  0.4549 -0.0517 -0.3400
 3628TIP3    H235080   2.932   5.982  17.415  0.0333  2.4940  0.4661
 3629TIP3   OH235081   1.863   2.524  17.534  0.6558  0.6987  0.5513
 3629TIP3    H135082   1.828   2.460  17.596  0.7860  1.1003  1.0447
 3629TIP3    H235083   1.882   2.601  17.587  1.6689  0.7164  0.1778
 3630TIP3   OH235084   3.555   3.230  18.024 -0.0117 -0.1365 -0.5722
 3630TIP3    H135085   3.520   3.163  18.083  0.2335  0.4179  0.2199
 3630TIP3    H235086   3.480   3.286  18.005  0.3394  0.9103  0.9304
 3631TIP3   OH235087   1.080   5.656  16.124  0.2601 -0.0582  0.1098
 3631TIP3    H135088   0.991   5.645  16.159  0.3338 -2.9054 -0.3579
 3631TIP3    H235089   1.136   5.650  16.201  0.0997  3.1585  0.6094
 3632TIP3   OH235090   6.073   6.690  17.405 -0.2507  0.5511  0.4916
 3632TIP3    H135091   6.086   6.596  17.418  1.5006  0.3742 -1.9093
 3632TIP3    H235092   6.032   6.697  17.319  0.6052  2.0004  0.1628
 3633TIP3   OH235093   8.162   0.623  18.119 -0.3707  0.0905  0.2783
 3633TIP3    H135094   8.252   0.593  18.101 -0.5692 -0.1781 -0.2873
 3633TIP3    H235095   8.141   0.680  18.045 -1.1816 -0.9914 -0.3475
 3634TIP3   OH235096   2.169   4.651  17.200 -0.2681  0.1769  0.3061
 3634TIP3    H135097   2.133   4.734  17.168 -0.6138  0.5319  1.5763
 3634TIP3    H235098   2.096   4.608  17.244  0.0736 -0.5285  0.1994
 3635TIP3   OH235099   0.458   2.036  15.682 -0.0147  0.5898 -0.1215
 3635TIP3    H135100   0.495   2.070  15.600 -0.3797 -0.3179 -0.6812
 3635TIP3    H235101   0.370   2.073  15.685  0.2352  1.1766  0.2222
 3636TIP3   OH235102   7.016   7.448  17.110  0.7871 -0.1732 -0.5892
 3636TIP3    H135103   7.073   7.371  17.112  2.3275  0.9223 -0.1799
 3636TIP3    H235104   7.073   7.519  17.083 -0.6183  0.8340 -1.0249
 3637TIP3   OH235105   1.105   5.064  17.022  0.6561  0.0729  0.0484
 3637TIP3    H135106   1.109   5.126  16.949  0.3520  0.7543  0.5966
 3637TIP3    H235107   1.029   5.092  17.073  0.4404 -0.8430  0.2360
 3638TIP3   OH235108   6.321   8.076  16.310 -0.3284 -0.1228  0.1218
 3638TIP3    H135109   6.329   8.157  16.260 -1.1751  0.0146  0.1893
 3638TIP3    H235110   6.410   8.057  16.340  0.2512 -0.3473 -1.6400
 3639TIP3   OH235111   5.883   8.094  17.618 -0.0952 -0.2200 -0.0506
 3639TIP3    H135112   5.939   8.170  17.633 -1.2580  0.7922 -0.5883
 3639TIP3    H235113   5.935   8.035  17.563  0.5067  0.5875 -0.3618
 3640TIP3   OH235114   7.596   1.564  17.422  0.2685 -0.0611  0.5661
 3640TIP3    H135115   7.669   1.504  17.433  0.8183  0.5284  0.2233
 3640TIP3    H235116   7.588   1.609  17.506 -0.2028 -0.6623  0.8508
 3641TIP3   OH235117   7.071   6.220  16.753  0.5833 -0.2735 -0.2203
 3641TIP3    H135118   7.129   6.186  16.684  0.8644 -0.9910  0.3473
 3641TIP3    H235119   6.995   6.162  16.751 -0.7154  1.3790 -1.7604
 3642TIP3   OH235120   7.523   8.171  16.018 -0.7989 -0.0020  0.0839
 3642TIP3    H135121   7.528   8.125  15.935  0.0637  0.3762 -0.0859
 3642TIP3    H235122   7.449   8.231  16.008  0.7610  1.8075 -1.3461
 3643TIP3   OH235123   7.725   4.421  16.286  0.3119 -0.0549  0.1312
 3643TIP3    H135124   7.805   4.371  16.304  0.3845 -0.2521 -0.6915
 3643TIP3    H235125   7.743   4.468  16.205 -0.1966  0.3612  0.2529
 3644TIP3   OH235126   2.114   6.027  15.722  0.3387  0.1146 -0.0631
 3644TIP3    H135127   2.165   5.948  15.743  0.9946  0.2193 -1.1729
 3644TIP3    H235128   2.174   6.081  15.670 -1.3723 -0.4681 -2.8307
 3645TIP3   OH235129   5.766   1.700  17.014 -0.2260 -0.2955 -0.2258
 3645TIP3    H135130   5.760   1.654  16.930 -2.7472 -3.3558  1.4467
 3645TIP3    H235131   5.728   1.640  17.078  1.5636  1.8818  3.2011
 3646TIP3   OH235132   1.460   1.093  16.141 -0.0338 -0.2595 -0.3619
 3646TIP3    H135133   1.448   1.177  16.096 -0.6680 -0.1716 -0.0519
 3646TIP3    H235134   1.548   1.065  16.117  0.1477  0.4446 -0.5547
 3647TIP3   OH235135   1.371   3.044  16.230  0.0224 -0.4243 -0.2962
 3647TIP3    H135136   1.295   3.031  16.174 -2.1711 -0.5270  2.5258
 3647TIP3    H235137   1.430   2.971  16.207 -1.8353 -1.8221 -0.8491
 3648TIP3   OH235138   0.853   5.120  16.802  0.3808 -0.4520 -0.0165
 3648TIP3    H135139   0.761   5.104  16.823  0.1381 -0.6775 -1.1826
 3648TIP3    H235140   0.877   5.196  16.855 -0.4220 -0.4974  0.4295
 3649TIP3   OH235141   0.693   5.919  16.309 -0.0922 -0.4933  0.4759
 3649TIP3    H135142   0.786   5.931  16.328  0.1177  0.0161 -0.8192
 3649TIP3    H235143   0.671   5.989  16.248 -1.1581 -1.0283  0.2141
 3650TIP3   OH235144   0.103   6.617  16.777 -0.2317 -0.2391 -0.5800
 3650TIP3    H135145   0.047   6.686  16.743 -1.2029 -0.7721 -0.0861
 3650TIP3    H235146   0.085   6.541  16.721 -3.6236 -1.8763  2.3021
 3651TIP3   OH235147   5.031   8.164  16.480 -0.3905  0.5297  0.3223
 3651TIP3    H135148   5.076   8.201  16.404 -0.8137 -0.8760 -0.6511
 3651TIP3    H235149   4.964   8.229  16.502 -0.7388  0.6465 -0.9809
 3652TIP3   OH235150   2.216   2.657  15.536 -0.1379  0.6380 -0.0575
 3652TIP3    H135151   2.126   2.651  15.506 -0.0042 -0.4728 -0.2710
 3652TIP3    H235152   2.213   2.628  15.627 -0.1643  1.6895  0.2890
 3653TIP3   OH235153   5.297   7.958  16.720  0.2226  0.1888  0.0201
 3653TIP3    H135154   5.371   7.979  16.777  0.9962 -1.9598 -0.0903
 3653TIP3    H235155   5.332   7.971  16.631  0.1643  0.0665 -0.0212
 3654TIP3   OH235156   3.338   6.136  16.339 -0.2399 -0.0331  0.3121
 3654TIP3    H135157   3.376   6.140  16.251 -0.8368 -2.8390 -0.1680
 3654TIP3    H235158   3.311   6.225  16.358 -0.3860  0.5944 -2.4985
 3655TIP3   OH235159   3.441   4.127  17.434 -0.4519 -0.0209 -0.4595
 3655TIP3    H135160   3.488   4.196  17.480 -0.2983  0.7870 -1.7694
 3655TIP3    H235161   3.493   4.048  17.450  0.8568  0.6710 -1.0876
 3656TIP3   OH235162   6.156   2.017  17.760  0.0383 -0.2228 -0.0830
 3656TIP3    H135163   6.072   1.978  17.733 -0.1347 -0.3561  0.6360
 3656TIP3    H235164   6.164   2.096  17.706 -0.3763 -0.3976 -0.4102
 3657TIP3   OH235165   5.672   8.142  16.403  0.1736  0.3966 -0.5017
 3657TIP3    H135166   5.728   8.065  16.393 -1.6743 -1.2509  1.1236
 3657TIP3    H235167   5.602   8.114  16.461 -1.2244  2.9928 -0.7774
 3658TIP3   OH235168   1.480   1.110  17.432 -1.0617  0.2658  0.2327
 3658TIP3    H135169   1.459   1.196  17.468  0.8096  1.4299 -1.2858
 3658TIP3    H235170   1.455   1.116  17.340  1.4022  0.1295 -0.5109
 3659TIP3   OH235171   0.795   5.683  16.186 -0.0569 -0.7948 -0.2765
 3659TIP3    H135172   0.755   5.697  16.100  0.5191 -2.2126 -0.7995
 3659TIP3    H235173   0.760   5.753  16.240  0.9945  1.3125 -2.1305
 3660TIP3   OH235174   1.861   5.199  16.661  0.4836  0.2356  0.1744
 3660TIP3    H135175   1.827   5.198  16.750  1.4027 -0.5932  0.5406
 3660TIP3    H235176   1.829   5.281  16.623 -2.1852 -0.6357  0.3376
 3661TIP3   OH235177   1.317   2.451  17.782 -0.5889 -0.4144  0.0932
 3661TIP3    H135178   1.412   2.454  17.796 -0.6721  1.5049  0.4720
 3661TIP3    H235179   1.281   2.458  17.871 -1.0850 -0.3711 -0.1142
 3662TIP3   OH235180   2.936   3.558  17.764  0.3422 -0.1707 -0.2782
 3662TIP3    H135181   3.027   3.570  17.737 -0.1927  0.9034 -1.7231
 3662TIP3    H235182   2.887   3.623  17.714 -0.7336  2.3292  3.5463
 3663TIP3   OH235183   6.071   8.337  17.620 -0.3410 -0.4869 -0.0860
 3663TIP3    H135184   6.160   8.364  17.594 -0.6598 -1.0459 -1.8822
 3663TIP3    H235185   6.015   8.410  17.592 -0.6078 -0.7888 -0.3503
 3664TIP3   OH235186   6.268   4.223  17.723  0.0087 -0.3273  0.3689
 3664TIP3    H135187   6.345   4.169  17.704 -0.4361 -0.3030 -1.7638
 3664TIP3    H235188   6.302   4.297  17.774  1.6025  0.2331 -1.4075
 3665TIP3   OH235189   6.555   0.903  17.433  0.5211 -0.1365  0.7643
 3665TIP3    H135190   6.572   0.811  17.411  0.1776 -0.7623  2.9055
 3665TIP3    H235191   6.642   0.943  17.439  0.8634 -1.0211  2.4320
 3666TIP3   OH235192   5.934   6.325  17.610  0.0386 -0.0204 -0.1596
 3666TIP3    H135193   5.922   6.420  17.604  1.0577  0.1035 -0.4731
 3666TIP3    H235194   5.910   6.293  17.523  0.0474 -0.0045 -0.1684
 3667TIP3   OH235195   0.178   5.790  16.821  0.2953  0.0269 -0.0634
 3667TIP3    H135196   0.270   5.766  16.812  0.3375 -0.3158  1.0733
 3667TIP3    H235197   0.179   5.884  16.837  0.5499 -0.1396  1.0121
 3668TIP3   OH235198   3.467   0.878  16.019  0.3785 -0.3041  0.1209
 3668TIP3    H135199   3.522   0.940  15.971 -1.0971  0.7457 -0.2812
 3668TIP3    H235200   3.451   0.807  15.956  1.0501 -0.4984  0.1601
 3669TIP3   OH235201   3.560   7.034  17.036  0.0054 -0.4515 -0.1443
 3669TIP3    H135202   3.502   6.981  17.091 -0.5214 -0.7060 -0.9090
 3669TIP3    H235203   3.595   6.971  16.972  0.3956 -0.1152 -0.2628
 3670TIP3   OH235204   2.286   5.455  16.191  0.0756 -0.1263 -0.1150
 3670TIP3    H135205   2.237   5.534  16.168  0.5889 -0.3513 -2.2093
 3670TIP3    H235206   2.240   5.384  16.146  0.5838 -0.7732  0.3687
 3671TIP3   OH235207   2.256   7.546  15.835 -0.2332  0.0442 -0.4934
 3671TIP3    H135208   2.325   7.609  15.812 -0.9921  1.5460  1.0968
 3671TIP3    H235209   2.187   7.561  15.771 -1.0779  2.0611  0.7719
 3672TIP3   OH235210   7.109   7.284  15.367  0.0609 -0.3185  0.0141
 3672TIP3    H135211   7.190   7.285  15.316 -0.6017 -0.3475 -1.0892
 3672TIP3    H235212   7.066   7.202  15.343 -0.0155 -0.6019  1.0712
 3673TIP3   OH235213   7.939   2.874  17.790 -0.5939 -0.1276  0.2078
 3673TIP3    H135214   7.940   2.786  17.753  0.4843  0.3882 -1.0568
 3673TIP3    H235215   7.976   2.864  17.877  0.8560 -0.7226 -0.4580
 3674TIP3   OH235216   4.744   5.037  17.022 -0.4470 -0.1603  0.0702
 3674TIP3    H135217   4.750   5.088  17.103  0.5171 -2.1499  1.3310
 3674TIP3    H235218   4.799   5.085  16.959 -2.2681  2.1401  0.1125
 3675TIP3   OH235219   3.201   2.855  16.481  0.3955 -0.2922  0.4357
 3675TIP3    H135220   3.167   2.886  16.565 -3.6087 -0.3681 -0.9513
 3675TIP3    H235221   3.199   2.760  16.489  0.1710 -0.2978  0.3052
 3676TIP3   OH235222   2.770   2.702  16.568 -0.4925  0.6361 -0.0572
 3676TIP3    H135223   2.714   2.728  16.641  1.7063 -0.1040  2.0203
 3676TIP3    H235224   2.797   2.785  16.527 -0.7841  1.1365  0.7511
 3677TIP3   OH235225   6.607   2.041  16.390 -0.0068 -0.0013  0.2239
 3677TIP3    H135226   6.636   2.110  16.450  1.0161 -1.2056  1.1672
 3677TIP3    H235227   6.512   2.052  16.385  0.1963  1.9154 -0.2375
 3678TIP3   OH235228   6.081   2.515  16.751  0.2208  0.2634  0.0734
 3678TIP3    H135229   6.073   2.458  16.827 -0.0115  0.5476  0.2615
 3678TIP3    H235230   6.149   2.578  16.775 -0.5502  0.9739  0.4416
 3679TIP3   OH235231   3.693   5.742  15.673 -0.2267 -0.0724 -0.1820
 3679TIP3    H135232   3.714   5.687  15.749 -2.1141 -0.9254 -0.2289
 3679TIP3    H235233   3.755   5.713  15.605  0.7908 -0.0203  0.6986
 3680TIP3   OH235234   5.712   5.751  16.141  0.3040 -0.0689  0.0674
 3680TIP3    H135235   5.690   5.658  16.149 -0.2914 -0.2032 -2.2081
 3680TIP3    H235236   5.776   5.753  16.070 -1.2250  1.4049 -1.3562
 3681TIP3   OH235237   7.481   4.124  17.513  0.1243 -0.6676 -0.1814
 3681TIP3    H135238   7.467   4.069  17.436  0.4466 -0.2879 -0.5076
 3681TIP3    H235239   7.398   4.118  17.561 -0.2862 -0.4446 -0.8476
 3682TIP3   OH235240   1.940   1.457  15.207  0.2619  0.0306  0.9746
 3682TIP3    H135241   2.026   1.492  15.231  0.6405  0.2914 -0.6190
 3682TIP3    H235242   1.880   1.531  15.219  0.7020  0.6213 -0.3114
 3683TIP3   OH235243   5.250   1.226  16.562  0.0995 -0.6117 -0.0412
 3683TIP3    H135244   5.167   1.213  16.516 -0.6784  0.7392  0.9290
 3683TIP3    H235245   5.271   1.318  16.548  1.5359 -0.9563 -0.3789
 3684TIP3   OH235246   5.594   8.189  17.297 -0.3088  0.6239 -0.1038
 3684TIP3    H135247   5.615   8.131  17.370  2.0566 -0.2233 -1.3371
 3684TIP3    H235248   5.620   8.140  17.219 -2.0906  1.7787 -1.4977
 3685TIP3   OH235249   7.304   5.101  17.258 -0.1674 -0.2785  0.2374
 3685TIP3    H135250   7.390   5.060  17.248 -1.1674 -2.4203 -0.1405
 3685TIP3    H235251   7.304   5.173  17.195 -0.2626 -3.1218 -3.2901
 3686TIP3   OH235252   0.984   5.902  16.684 -0.2373 -0.0260  0.0735
 3686TIP3    H135253   0.900   5.929  16.720  0.3478  1.0897  0.6321
 3686TIP3    H235254   1.043   5.897  16.760  0.8193  1.6162 -0.5918
 3687TIP3   OH235255   2.962   5.314  17.484 -0.2390 -0.6446 -0.0847
 3687TIP3    H135256   3.051   5.304  17.518  0.2069  0.6157 -0.8127
 3687TIP3    H235257   2.914   5.360  17.553 -0.1469 -0.7235  0.0313
 3688TIP3   OH235258   2.694   6.177  16.327 -0.4089 -0.2348  0.0704
 3688TIP3    H135259   2.720   6.168  16.235 -1.9958  1.6675 -0.6193
 3688TIP3    H235260   2.601   6.153  16.328 -0.1954 -1.1543  1.3999
 3689TIP3   OH235261   2.231   5.902  17.377 -0.0009  0.0024 -0.2119
 3689TIP3    H135262   2.236   5.998  17.382 -0.0374 -0.0353  0.8939
 3689TIP3    H235263   2.273   5.872  17.458  0.5631 -0.9402 -0.8414
 3690TIP3   OH235264   2.074   2.933  17.298  1.2250 -0.3976 -0.9736
 3690TIP3    H135265   2.022   2.871  17.350  0.3484  2.3652  1.7499
 3690TIP3    H235266   2.153   2.946  17.351  1.9083 -0.0172 -2.0700
 3691TIP3   OH235267   7.075   2.622  16.720 -0.4260 -0.0245 -0.2161
 3691TIP3    H135268   7.081   2.651  16.629  0.5084 -3.2257 -1.3169
 3691TIP3    H235269   7.163   2.637  16.756 -0.0791 -0.9712 -0.6380
 3692TIP3   OH235270   4.791   0.009  17.557 -0.4607 -0.0155 -0.3071
 3692TIP3    H135271   4.707  -0.011  17.516 -0.0073 -2.6001 -0.1537
 3692TIP3    H235272   4.768   0.040  17.645 -1.2860 -0.8743 -0.2001
 3693TIP3   OH235273   3.368   3.544  17.312  0.3750  0.5536 -0.3062
 3693TIP3    H135274   3.292   3.515  17.362  0.6364 -0.1690 -0.3050
 3693TIP3    H235275   3.436   3.480  17.334  0.1661 -0.5084 -2.4745
 3694TIP3   OH235276   0.488   3.998  15.570  0.4601  0.4004  0.4205
 3694TIP3    H135277   0.440   4.080  15.583 -0.9644 -0.0422 -1.6702
 3694TIP3    H235278   0.454   3.939  15.638  0.3685  1.0492  0.9443
 3695TIP3   OH235279   6.847   4.807  17.252 -0.0633 -0.0065 -0.3383
 3695TIP3    H135280   6.776   4.826  17.191 -1.3108 -3.0200  0.0099
 3695TIP3    H235281   6.812   4.830  17.338  0.7986  1.9495 -0.4743
 3696TIP3   OH235282   2.436   8.195  16.989  0.3034 -0.1711 -0.4216
 3696TIP3    H135283   2.444   8.107  17.025 -1.5683  0.5464  2.0191
 3696TIP3    H235284   2.509   8.244  17.028 -0.7235  0.1688  1.2043
 3697TIP3   OH235285   5.210   4.526  17.398  0.1320  0.2012 -0.3192
 3697TIP3    H135286   5.265   4.500  17.324  0.2406  1.3712 -0.6788
 3697TIP3    H235287   5.140   4.578  17.358  0.1133  0.7294  0.3731
 3698TIP3   OH235288   5.076   7.706  16.013 -0.2665  0.1411 -0.5958
 3698TIP3    H135289   4.993   7.665  15.991 -0.4291 -0.2535  0.6735
 3698TIP3    H235290   5.140   7.662  15.957 -0.7905 -0.1334 -0.9858
 3699TIP3   OH235291   3.224   1.574  16.832 -0.2953 -0.2006 -0.7180
 3699TIP3    H135292   3.309   1.602  16.867 -0.1360 -0.0739 -1.2102
 3699TIP3    H235293   3.220   1.611  16.744 -0.4904 -0.9187 -1.0213
 3700TIP3   OH235294   4.599   3.186  17.048  0.2615  0.5538 -0.2381
 3700TIP3    H135295   4.552   3.268  17.035  1.4528  1.1145 -1.2717
 3700TIP3    H235296   4.676   3.210  17.099 -0.4640 -0.3306  1.3559
 3701TIP3   OH235297   7.007   6.163  17.290 -0.3394 -0.1877 -0.2320
 3701TIP3    H135298   6.916   6.155  17.262 -0.6209 -1.2435  0.9107
 3701TIP3    H235299   7.051   6.204  17.216 -2.1605  2.4916  0.0400
 3702TIP3   OH235300   4.934   7.832  16.407 -0.5243  0.0452 -0.3261
 3702TIP3    H135301   4.993   7.906  16.421 -1.3188  0.6241 -0.0023
 3702TIP3    H235302   4.882   7.856  16.330 -0.2116 -0.5575 -0.7447
 3703TIP3   OH235303   1.921   1.085  17.182  0.0133 -0.3470 -0.1509
 3703TIP3    H135304   1.842   1.106  17.232 -0.9078 -0.7594 -1.3862
 3703TIP3    H235305   1.944   0.997  17.212  0.4460  0.0499  0.7323
 3704TIP3   OH235306   2.635   1.460  17.131 -0.2170  0.7816  0.2353
 3704TIP3    H135307   2.651   1.529  17.066 -1.1762 -0.0470 -0.9406
 3704TIP3    H235308   2.581   1.501  17.198 -0.4549  1.2794 -0.2587
 3705TIP3   OH235309   7.433   7.349  16.605  0.8975  0.0301  0.6260
 3705TIP3    H135310   7.473   7.303  16.531  2.0032  1.8810 -0.0113
 3705TIP3    H235311   7.339   7.344  16.589  1.0677 -0.6235 -0.2439
 3706TIP3   OH235312   4.810   3.094  17.577  0.4310  0.4605  0.0302
 3706TIP3    H135313   4.860   3.161  17.624  0.8813 -1.0826  1.8892
 3706TIP3    H235314   4.851   3.089  17.491  1.6387  1.2210  0.5369
 3707TIP3   OH235315   7.523   3.441  16.773 -0.5669 -0.0428  0.1631
 3707TIP3    H135316   7.605   3.489  16.759 -0.3558 -0.3125  0.4343
 3707TIP3    H235317   7.456   3.494  16.732 -0.3093  0.3848  0.2904
 3708TIP3   OH235318   5.998   1.260  17.449 -0.1285 -0.2691  0.5888
 3708TIP3    H135319   6.054   1.277  17.373 -0.0025  0.1015  0.7594
 3708TIP3    H235320   6.030   1.178  17.485 -0.2939 -0.5272  0.1447
 3709TIP3   OH235321   1.757   4.482  15.575 -0.0167  0.7460  0.3232
 3709TIP3    H135322   1.663   4.464  15.567  0.3675 -0.5394 -2.2832
 3709TIP3    H235323   1.772   4.556  15.515  0.5141  1.6374  1.5120
 3710TIP3   OH235324   6.221   3.958  16.172 -0.1281  0.3138  0.0335
 3710TIP3    H135325   6.278   3.906  16.116 -0.6281 -0.5494  0.3145
 3710TIP3    H235326   6.244   4.049  16.151 -0.3889  0.0187 -1.6667
 3711TIP3   OH235327   4.823   7.802  16.894  0.4751  0.5151  0.2031
 3711TIP3    H135328   4.750   7.758  16.850  0.7565  1.0926 -0.8815
 3711TIP3    H235329   4.868   7.733  16.942  0.5182 -0.2580 -0.9321
 3712TIP3   OH235330   6.507   1.829  17.429  0.3010 -0.2312 -0.6100
 3712TIP3    H135331   6.590   1.815  17.474 -0.7901 -1.8630  1.0327
 3712TIP3    H235332   6.471   1.909  17.468  0.0501 -0.8202  0.3948
 3713TIP3   OH235333   5.290   3.564  17.462 -0.6448  0.4630 -0.2281
 3713TIP3    H135334   5.377   3.573  17.501  0.1757 -1.7931 -1.3324
 3713TIP3    H235335   5.307   3.544  17.370 -2.1804 -2.3721 -0.0039
 3714TIP3   OH235336   1.872   6.000  16.468  0.1011 -0.3013 -0.3581
 3714TIP3    H135337   1.815   6.076  16.453  1.4444  0.9921  0.7254
 3714TIP3    H235338   1.906   6.013  16.556  2.8767 -0.4230 -1.3171
 3715TIP3   OH235339   4.240   4.495  16.500 -0.0147 -0.2007 -0.2362
 3715TIP3    H135340   4.197   4.551  16.435 -0.4328 -1.4211 -1.0426
 3715TIP3    H235341   4.326   4.535  16.512  0.1217  0.0040 -1.6445
 3716TIP3   OH235342   5.627   5.517  16.261  0.3375 -0.1946 -0.2615
 3716TIP3    H135343   5.532   5.526  16.269  0.4787  1.3531 -0.1678
 3716TIP3    H235344   5.639   5.430  16.222 -1.0652 -0.7887  0.5728
 3717TIP3   OH235345   5.692   5.148  16.656 -0.3037 -0.1848 -0.3498
 3717TIP3    H135346   5.603   5.177  16.679  0.7150  2.3539  0.7245
 3717TIP3    H235347   5.719   5.208  16.586  1.4993  0.8762  1.1726
 3718TIP3   OH235348   2.852   7.372  16.907 -0.2921 -0.5224  0.2206
 3718TIP3    H135349   2.877   7.303  16.846  0.4564 -1.2724  1.3375
 3718TIP3    H235350   2.920   7.371  16.974  0.0027  1.6488  0.0278
 3719TIP3   OH235351   8.228   6.162  18.155  0.5888 -0.3497  0.5624
 3719TIP3    H135352   8.297   6.227  18.157  0.3286 -0.0645  0.3908
 3719TIP3    H235353   8.153   6.207  18.115  0.8234 -1.1591 -0.8515
 3720TIP3   OH235354   5.485   2.087  16.641  0.8051  0.1169 -1.1054
 3720TIP3    H135355   5.475   2.058  16.732  2.9674  0.2102 -0.7676
 3720TIP3    H235356   5.397   2.086  16.605 -0.1620  0.4305  1.1013
 3721TIP3   OH235357   0.177   6.527  18.205  0.0425 -0.2435  0.0471
 3721TIP3    H135358   0.218   6.511  18.121  0.9436 -0.6079  0.5406
 3721TIP3    H235359   0.247   6.564  18.259 -1.2787  3.0440 -0.2672
 3722TIP3   OH235360   8.435   3.544  16.594 -0.2908 -0.2733  0.1101
 3722TIP3    H135361   8.377   3.577  16.525 -1.9092 -0.0924  1.4958
 3722TIP3    H235362   8.420   3.450  16.595 -1.1636 -0.1438  0.9517
 3723TIP3   OH235363   5.814   1.040  16.803  0.1390  0.0463  0.6474
 3723TIP3    H135364   5.821   0.956  16.849 -0.2610  1.1226  2.7935
 3723TIP3    H235365   5.793   1.016  16.713 -0.5507 -2.1569  1.3214
 3724TIP3   OH235366   6.348   2.711  16.667 -0.5090  0.6302  0.5236
 3724TIP3    H135367   6.414   2.651  16.631 -2.0278 -0.9084  0.1607
 3724TIP3    H235368   6.354   2.699  16.761  0.6710  1.5863  0.5997
 3725TIP3   OH235369   3.161   8.058  16.294  0.6599 -0.6320  0.2342
 3725TIP3    H135370   3.097   8.074  16.224  0.8336  0.3316  0.2850
 3725TIP3    H235371   3.228   8.004  16.253  1.0361  0.3659 -0.5152
 3726TIP3   OH235372   4.858   2.211  17.426 -0.5722  0.1795 -0.0130
 3726TIP3    H135373   4.782   2.188  17.372  0.0196 -0.1688 -0.7091
 3726TIP3    H235374   4.820   2.241  17.509 -1.4725  0.1211 -0.3930
 3727TIP3   OH235375   4.559   4.820  17.079  0.3454  0.1263  0.6209
 3727TIP3    H135376   4.465   4.840  17.079  0.3100 -0.0324  0.3757
 3727TIP3    H235377   4.600   4.897  17.040  0.2053 -0.2823 -0.3705
 3728TIP3   OH235378   0.176   1.329  16.026 -0.3639 -0.4052  0.5506
 3728TIP3    H135379   0.178   1.418  15.989 -1.1232 -0.4264  0.4381
 3728TIP3    H235380   0.108   1.333  16.093 -1.2992 -1.2076 -0.3052
 3729TIP3   OH235381   8.363   0.006  16.561 -0.2147 -0.3177 -0.0258
 3729TIP3    H135382   8.406  -0.078  16.570  0.2193 -0.6147 -3.5718
 3729TIP3    H235383   8.432   0.066  16.532 -0.9411  0.8138  0.4728
 3730TIP3   OH235384   1.795   6.604  15.876 -0.2896  0.2421 -0.0724
 3730TIP3    H135385   1.788   6.668  15.806 -0.3647  0.9851  0.6018
 3730TIP3    H235386   1.883   6.615  15.911 -0.4788  0.3495  0.3895
 3731TIP3   OH235387   4.078   3.412  15.885  0.3535  0.3841 -0.4788
 3731TIP3    H135388   4.031   3.473  15.941  0.4824  2.1610 -2.1879
 3731TIP3    H235389   4.167   3.411  15.920 -0.0711 -0.2902  0.6533
 3732TIP3   OH235390   7.675   7.724  16.092  0.0846 -0.3942 -0.4609
 3732TIP3    H135391   7.607   7.779  16.132  0.4437 -0.2976  0.0263
 3732TIP3    H235392   7.645   7.710  16.002 -0.6393 -0.4436 -0.2186
 3733TIP3   OH235393   3.847   8.372  15.423  0.4788 -0.2663  0.3863
 3733TIP3    H135394   3.937   8.403  15.422  0.4518  0.2933  3.4412
 3733TIP3    H235395   3.854   8.281  15.451  0.1364 -0.5305 -0.3775
 3734TIP3   OH235396   8.278   7.110  16.350  0.1560  0.2116  0.1815
 3734TIP3    H135397   8.246   7.025  16.319  2.4706 -0.8800  0.4798
 3734TIP3    H235398   8.374   7.101  16.348  0.5306  3.2055 -0.7571
 3735TIP3   OH235399   2.309   8.214  15.582  0.2205 -0.1668  0.2453
 3735TIP3    H135400   2.258   8.294  15.582 -1.4763 -1.0128 -3.6669
 3735TIP3    H235401   2.255   8.150  15.629  0.4747  0.3315  1.2470
 3736TIP3   OH235402   8.083   1.967  17.206  0.4221  0.3024  0.1134
 3736TIP3    H135403   8.119   2.023  17.275  3.0584 -1.2946  0.1787
 3736TIP3    H235404   8.077   2.024  17.129  3.2738  0.7363  0.0991
 3737TIP3   OH235405   1.255   7.493  15.575  0.1302  0.3057  0.3382
 3737TIP3    H135406   1.219   7.543  15.648  0.9376  0.4872  0.6222
 3737TIP3    H235407   1.318   7.552  15.533  0.0509  0.0225 -0.1892
 3738TIP3   OH235408   1.214   5.958  16.206  0.0618  0.0498  0.2703
 3738TIP3    H135409   1.136   5.989  16.161 -0.9874 -1.3995  0.9822
 3738TIP3    H235410   1.281   6.023  16.188 -1.0513  0.8355 -1.1570
 3739TIP3   OH235411   1.184   1.428  17.550 -0.4421  0.3543  0.2931
 3739TIP3    H135412   1.145   1.476  17.624 -0.4345  0.0509  0.4945
 3739TIP3    H235413   1.124   1.355  17.536 -0.8401  0.8110 -0.4733
 3740TIP3   OH235414   2.531   3.159  16.779  0.1551 -0.0115  0.5829
 3740TIP3    H135415   2.480   3.103  16.837  0.2979  0.9245  1.6508
 3740TIP3    H235416   2.622   3.134  16.795  0.2904  1.1916  1.8252
 3741TIP3   OH235417   4.721   0.295  16.061  0.0910 -0.3086 -0.0194
 3741TIP3    H135418   4.805   0.340  16.059  0.4673 -1.0137 -1.5351
 3741TIP3    H235419   4.672   0.333  15.989 -1.1983  0.5835  1.2615
 3742TIP3   OH235420   0.132   8.314  18.215 -0.1688 -0.9153 -0.0948
 3742TIP3    H135421   0.069   8.248  18.185  0.2326 -1.2539 -0.2044
 3742TIP3    H235422   0.088   8.356  18.289 -0.4592 -1.2638 -0.0627
 3743TIP3   OH235423   3.717   6.723  17.169 -0.1491 -0.2295  0.3945
 3743TIP3    H135424   3.698   6.660  17.238  1.6026  0.7341  1.8569
 3743TIP3    H235425   3.761   6.795  17.214  0.9295  0.5169 -1.7162
 3744TIP3   OH235426   7.766   0.345  17.576 -0.2425  0.6026  0.2901
 3744TIP3    H135427   7.703   0.394  17.630  0.5132  0.8454  0.9693
 3744TIP3    H235428   7.810   0.412  17.524  0.2240  0.5648  0.6287
 3745TIP3   OH235429   5.378   7.539  17.001  0.4808 -0.0670  0.1703
 3745TIP3    H135430   5.408   7.487  17.076 -1.3767 -1.6439 -0.0913
 3745TIP3    H235431   5.332   7.613  17.040  0.6768 -0.1608  0.5855
 3746TIP3   OH235432   1.015   0.518  16.741  0.7147  0.2968 -0.3197
 3746TIP3    H135433   0.980   0.602  16.714  0.4010 -0.0995 -1.2003
 3746TIP3    H235434   0.984   0.457  16.674  1.1339 -0.4729  0.1743
 3747TIP3   OH235435   3.466   7.211  16.029 -0.3955  0.0666  0.4376
 3747TIP3    H135436   3.544   7.260  16.056 -0.7810 -0.2589  2.3013
 3747TIP3    H235437   3.495   7.120  16.028  0.4497  0.1931 -3.4849
 3748TIP3   OH235438   3.091   6.227  16.120 -0.0275 -0.6187  0.0592
 3748TIP3    H135439   3.017   6.172  16.143  1.1228 -1.7030  1.3274
 3748TIP3    H235440   3.118   6.196  16.034  0.4369 -1.8886  0.6395
 3749TIP3   OH235441   8.013   3.942  17.553 -0.2249 -0.5660  0.1828
 3749TIP3    H135442   7.981   3.987  17.632 -1.2667 -2.4508  0.8913
 3749TIP3    H235443   7.943   3.956  17.489 -0.3933 -0.8677  0.2969
 3750TIP3   OH235444   3.229   0.123  16.495 -0.0083  0.4126 -0.1853
 3750TIP3    H135445   3.251   0.169  16.414 -1.5052 -0.9336 -1.4365
 3750TIP3    H235446   3.174   0.050  16.467 -3.3661  1.7348  2.3077
 3751TIP3   OH235447   7.604   7.542  17.426 -0.6997  0.0888  0.1265
 3751TIP3    H135448   7.640   7.465  17.471 -0.7382  0.3964  0.6982
 3751TIP3    H235449   7.663   7.558  17.353  0.2381  0.4924  0.9526
 3752TIP3   OH235450   1.587   1.937  17.165  0.0386  0.6459  0.1280
 3752TIP3    H135451   1.593   2.031  17.177 -1.6645  0.6888  0.9016
 3752TIP3    H235452   1.600   1.900  17.252  2.1349  0.0330 -0.3862
 3753TIP3   OH235453   4.021   2.646  15.811  0.5278 -0.2653  0.4086
 3753TIP3    H135454   4.099   2.677  15.766 -0.8987 -0.6174 -2.5965
 3753TIP3    H235455   4.049   2.567  15.856  2.2272  0.4851  0.7504
 3754TIP3   OH235456   6.383   2.020  17.916 -0.1250 -0.3905  0.3298
 3754TIP3    H135457   6.421   1.933  17.923  1.7770  0.3103 -0.5568
 3754TIP3    H235458   6.299   2.007  17.872  0.9943 -1.6070 -1.5557
 3755TIP3   OH235459   6.148   5.833  15.866  0.3185 -0.0599 -0.2313
 3755TIP3    H135460   6.196   5.800  15.941  1.5340  3.3756  0.6447
 3755TIP3    H235461   6.209   5.825  15.792  0.5673  0.1604 -0.0487
 3756TIP3   OH235462   5.555   6.277  17.405  0.2992  0.1510 -0.0084
 3756TIP3    H135463   5.615   6.326  17.348  1.3275 -0.6309  0.3689
 3756TIP3    H235464   5.607   6.203  17.436 -1.0923 -0.9300 -0.1934
 3757TIP3   OH235465   6.157   7.378  18.023  0.3835 -0.1015 -0.5222
 3757TIP3    H135466   6.136   7.297  17.976 -2.1143 -0.5588  1.1884
 3757TIP3    H235467   6.245   7.363  18.057  0.7725 -1.2337 -1.9218
 3758TIP3   OH235468   1.655   4.863  17.862  0.1064  0.2403  0.0026
 3758TIP3    H135469   1.730   4.911  17.897 -0.4343  0.7105  0.5421
 3758TIP3    H235470   1.585   4.877  17.927 -0.6805  0.4738 -0.8697
 3759TIP3   OH235471   8.395   1.884  17.640  0.3883  0.9433 -0.1849
 3759TIP3    H135472   8.386   1.825  17.566 -0.0566  0.3504  0.3339
 3759TIP3    H235473   8.410   1.970  17.601  1.0279  0.4993 -0.9447
 3760TIP3   OH235474   4.861   0.525  17.257 -0.2701 -0.3509  0.4241
 3760TIP3    H135475   4.854   0.485  17.344  0.3899  0.7987  1.0408
 3760TIP3    H235476   4.947   0.497  17.225 -0.1427 -0.0747  0.5214
 3761TIP3   OH235477   7.296   4.034  16.442 -0.1482 -0.2008 -0.0374
 3761TIP3    H135478   7.389   4.048  16.424  0.5366 -3.8996 -0.0412
 3761TIP3    H235479   7.284   4.068  16.531  0.9657  1.0256 -0.3211
 3762TIP3   OH235480   1.684   5.011  17.603 -0.2631  0.3073 -0.2528
 3762TIP3    H135481   1.675   4.956  17.680 -1.6083  1.0706  0.1660
 3762TIP3    H235482   1.611   4.986  17.546  0.2088  0.3492 -0.8860
 3763TIP3   OH235483   6.913   7.089  15.438  0.2366 -0.0931 -0.4433
 3763TIP3    H135484   6.955   7.040  15.508  0.0044  1.4436  0.8332
 3763TIP3    H235485   6.861   7.024  15.391  2.8920 -1.7974 -1.2528
 3764TIP3   OH235486   1.746   5.101  15.523  0.2496  0.9392 -0.1813
 3764TIP3    H135487   1.761   5.196  15.519 -0.0870  0.9690 -0.8644
 3764TIP3    H235488   1.723   5.077  15.433 -0.0691  0.2802  0.0766
 3765TIP3   OH235489   0.566   5.110  17.165 -0.0871  0.1456 -0.0913
 3765TIP3    H135490   0.524   5.144  17.244 -0.3661 -0.9673  0.2617
 3765TIP3    H235491   0.503   5.127  17.095  0.3180  1.4654 -0.1478
 3766TIP3   OH235492   7.883   4.386  17.658  0.1027  0.2516 -0.2820
 3766TIP3    H135493   7.846   4.471  17.685 -0.4647  0.0950 -0.5563
 3766TIP3    H235494   7.851   4.374  17.569 -0.0109 -0.3617 -0.1573
 3767TIP3   OH235495   1.045   2.673  17.456  0.2507  0.7029 -0.3154
 3767TIP3    H135496   1.053   2.686  17.361  1.0874 -0.8934 -0.5003
 3767TIP3    H235497   1.136   2.667  17.486  0.0006 -1.4096  0.1584
 3768TIP3   OH235498   7.015   3.729  17.934  0.5732  0.2032  0.2094
 3768TIP3    H135499   6.991   3.646  17.973  0.7846  0.3867  0.7348
 3768TIP3    H235500   6.985   3.795  17.996  0.6320  0.5120 -0.0825
 3769TIP3   OH235501   6.888   7.598  16.477 -0.8413  1.0505  0.2198
 3769TIP3    H135502   6.882   7.584  16.382 -0.7400 -1.1263  0.4874
 3769TIP3    H235503   6.982   7.597  16.495 -0.8663 -1.9750  0.7048
 3770TIP3   OH235504   0.837   6.895  16.897 -0.0282  0.1041  0.0468
 3770TIP3    H135505   0.839   6.841  16.976 -3.0092 -0.1682  0.0441
 3770TIP3    H235506   0.793   6.841  16.831  1.9430  0.5076 -1.7339
 3771TIP3   OH235507   6.928   4.836  16.895  0.2526 -0.8201  0.2661
 3771TIP3    H135508   6.851   4.892  16.886 -0.6776 -2.0698  0.1841
 3771TIP3    H235509   6.988   4.865  16.827  0.3146  0.8572  0.9923
 3772TIP3   OH235510   0.453   2.349  16.941  0.2547  0.6285 -0.3379
 3772TIP3    H135511   0.489   2.362  17.029 -1.2694  1.5615  0.1892
 3772TIP3    H235512   0.358   2.350  16.954  0.0028  0.8646 -2.0157
 3773TIP3   OH235513   4.534   7.999  16.994  0.7693 -0.2811  0.2102
 3773TIP3    H135514   4.605   7.998  17.059 -0.4440 -2.6572  1.6580
 3773TIP3    H235515   4.454   7.996  17.046 -0.3881  0.8168 -1.4085
 3774TIP3   OH235516   5.267   5.862  16.254  0.2254 -0.1131 -0.5689
 3774TIP3    H135517   5.232   5.949  16.234  1.4238  0.2579 -1.1990
 3774TIP3    H235518   5.250   5.850  16.348  0.1404  0.8582 -0.4458
 3775TIP3   OH235519   1.763   5.178  16.909 -0.2851 -0.1080 -0.1812
 3775TIP3    H135520   1.836   5.184  16.970  1.0094 -1.6112 -1.4703
 3775TIP3    H235521   1.696   5.129  16.956 -1.0099  2.2307  1.4189
 3776TIP3   OH235522   6.155   7.516  17.003  0.1329  0.0642  0.1709
 3776TIP3    H135523   6.203   7.433  17.007 -0.1763 -0.1226  0.0588
 3776TIP3    H235524   6.161   7.551  17.092 -1.1237 -0.8762  0.6614
 3777TIP3   OH235525   4.133   3.849  17.708 -0.0806 -0.0478  0.5758
 3777TIP3    H135526   4.040   3.830  17.693 -0.3380  0.8983  0.8891
 3777TIP3    H235527   4.162   3.783  17.771  0.1636 -2.0100 -1.4428
 3778TIP3   OH235528   1.245   6.174  16.753 -0.1538 -0.5030  0.6307
 3778TIP3    H135529   1.174   6.189  16.816 -0.1114  0.0353  0.5532
 3778TIP3    H235530   1.296   6.255  16.754 -1.3214  0.3401 -1.6026
 3779TIP3   OH235531   5.226   2.072  16.530  0.0675 -0.4487 -0.4252
 3779TIP3    H135532   5.179   2.076  16.614  0.8179 -1.4653  0.0687
 3779TIP3    H235533   5.170   2.119  16.469  0.4933  2.2395  1.1020
 3780TIP3   OH235534   5.762   1.238  17.301  0.1032 -0.1964  0.1630
 3780TIP3    H135535   5.679   1.207  17.338 -0.3373  1.1588  0.3582
 3780TIP3    H235536   5.818   1.252  17.378 -0.7117  2.3303  0.3648
 3781TIP3   OH235537   8.227   0.117  18.187 -0.0064  0.0619 -0.0655
 3781TIP3    H135538   8.185   0.203  18.190 -0.8136 -0.2785 -1.0382
 3781TIP3    H235539   8.189   0.074  18.110  0.6623 -1.0225  0.1841
 3782TIP3   OH235540   0.458   1.799  17.489 -0.2154 -0.1781 -0.4363
 3782TIP3    H135541   0.475   1.717  17.534 -0.3739 -0.5627 -1.0719
 3782TIP3    H235542   0.437   1.774  17.399 -1.1059  0.4986 -0.4245
 3783TIP3   OH235543   5.962   7.506  16.623 -0.0189 -0.2994 -0.1211
 3783TIP3    H135544   6.039   7.531  16.674  0.6665  0.6611 -1.5621
 3783TIP3    H235545   5.964   7.411  16.621  1.8924 -0.2749 -1.2158
 3784TIP3   OH235546   3.593   7.386  17.590 -0.2520  0.6874 -0.0670
 3784TIP3    H135547   3.538   7.428  17.657  2.3160  2.6218  1.0026
 3784TIP3    H235548   3.617   7.458  17.532  0.8830 -0.1673 -0.6796
 3785TIP3   OH235549   2.127   2.408  17.789 -0.2691  0.2531 -0.2934
 3785TIP3    H135550   2.133   2.470  17.716  0.7808  0.7630  0.1959
 3785TIP3    H235551   2.035   2.382  17.791 -0.8416  2.1522 -0.2330
 3786TIP3   OH235552   4.613   1.193  16.771 -0.5965 -0.2098  0.6776
 3786TIP3    H135553   4.703   1.183  16.802  0.4921  1.2711 -1.7425
 3786TIP3    H235554   4.568   1.240  16.842  0.9449  0.4342  1.2582
 3787TIP3   OH235555   1.571   7.009  16.571 -0.1393 -0.9408  0.2042
 3787TIP3    H135556   1.540   7.024  16.660 -0.3952  1.2268 -0.2112
 3787TIP3    H235557   1.612   6.922  16.575  2.7049  0.3238  3.2031
 3788TIP3   OH235558   2.331   7.642  17.296  0.6080 -1.0958 -0.0746
 3788TIP3    H135559   2.415   7.620  17.257  0.8660  0.0352 -0.1815
 3788TIP3    H235560   2.309   7.566  17.350  1.2069 -1.8263 -0.8351
 3789TIP3   OH235561   7.799   2.631  16.790  0.5270 -0.5649 -0.2425
 3789TIP3    H135562   7.877   2.687  16.796  0.8561 -0.7970 -1.9930
 3789TIP3    H235563   7.780   2.608  16.881  0.8982  1.6558  0.4717
 3790TIP3   OH235564   5.531   3.568  17.620  0.0093  0.2937  0.2318
 3790TIP3    H135565   5.490   3.652  17.639  1.7925  0.7697  2.3185
 3790TIP3    H235566   5.595   3.587  17.552  0.0535  0.5025  0.3330
 3791TIP3   OH235567   1.895   5.407  16.369  0.0142  0.6326 -0.3278
 3791TIP3    H135568   1.911   5.313  16.379 -0.9284  0.3372 -1.3513
 3791TIP3    H235569   1.971   5.448  16.409  1.4331 -0.6121 -1.5685
 3792TIP3   OH235570   6.448   2.539  17.058  0.1600 -0.0797 -0.1533
 3792TIP3    H135571   6.410   2.476  16.997 -0.2381  1.9331 -2.1091
 3792TIP3    H235572   6.523   2.576  17.012  0.1292  1.1855  0.7381
 3793TIP3   OH235573   3.993   4.639  17.172  0.4404  0.5399 -0.1930
 3793TIP3    H135574   4.031   4.552  17.184  1.2322  0.8765 -0.2377
 3793TIP3    H235575   4.003   4.681  17.258 -2.7528 -0.4620  0.8397
 3794TIP3   OH235576   4.424   1.558  16.222  0.1351 -0.3934  0.4144
 3794TIP3    H135577   4.341   1.549  16.175  0.4357 -1.3280  0.0346
 3794TIP3    H235578   4.427   1.481  16.279 -0.1317  0.6189  1.8397
 3795TIP3   OH235579   4.275   2.289  18.099 -0.4107 -0.0354 -0.3106
 3795TIP3    H135580   4.236   2.367  18.059 -2.0989 -0.8292 -0.2994
 3795TIP3    H235581   4.365   2.287  18.066 -0.5081  1.6152 -0.7304
 3796TIP3   OH235582   7.183   2.740  17.195  0.4157  0.4211  0.1937
 3796TIP3    H135583   7.123   2.760  17.266 -0.0511  2.0917 -0.6110
 3796TIP3    H235584   7.205   2.648  17.206 -2.1673 -0.2053  0.6317
 3797TIP3   OH235585   0.823   1.167  17.755 -0.6178 -0.0572  0.6241
 3797TIP3    H135586   0.766   1.095  17.728 -0.8024  0.4453 -0.3701
 3797TIP3    H235587   0.906   1.125  17.776 -1.0205 -0.6713  1.0200
 3798TIP3   OH235588   2.740   5.666  16.814 -0.0066  0.0233  0.9970
 3798TIP3    H135589   2.759   5.688  16.723  1.1436 -0.6738  1.0543
 3798TIP3    H235590   2.775   5.739  16.864  0.1715 -0.0173  0.9331
 3799TIP3   OH235591   7.027   0.669  16.193 -0.1451  0.0422  0.4967
 3799TIP3    H135592   6.969   0.736  16.158  0.5659  0.1869 -0.4384
 3799TIP3    H235593   6.981   0.587  16.174  0.2856  0.1025 -0.9671
 3800TIP3   OH235594   6.171   7.237  16.064  0.1623  0.1648  0.3518
 3800TIP3    H135595   6.093   7.183  16.052  0.0506  0.7341 -1.8830
 3800TIP3    H235596   6.138   7.319  16.100 -0.0387 -0.2008  1.0111
 3801TIP3   OH235597   0.464   0.122  16.765  0.2392  0.4813  0.1154
 3801TIP3    H135598   0.411   0.153  16.838 -1.6582  3.6281 -2.3448
 3801TIP3    H235599   0.554   0.133  16.794 -0.4417  2.7960  1.5766
 3802TIP3   OH235600   8.001   2.099  16.981 -0.0029  0.5259  0.4595
 3802TIP3    H135601   8.028   2.183  17.019 -0.3035  1.0306 -0.4084
 3802TIP3    H235602   7.906   2.097  16.994 -0.1361  0.7939 -0.4102
 3803TIP3   OH235603   5.613   2.649  16.224  0.1377  0.3400 -0.4293
 3803TIP3    H135604   5.662   2.659  16.306 -0.6852  0.3576  0.0699
 3803TIP3    H235605   5.524   2.677  16.246 -0.4116 -0.9034 -0.9900
 3804TIP3   OH235606   7.300   5.841  16.442  0.2851 -0.1688  0.2486
 3804TIP3    H135607   7.329   5.750  16.447  0.1150 -0.3988 -1.8559
 3804TIP3    H235608   7.328   5.870  16.355 -1.7655  1.0286 -0.0689
 3805TIP3   OH235609   0.641   6.595  17.697 -0.3686 -0.0173  0.5461
 3805TIP3    H135610   0.554   6.591  17.657  0.4045 -0.5180 -1.1645
 3805TIP3    H235611   0.671   6.684  17.678 -1.1605  0.8046  2.7218
 3806TIP3   OH235612   4.222   6.390  16.385  0.4120  0.3666  0.0546
 3806TIP3    H135613   4.274   6.365  16.461  1.2404  0.1617 -0.5673
 3806TIP3    H235614   4.152   6.445  16.420  0.3736 -0.2997  1.0487
 3807TIP3   OH235615   4.059   4.093  16.541 -0.2971 -0.5415 -0.3594
 3807TIP3    H135616   4.105   4.124  16.619  3.5698 -1.8700 -1.8987
 3807TIP3    H235617   4.006   4.019  16.571  1.5352 -1.3683  0.9628
 3808TIP3   OH235618   8.360   0.309  17.496  0.5478 -0.3212 -0.1829
 3808TIP3    H135619   8.375   0.292  17.589 -1.1903  0.4262  0.2819
 3808TIP3    H235620   8.264   0.312  17.488  0.6752  0.0745 -1.9212
 3809TIP3   OH235621   3.421   3.964  18.086 -0.2302 -0.3510  0.0222
 3809TIP3    H135622   3.461   3.925  18.164  1.6297 -0.3612 -0.9082
 3809TIP3    H235623   3.461   4.050  18.079 -0.1230 -0.4840 -1.1286
 3810TIP3   OH235624   2.088   8.157  16.708  0.3767  0.6752 -0.8045
 3810TIP3    H135625   2.116   8.230  16.652  2.3155 -0.3300 -1.2203
 3810TIP3    H235626   2.095   8.191  16.797  1.8936  0.8377 -0.9630
 3811TIP3   OH235627   3.226   7.156  16.893 -0.1128  0.2726 -0.3952
 3811TIP3    H135628   3.220   7.094  16.966 -1.7358  1.6116  0.7185
 3811TIP3    H235629   3.214   7.103  16.815  0.3768 -1.0490  0.3951
 3812TIP3   OH235630   2.979   6.582  16.230  0.1633 -0.2544  0.3679
 3812TIP3    H135631   3.040   6.543  16.168  0.4693  0.3177  0.3057
 3812TIP3    H235632   2.894   6.545  16.206 -0.1285  1.5864 -1.8296
 3813TIP3   OH235633   6.119   4.560  17.342 -0.1746 -0.3208  0.1043
 3813TIP3    H135634   6.196   4.527  17.297 -0.5338 -0.0951 -0.6997
 3813TIP3    H235635   6.089   4.633  17.288  0.2418  0.9528  1.4939
 3814TIP3   OH235636   5.014   6.734  17.147 -0.4274  0.4414 -0.0232
 3814TIP3    H135637   4.975   6.717  17.233 -0.8734 -0.9756 -0.4725
 3814TIP3    H235638   5.099   6.773  17.167 -0.9278  1.0567  1.0323
 3815TIP3   OH235639   2.557   4.778  17.583 -0.3059  0.3743 -0.3085
 3815TIP3    H135640   2.531   4.687  17.568 -0.8047  0.7366 -1.7726
 3815TIP3    H235641   2.484   4.817  17.630 -0.4375  0.2305 -0.3946
 3816TIP3   OH235642   3.325   1.950  17.891 -0.2660 -0.5380  0.3320
 3816TIP3    H135643   3.236   1.979  17.870  0.4878  0.9553 -0.9958
 3816TIP3    H235644   3.366   2.026  17.931  0.7848 -0.8167 -0.1941
 3817TIP3   OH235645   6.823   4.078  16.848  0.0994 -0.2699  0.4435
 3817TIP3    H135646   6.863   4.162  16.871  0.3372 -0.2092 -0.1722
 3817TIP3    H235647   6.743   4.103  16.800  1.3996 -0.3467 -1.9168
 3818TIP3   OH235648   4.138   2.026  16.627  0.7844  0.2362 -0.0999
 3818TIP3    H135649   4.176   2.028  16.715  0.3557 -3.9906  0.4052
 3818TIP3    H235650   4.043   2.033  16.642  0.7994  1.6553 -0.5077
 3819TIP3   OH235651   2.003   7.158  17.159  0.2451  0.1348 -0.0810
 3819TIP3    H135652   2.026   7.086  17.218 -1.4328 -0.5281 -0.1458
 3819TIP3    H235653   2.042   7.133  17.075 -1.7330 -1.6917 -0.5669
 3820TIP3   OH235654   5.294   7.987  17.091  0.0275 -0.0656 -0.4562
 3820TIP3    H135655   5.325   8.018  17.176  0.9481 -0.8177 -0.5099
 3820TIP3    H235656   5.221   8.045  17.070 -0.0682  0.2702  0.7377
 3821TIP3   OH235657   0.687   5.337  16.582  0.4066 -0.1351 -0.1785
 3821TIP3    H135658   0.684   5.396  16.508  0.7924  1.8974  1.3359
 3821TIP3    H235659   0.609   5.282  16.572 -0.7997  1.6140 -0.8885
 3822TIP3   OH235660   7.389   7.175  17.985 -0.2020 -0.2448 -0.3948
 3822TIP3    H135661   7.394   7.100  17.926  0.1195  0.2436 -0.9911
 3822TIP3    H235662   7.334   7.238  17.940 -1.6447 -0.6488  0.7144
 3823TIP3   OH235663   0.473   1.380  16.064 -0.3851  0.1623  0.0793
 3823TIP3    H135664   0.561   1.411  16.042 -0.6256  1.2777  0.6383
 3823TIP3    H235665   0.418   1.411  15.992 -0.2252 -1.1431 -0.6367
 3824TIP3   OH235666   4.029   1.990  17.605  0.4025  0.8544  0.6059
 3824TIP3    H135667   4.007   1.914  17.552  2.2846  0.4911  0.2998
 3824TIP3    H235668   4.033   1.957  17.695  0.9742  0.6399  0.5029
 3825TIP3   OH235669   7.415   1.778  16.728  0.4473 -0.0762  0.1272
 3825TIP3    H135670   7.372   1.858  16.760 -0.0222 -0.4466  0.4283
 3825TIP3    H235671   7.508   1.795  16.741  0.3251  0.2202  0.6820
 3826TIP3   OH235672   3.869   1.427  17.435  0.0445 -0.0713 -0.0560
 3826TIP3    H135673   3.775   1.411  17.435  0.3354 -2.1088  0.0104
 3826TIP3    H235674   3.908   1.339  17.435  1.9485  0.6913 -1.6322
 3827TIP3   OH235675   6.784   6.727  17.421 -0.3745 -0.3255 -0.1782
 3827TIP3    H135676   6.829   6.694  17.344 -1.6646  0.6042 -1.3849
 3827TIP3    H235677   6.711   6.778  17.386 -0.1908  1.2851  1.6439
 3828TIP3   OH235678   7.901   5.985  16.774 -0.1571  0.4006 -0.1384
 3828TIP3    H135679   7.970   5.980  16.840 -0.1262  0.8393 -0.1325
 3828TIP3    H235680   7.843   6.054  16.807  0.1925  1.0600 -0.8911
 3829TIP3   OH235681   1.455   1.425  17.616 -0.4176 -0.1551  0.2471
 3829TIP3    H135682   1.365   1.455  17.599  0.3533  1.5766 -0.9866
 3829TIP3    H235683   1.492   1.410  17.529 -0.4750 -4.1472  0.7367
 3830TIP3   OH235684   4.834   3.000  17.994 -0.1478 -0.0024 -0.5554
 3830TIP3    H135685   4.834   2.911  17.959 -0.8049  0.5892 -2.2077
 3830TIP3    H235686   4.893   2.997  18.069 -0.7576 -1.9934 -0.0922
 3831TIP3   OH235687   1.760   0.191  17.146  0.0873 -0.1501  0.2997
 3831TIP3    H135688   1.830   0.249  17.175 -1.0901  0.1003  2.8989
 3831TIP3    H235689   1.805   0.110  17.122  1.3587  0.2642  1.1762
 3832TIP3   OH235690   5.655   8.068  17.738  0.7440  0.8577  0.4122
 3832TIP3    H135691   5.683   7.999  17.798  1.7576  1.3958  0.5851
 3832TIP3    H235692   5.733   8.087  17.686  0.0552  0.8330 -0.6734
 3833TIP3   OH235693   1.948   6.019  16.723  0.0747 -0.3078 -0.3894
 3833TIP3    H135694   1.864   5.995  16.763 -0.5177  2.8351  0.5794
 3833TIP3    H235695   2.004   5.943  16.735 -1.8003 -1.4757  1.5303
 3834TIP3   OH235696   7.493   0.542  16.086 -0.1760 -0.2340  0.0515
 3834TIP3    H135697   7.418   0.560  16.142  0.4855 -0.5501  1.0576
 3834TIP3    H235698   7.472   0.459  16.043 -1.5876  0.9675 -1.7885
 3835TIP3   OH235699   0.425   2.772  16.513  0.0791 -0.0627  0.3138
 3835TIP3    H135700   0.424   2.829  16.590 -2.3124  0.9781 -0.4009
 3835TIP3    H235701   0.443   2.685  16.548 -0.0334  0.5283  1.9258
 3836TIP3   OH235702   8.083   2.862  16.620  0.5996  0.4323  0.8400
 3836TIP3    H135703   8.158   2.820  16.580  0.7487 -0.0406  1.5860
 3836TIP3    H235704   8.056   2.929  16.558  0.0280 -1.1100 -0.6387
 3837TIP3   OH235705   3.951   0.658  16.228 -0.3417  1.0623  0.2363
 3837TIP3    H135706   4.020   0.723  16.226  0.5498  0.1287 -0.0068
 3837TIP3    H235707   3.985   0.584  16.177 -0.6420 -0.2398  1.8076
 3838TIP3   OH235708   5.370   8.013  17.387  0.0436 -0.4752 -0.2937
 3838TIP3    H135709   5.464   8.008  17.405  0.1453 -0.6068 -0.8432
 3838TIP3    H235710   5.332   8.043  17.469  0.4800 -1.1650  0.1654
 3839TIP3   OH235711   0.643   1.401  17.764  0.1012  0.1679  0.4988
 3839TIP3    H135712   0.691   1.457  17.825 -0.5812  1.8926 -0.4867
 3839TIP3    H235713   0.707   1.334  17.738  0.1736 -1.2178  3.7150
 3840TIP3   OH235714   0.121   2.866  17.316  0.4820  0.2967  0.0520
 3840TIP3    H135715   0.068   2.795  17.350  0.5594 -0.1131 -0.6781
 3840TIP3    H235716   0.063   2.942  17.318  0.3480  0.1888  0.6710
 3841TIP3   OH235717   4.716   4.152  17.363 -0.1381 -0.3618  0.0762
 3841TIP3    H135718   4.796   4.193  17.329 -0.2749 -1.0796 -1.1541
 3841TIP3    H235719   4.688   4.211  17.434  1.2381  0.1256  0.2505
 3842TIP3   OH235720   7.510   1.091  17.574  0.0376 -0.5551  0.1633
 3842TIP3    H135721   7.468   1.167  17.534  0.0522 -0.5566  0.1453
 3842TIP3    H235722   7.441   1.049  17.624  0.1179 -0.3319  0.4592
 3843TIP3   OH235723   0.101   0.747  17.703 -0.0340  0.2631  0.7997
 3843TIP3    H135724   0.113   0.841  17.693 -0.6011  0.5436  2.5079
 3843TIP3    H235725   0.052   0.721  17.624 -0.5083  1.5311  0.6537
 3844TIP3   OH235726   2.097   7.451  15.583 -0.5357 -0.3889  0.3396
 3844TIP3    H135727   2.068   7.460  15.492 -0.6558  0.5470  0.4628
 3844TIP3    H235728   2.192   7.440  15.576 -0.6678 -1.5210  0.0491
 3845TIP3   OH235729   7.933   2.160  17.540  0.0497 -0.0445  0.2268
 3845TIP3    H135730   7.925   2.209  17.458  0.8825  0.6251  0.5324
 3845TIP3    H235731   7.846   2.166  17.580  0.1796  1.4008  0.3612
 3846TIP3   OH235732   1.356   1.296  15.986  0.1499  0.4121 -0.6305
 3846TIP3    H135733   1.305   1.372  16.011  0.3844 -0.3304  2.4845
 3846TIP3    H235734   1.291   1.233  15.953 -0.4423  0.8471 -0.3060
 3847TIP3   OH235735   0.012   0.934  16.525 -0.1995 -0.2541 -0.0217
 3847TIP3    H135736  -0.014   1.004  16.466 -0.3736  1.8721  2.4263
 3847TIP3    H235737  -0.055   0.867  16.513 -0.9166  0.6403 -1.2921
 3848TIP3   OH235738   6.221   4.837  17.554 -0.1288  0.1068 -0.4881
 3848TIP3    H135739   6.169   4.757  17.555 -0.0990  0.0874 -0.5150
 3848TIP3    H235740   6.193   4.885  17.632  1.7066 -1.1136  1.0028
 3849TIP3   OH235741   4.378   3.052  16.910  0.4356 -0.0844 -0.2854
 3849TIP3    H135742   4.397   3.114  16.981  0.0725  0.7996 -0.9480
 3849TIP3    H235743   4.345   2.974  16.955 -1.5957  1.1277  0.4464
 3850TIP3   OH235744   6.358   3.479  16.616 -0.0620 -0.3815 -0.0614
 3850TIP3    H135745   6.423   3.433  16.669 -0.8826  0.2717  1.5660
 3850TIP3    H235746   6.277   3.473  16.666 -1.1091 -0.5593 -1.7116
 3851TIP3   OH235747   6.477   3.049  18.099  0.1823 -0.1855 -0.0391
 3851TIP3    H135748   6.468   2.978  18.036 -0.9334 -1.0953  1.0886
 3851TIP3    H235749   6.572   3.058  18.112  0.3786 -0.7235 -0.9973
 3852TIP3   OH235750   2.067   4.533  16.165 -0.7391  0.6134  0.0415
 3852TIP3    H135751   2.003   4.529  16.094  1.0216  0.7692 -1.6369
 3852TIP3    H235752   2.110   4.447  16.163 -1.3903  0.2216  1.6625
 3853TIP3   OH235753   5.120   6.195  15.791  0.1018  0.0882 -0.0613
 3853TIP3    H135754   5.206   6.222  15.825  0.7302 -0.6017 -1.0489
 3853TIP3    H235755   5.110   6.105  15.821  0.1238 -0.1258 -0.6823
 3854TIP3   OH235756   1.378   1.580  16.755 -0.1993  0.0805 -0.3420
 3854TIP3    H135757   1.392   1.508  16.816  2.4432  1.1643  0.4966
 3854TIP3    H235758   1.347   1.652  16.810  0.4485  0.5455 -0.5751
 3855TIP3   OH235759   7.353   1.077  16.545  0.2322 -0.9550  0.0229
 3855TIP3    H135760   7.335   1.124  16.463  2.2259 -0.9283 -0.4506
 3855TIP3    H235761   7.267   1.068  16.586 -0.5192  1.1283 -0.9326
 3856TIP3   OH235762   6.363   6.739  17.294  0.3322  0.3920  0.2384
 3856TIP3    H135763   6.278   6.724  17.252 -0.1231 -2.3934  1.9155
 3856TIP3    H235764   6.427   6.706  17.232  0.2630  2.3144 -0.9476
 3857TIP3   OH235765   8.087   5.700  15.936  0.2051 -0.1742 -0.3375
 3857TIP3    H135766   8.150   5.683  16.006  1.3076 -0.3735 -1.3429
 3857TIP3    H235767   8.103   5.630  15.872  0.1327  0.7358 -1.3853
 3858TIP3   OH235768   7.377   4.534  18.124  0.1730  0.4197  0.3789
 3858TIP3    H135769   7.452   4.589  18.148  1.3737 -0.7060 -0.6470
 3858TIP3    H235770   7.374   4.467  18.192  0.7710 -0.1450 -0.1389
 3859TIP3   OH235771   5.685   6.246  17.792  0.0052  0.2439 -0.5537
 3859TIP3    H135772   5.747   6.200  17.736  0.4736  0.1196  0.0633
 3859TIP3    H235773   5.735   6.317  17.831  0.3001 -0.9599  1.4024
 3860TIP3   OH235774   2.583   8.119  16.245  0.6132  0.0283  0.2444
 3860TIP3    H135775   2.639   8.069  16.303  0.0338  0.6635  1.3766
 3860TIP3    H235776   2.627   8.203  16.234  0.7876 -0.1382 -0.3478
 3861TIP3   OH235777   6.938   4.021  17.560 -0.1686 -0.2785  0.2354
 3861TIP3    H135778   6.933   3.933  17.596 -1.0556 -1.7913 -3.1646
 3861TIP3    H235779   6.848   4.054  17.562 -0.2934 -0.5079 -0.6969
 3862TIP3   OH235780   8.265   7.286  15.443 -0.0369 -0.1818 -0.1307
 3862TIP3    H135781   8.283   7.207  15.494  0.2140  0.4256  0.7430
 3862TIP3    H235782   8.310   7.356  15.490  0.7217  0.3031 -1.5488
 3863TIP3   OH235783   5.567   0.817  17.787  0.5339 -0.0966  0.2397
 3863TIP3    H135784   5.661   0.811  17.804  0.7906 -1.1055 -1.3018
 3863TIP3    H235785   5.538   0.892  17.838  1.9404 -0.4684  1.6920
 3864TIP3   OH235786   2.907   3.621  17.251  0.5075 -0.5026 -0.7063
 3864TIP3    H135787   2.893   3.569  17.330 -0.0119 -1.0910 -1.1758
 3864TIP3    H235788   2.967   3.569  17.198 -0.1885 -0.7479 -1.2763
 3865TIP3   OH235789   1.011   3.024  15.836 -0.0399 -0.6248 -0.1864
 3865TIP3    H135790   0.920   2.992  15.833 -0.9342  1.6768  0.1682
 3865TIP3    H235791   1.028   3.055  15.747  0.6149 -1.5576 -0.3927
 3866TIP3   OH235792   3.583   4.568  17.255  0.0897 -0.5445 -1.0063
 3866TIP3    H135793   3.652   4.568  17.188 -0.6687 -0.5167 -1.8105
 3866TIP3    H235794   3.512   4.518  17.216  0.3798 -2.3486  0.6088
 3867TIP3   OH235795   8.295   0.086  15.953  0.1444  0.1750  0.0670
 3867TIP3    H135796   8.245   0.038  15.887 -2.4904  2.1922  0.4361
 3867TIP3    H235797   8.357   0.139  15.903 -2.4917  2.4408 -0.9959
 3868TIP3   OH235798   1.331   2.131  17.179 -0.0553  0.1604 -0.6177
 3868TIP3    H135799   1.369   2.217  17.163  0.6602  0.2496  1.2493
 3868TIP3    H235800   1.360   2.078  17.105  2.0018  0.7946 -0.3407
 3869TIP3   OH235801   1.319   6.030  18.055 -0.0049 -0.4853  0.3964
 3869TIP3    H135802   1.264   6.093  18.008 -0.0600 -0.1246  0.9421
 3869TIP3    H235803   1.335   6.071  18.140  2.8245  0.3536 -0.4559
 3870TIP3   OH235804   6.948   4.300  16.886  0.0425  0.3077  0.4878
 3870TIP3    H135805   7.037   4.328  16.908 -0.0071  2.5677 -1.7071
 3870TIP3    H235806   6.914   4.370  16.829 -2.7549 -1.0071  0.3589
 3871TIP3   OH235807   7.876   6.749  16.535 -0.0421 -0.1502 -0.0017
 3871TIP3    H135808   7.969   6.755  16.512  0.3934  1.0627  1.8116
 3871TIP3    H235809   7.858   6.656  16.540  1.3483 -0.4115  0.5529
 3872TIP3   OH235810   6.880   2.308  17.963  0.4769 -0.0434  0.2960
 3872TIP3    H135811   6.867   2.247  17.890  0.7267  2.3353 -1.8465
 3872TIP3    H235812   6.802   2.363  17.961  0.5276  0.1128  1.8254
 3873TIP3   OH235813   6.998   6.939  16.174  0.4853  0.8508  0.2110
 3873TIP3    H135814   6.983   7.006  16.108 -0.1887  0.7823  0.2795
 3873TIP3    H235815   6.910   6.907  16.195  0.7810  0.1031  0.3342
 3874TIP3   OH235816   3.669   2.044  16.859 -0.0820  0.0078  0.0138
 3874TIP3    H135817   3.702   1.982  16.923  0.9208 -1.2645 -1.6790
 3874TIP3    H235818   3.574   2.041  16.869 -0.0377 -1.7068  0.0789
 3875TIP3   OH235819   1.533   0.390  16.767  0.3498  0.0631 -0.1344
 3875TIP3    H135820   1.566   0.304  16.740 -0.5636  0.3489 -2.3799
 3875TIP3    H235821   1.442   0.374  16.791  0.7334  0.0937  1.4549
 3876TIP3   OH235822   2.616   2.883  15.455 -0.1498  0.3774  0.7331
 3876TIP3    H135823   2.650   2.964  15.492 -1.6853  0.9139  1.0534
 3876TIP3    H235824   2.521   2.889  15.468 -0.1715 -2.3017  2.3981
 3877TIP3   OH235825   4.688   0.706  16.843 -0.4556 -0.1260  0.2595
 3877TIP3    H135826   4.653   0.653  16.914 -1.8779 -2.8854 -2.2851
 3877TIP3    H235827   4.755   0.651  16.802 -0.2510  1.0270 -1.0575
 3878TIP3   OH235828   5.867   7.238  16.632 -0.2573  0.2789  0.4149
 3878TIP3    H135829   5.856   7.221  16.539 -0.1107 -1.5407  0.6901
 3878TIP3    H235830   5.917   7.163  16.665  0.4399  1.2920  1.8132
 3879TIP3   OH235831   1.173   1.950  17.600 -0.3816  0.0328 -0.2457
 3879TIP3    H135832   1.079   1.931  17.607 -0.1519 -0.5824  1.3917
 3879TIP3    H235833   1.212   1.910  17.677  1.0344  1.6349 -0.0816
 3880TIP3   OH235834   4.542   0.947  16.899  0.3038  0.1547 -0.9696
 3880TIP3    H135835   4.556   1.011  16.828 -0.1339 -0.9894 -2.1163
 3880TIP3    H235836   4.607   0.879  16.883  0.7663  0.2749  0.2478
 3881TIP3   OH235837   6.085   7.674  16.409 -0.2449  0.3536  0.9595
 3881TIP3    H135838   6.127   7.618  16.344 -0.9119  0.7527  0.1620
 3881TIP3    H235839   6.017   7.619  16.448 -1.7787  0.9327 -0.7409
 3882TIP3   OH235840   6.928   6.612  17.217  0.1266  0.2134 -0.2777
 3882TIP3    H135841   6.988   6.672  17.173 -0.1813 -0.2962 -1.4433
 3882TIP3    H235842   6.895   6.556  17.146 -0.2891 -0.7242  0.6371
 3883TIP3   OH235843   2.578   6.015  18.039  0.0821 -0.0165  0.4667
 3883TIP3    H135844   2.601   6.107  18.053 -0.2548 -0.0857  1.6552
 3883TIP3    H235845   2.492   6.006  18.080 -0.3637 -0.6269 -0.5675
 3884TIP3   OH235846   1.609   3.735  16.441  0.1773 -0.2586 -0.5809
 3884TIP3    H135847   1.682   3.683  16.473 -0.1645 -1.0898 -1.1173
 3884TIP3    H235848   1.538   3.718  16.503  0.5119  0.7843  0.1122
 3885TIP3   OH235849   2.466   1.213  15.547  0.2936 -0.3233 -0.9636
 3885TIP3    H135850   2.374   1.194  15.526  0.0865  1.0161 -1.3204
 3885TIP3    H235851   2.516   1.172  15.476  0.1134 -2.4221  0.0463
 3886TIP3   OH235852   5.274   4.552  15.855  0.1692  0.4262  0.1683
 3886TIP3    H135853   5.230   4.468  15.846 -1.0340  1.0131  0.4531
 3886TIP3    H235854   5.233   4.609  15.791  0.7484  0.8993  0.2055
 3887TIP3   OH235855   1.868   5.897  16.172  0.1331  0.1747  0.5337
 3887TIP3    H135856   1.936   5.929  16.114 -0.8256 -0.3213 -0.9242
 3887TIP3    H235857   1.880   5.946  16.253  2.1142  0.1826  0.2674
 3888TIP3   OH235858   6.202   6.326  17.122 -0.0827 -0.0381  0.3351
 3888TIP3    H135859   6.200   6.286  17.035 -2.2119 -0.3811  0.4959
 3888TIP3    H235860   6.172   6.416  17.108  1.3990  0.5101  0.4824
 3889TIP3   OH235861   4.361   6.178  16.110  0.6358  0.1133 -0.4857
 3889TIP3    H135862   4.451   6.204  16.131  0.8276 -1.2088  0.3974
 3889TIP3    H235863   4.371   6.101  16.054  0.0437  0.0975 -0.5750
 3890TIP3   OH235864   6.565   2.817  17.949  0.0520 -0.2348  0.1710
 3890TIP3    H135865   6.488   2.837  17.895  0.2185  0.3711  0.1518
 3890TIP3    H235866   6.628   2.885  17.927 -0.1938  0.5418  1.7553
 3891TIP3   OH235867   2.589   6.927  15.916  0.3732 -0.0844 -0.0838
 3891TIP3    H135868   2.517   6.904  15.975 -2.7268  1.6402 -2.8918
 3891TIP3    H235869   2.563   6.891  15.831  3.5335 -0.4764 -1.0293
 3892TIP3   OH235870   1.343   4.477  15.217 -0.2006 -0.2110 -0.4547
 3892TIP3    H135871   1.322   4.422  15.293  0.0440 -0.4876 -0.5837
 3892TIP3    H235872   1.425   4.440  15.183 -0.2414 -0.0077 -0.7776
 3893TIP3   OH235873   5.617   0.770  15.708 -0.0283 -0.0734 -0.5747
 3893TIP3    H135874   5.557   0.833  15.748  2.2188  1.0425  1.2974
 3893TIP3    H235875   5.641   0.810  15.625  0.0963  0.7818 -0.1487
 3894TIP3   OH235876   3.135   2.596  15.840  0.1054 -0.0765  0.9608
 3894TIP3    H135877   3.079   2.669  15.812 -1.0760 -1.7909 -1.5263
 3894TIP3    H235878   3.223   2.631  15.838 -0.5088  1.5377  0.7315
 3895TIP3   OH235879   7.532   5.650  16.173  0.1112 -0.1176 -0.0110
 3895TIP3    H135880   7.602   5.663  16.108 -1.6206 -0.4822 -2.0841
 3895TIP3    H235881   7.459   5.702  16.139  0.0126  2.1938  3.3190
 3896TIP3   OH235882   3.631   5.463  17.285 -0.5105  0.6032  0.0182
 3896TIP3    H135883   3.689   5.408  17.338  1.1740  0.6793 -1.6431
 3896TIP3    H235884   3.615   5.540  17.339  2.2925  1.3170 -0.0263
 3897TIP3   OH235885   5.890   6.590  17.604  0.1880 -0.3174 -0.3615
 3897TIP3    H135886   5.839   6.607  17.525 -0.8770  0.8466  0.5363
 3897TIP3    H235887   5.949   6.665  17.610  0.7447 -0.7496 -0.4153
 3898TIP3   OH235888   5.456   4.103  15.689  0.0869  0.0123  0.6042
 3898TIP3    H135889   5.461   4.009  15.675  1.6582 -0.0072  1.0986
 3898TIP3    H235890   5.375   4.116  15.740 -1.3636 -0.7699 -1.3962
 3899TIP3   OH235891   2.675   2.501  17.426 -0.2995 -0.4377  0.3307
 3899TIP3    H135892   2.624   2.491  17.346 -0.1778 -1.2426  0.3365
 3899TIP3    H235893   2.732   2.423  17.428  0.1024 -0.1399  0.9043
 3900TIP3   OH235894   6.228   1.334  16.950 -0.4675 -0.2948  0.0512
 3900TIP3    H135895   6.274   1.255  16.922  1.9241  1.4625 -1.3600
 3900TIP3    H235896   6.163   1.349  16.882  0.2674 -0.1274 -0.6308
 3901TIP3   OH235897   6.219   3.940  16.753  0.0008  0.2889  0.5314
 3901TIP3    H135898   6.181   4.000  16.689 -1.5759 -0.5731  0.6106
 3901TIP3    H235899   6.307   3.922  16.719 -0.1831  1.1861 -0.4723
 3902TIP3   OH235900   3.607   0.007  17.610  0.5724  0.9317 -0.2768
 3902TIP3    H135901   3.654  -0.066  17.651  0.0513  0.8587  0.2135
 3902TIP3    H235902   3.627  -0.001  17.517  0.1607 -0.1261 -0.2950
 3903TIP3   OH235903   1.201   3.542  15.640 -0.0193  0.2250  0.0794
 3903TIP3    H135904   1.161   3.549  15.553  0.7165 -0.4468 -0.3249
 3903TIP3    H235905   1.140   3.488  15.690 -0.5556  0.7986  0.0561
 3904TIP3   OH235906   7.857   2.611  17.249 -0.3945 -0.1469 -0.4908
 3904TIP3    H135907   7.916   2.635  17.320 -1.3234  3.0773 -0.6537
 3904TIP3    H235908   7.870   2.679  17.183 -2.5155 -0.7207 -1.6002
 3905TIP3   OH235909   7.776   5.652  17.328 -0.1576  0.3400  0.2882
 3905TIP3    H135910   7.845   5.595  17.362 -0.9076 -1.3427 -0.8705
 3905TIP3    H235911   7.819   5.706  17.262 -0.1899 -1.9102 -1.6935
 3906TIP3   OH235912   2.855   6.753  16.663 -0.4431 -0.2411 -0.1813
 3906TIP3    H135913   2.913   6.733  16.590 -0.8817 -0.8679 -0.3684
 3906TIP3    H235914   2.908   6.807  16.722  1.0324 -2.4359  0.6337
 3907TIP3   OH235915   1.533   1.782  17.394  0.3078  0.2003  0.0435
 3907TIP3    H135916   1.460   1.827  17.436 -0.7234  0.9251 -2.3656
 3907TIP3    H235917   1.493   1.707  17.350  0.9434  0.7040 -1.4597
 3908TIP3   OH235918   0.166   7.301  15.636  0.3540 -0.1852  0.5398
 3908TIP3    H135919   0.108   7.374  15.615  0.9934  0.4353  0.8841
 3908TIP3    H235920   0.214   7.284  15.555 -0.6920 -1.0775  0.0840
 3909TIP3   OH235921   5.363   0.541  16.696  0.4188  0.5701  0.1033
 3909TIP3    H135922   5.442   0.490  16.677 -0.1394  0.2761 -1.6288
 3909TIP3    H235923   5.388   0.632  16.680  0.6632  0.5756  0.5079
 3910TIP3   OH235924   4.600   1.492  16.795  0.0339  0.1078 -0.2660
 3910TIP3    H135925   4.545   1.508  16.718 -0.3822 -0.2024 -0.0320
 3910TIP3    H235926   4.679   1.450  16.760  0.0289  0.3488 -0.5729
 3911TIP3   OH235927   5.331   3.763  17.026 -0.4302 -0.4034  0.4313
 3911TIP3    H135928   5.357   3.698  17.091 -2.0439  0.6688  2.2563
 3911TIP3    H235929   5.397   3.833  17.033 -0.7724 -0.1513  1.1480
 3912TIP3   OH235930   1.697   8.234  16.401  0.2876  0.5896  1.1313
 3912TIP3    H135931   1.755   8.242  16.324  1.0846  1.0671  1.7581
 3912TIP3    H235932   1.649   8.153  16.387  0.7604  0.4322  0.3451
 3913TIP3   OH235933   0.465   6.759  15.813  0.0542 -0.0729  0.2051
 3913TIP3    H135934   0.517   6.711  15.749 -1.0714  1.7195 -2.2286
 3913TIP3    H235935   0.497   6.849  15.807 -0.8881  0.3598  1.3068
 3914TIP3   OH235936   7.787   5.384  16.497 -0.0342 -0.2565 -0.2281
 3914TIP3    H135937   7.873   5.373  16.538 -0.8575 -3.1528  0.9895
 3914TIP3    H235938   7.797   5.460  16.440  2.4601  1.3607  2.0968
 3915TIP3   OH235939   3.393   3.031  16.731  0.0131 -0.3061 -0.3704
 3915TIP3    H135940   3.432   3.059  16.813 -0.5650  0.3999 -0.3295
 3915TIP3    H235941   3.303   3.007  16.754  0.0078 -0.6053 -0.7001
 3916TIP3   OH235942   6.950   7.162  15.985  0.0167  0.0402 -0.0320
 3916TIP3    H135943   6.859   7.135  15.971  0.7710 -2.1453 -1.0999
 3916TIP3    H235944   6.958   7.243  15.935 -1.4324  0.5311  0.4530
 3917TIP3   OH235945   6.856   4.546  17.554  0.0823  0.1942  0.2830
 3917TIP3    H135946   6.872   4.585  17.640 -0.5001  1.7653 -0.2900
 3917TIP3    H235947   6.761   4.555  17.541 -0.1418 -1.7290  0.2445
 3918TIP3   OH235948   4.505   2.353  17.932 -0.6629  0.1112  0.3889
 3918TIP3    H135949   4.434   2.393  17.883 -0.2998  1.0000  0.5713
 3918TIP3    H235950   4.520   2.269  17.889  0.0957  1.1548 -1.4739
 3919TIP3   OH235951   3.880   8.439  16.634  0.1387  0.0006 -0.6260
 3919TIP3    H135952   3.875   8.494  16.711 -1.5758 -0.9153 -0.0115
 3919TIP3    H235953   3.972   8.442  16.607  0.1536  3.0052 -0.5813
 3920TIP3   OH235954   0.161   3.152  16.314  0.1837 -0.0921 -0.1019
 3920TIP3    H135955   0.160   3.092  16.240 -0.9777 -0.0699 -0.1232
 3920TIP3    H235956   0.247   3.140  16.354  0.3311 -1.0468 -0.6858
 3921TIP3   OH235957   6.197   0.960  17.786 -0.0627 -0.2255  0.1525
 3921TIP3    H135958   6.129   0.995  17.728 -0.4905 -2.1125 -0.5661
 3921TIP3    H235959   6.270   1.020  17.776 -0.3512 -0.1313 -1.8820
 3922TIP3   OH235960   4.029   6.931  15.788 -0.1839 -0.1903  0.2822
 3922TIP3    H135961   4.034   6.915  15.882 -3.7615  0.0625  0.6463
 3922TIP3    H235962   3.991   6.851  15.752 -1.5000  0.7443 -0.4920
 3923TIP3   OH235963   0.757   6.103  15.723 -0.3452  0.8951  0.2269
 3923TIP3    H135964   0.672   6.147  15.724 -0.5016  0.6493  2.3790
 3923TIP3    H235965   0.738   6.016  15.689 -1.6486 -0.2505  3.4728
 3924TIP3   OH235966   7.975   5.514  17.846  0.1327  0.0972  0.1201
 3924TIP3    H135967   7.951   5.604  17.868  0.8468  0.3973 -0.3000
 3924TIP3    H235968   7.906   5.485  17.787 -0.5937  0.0448  0.9621
 3925TIP3   OH235969   2.638   4.556  16.195 -0.6603 -0.2367  0.4211
 3925TIP3    H135970   2.584   4.535  16.119  1.5004  0.7521 -1.4703
 3925TIP3    H235971   2.592   4.628  16.238 -1.2729  0.0101 -0.6261
 3926TIP3   OH235972   4.003   0.571  16.810 -0.1913 -0.7229  0.2885
 3926TIP3    H135973   4.040   0.631  16.875  1.4692 -0.7815 -0.5420
 3926TIP3    H235974   3.947   0.627  16.756  1.2606  0.1367 -0.4224
 3927TIP3   OH235975   5.895   1.371  16.419 -0.2774  0.6172  0.2146
 3927TIP3    H135976   5.873   1.357  16.511  1.1309  0.4771  0.5477
 3927TIP3    H235977   5.850   1.453  16.396  0.9118  1.7099  1.6002
 3928TIP3   OH235978   0.077   6.412  16.242  0.2737  0.0616 -0.0820
 3928TIP3    H135979   0.167   6.408  16.208  0.0557 -0.2470 -0.6271
 3928TIP3    H235980   0.022   6.395  16.166 -0.2478  0.1643  0.2711
 3929TIP3   OH235981   7.194   7.026  17.237 -0.1370  0.2715  0.4972
 3929TIP3    H135982   7.102   7.001  17.241 -0.3131  0.6534 -0.7894
 3929TIP3    H235983   7.194   7.114  17.199  0.8374 -0.4737 -1.3530
 3930TIP3   OH235984   4.441   5.725  17.069  0.2444 -0.0639 -0.4034
 3930TIP3    H135985   4.454   5.641  17.025 -1.9100 -0.9512  0.4858
 3930TIP3    H235986   4.398   5.702  17.152  2.5063  1.6758  1.3830
 3931TIP3   OH235987   8.282   7.808  17.886 -0.2445  0.2512 -0.8930
 3931TIP3    H135988   8.349   7.765  17.939 -1.1769 -1.4220 -0.9661
 3931TIP3    H235989   8.289   7.901  17.907  0.4837 -0.1773  0.9237
 3932TIP3   OH235990   8.142   6.788  16.500  0.8494 -0.5158  0.5019
 3932TIP3    H135991   8.227   6.826  16.477  0.1661  0.0609 -1.2688
 3932TIP3    H235992   8.159   6.695  16.510  1.5132 -0.6048 -1.0560
 3933TIP3   OH235993   6.680   4.523  15.901  0.9793 -0.1979  0.2954
 3933TIP3    H135994   6.656   4.458  15.835  1.8760  0.7600 -1.0263
 3933TIP3    H235995   6.630   4.498  15.979  0.2567 -1.6437 -0.5941
 3934TIP3   OH235996   1.097   6.916  17.329 -0.0411 -0.2456  0.2120
 3934TIP3    H135997   1.081   6.844  17.390  0.9105 -1.1636 -0.5779
 3934TIP3    H235998   1.193   6.917  17.319  0.1063  1.9560  1.1593
 3935TIP3   OH235999   6.357   8.371  16.575 -0.0682  0.5875 -0.7973
 3935TIP3    H136000   6.400   8.286  16.586  0.1832  0.6777 -1.0996
 3935TIP3    H236001   6.306   8.361  16.495  0.5516  0.9733 -1.2406
 3936TIP3   OH236002   3.329   4.146  16.898 -0.0557  0.6675 -0.1398
 3936TIP3    H136003   3.335   4.155  16.993  0.5259 -0.6743 -0.0324
 3936TIP3    H236004   3.383   4.070  16.877 -0.3032  0.8425 -1.5296
 3937TIP3   OH236005   6.396   5.240  17.724  0.3592 -0.5894  0.1318
 3937TIP3    H136006   6.357   5.301  17.787 -0.1273 -1.4430  0.6658
 3937TIP3    H236007   6.461   5.293  17.677  2.7752 -0.5670  3.1840
 3938TIP3   OH236008   7.267   4.655  16.815  0.2187 -0.5913  0.2953
 3938TIP3    H136009   7.284   4.711  16.890 -0.9927 -0.0595  0.2002
 3938TIP3    H236010   7.186   4.689  16.777  1.9441  0.6126 -2.6284
 3939TIP3   OH236011   3.005   5.419  16.580  0.0305  0.2661  0.3349
 3939TIP3    H136012   3.005   5.324  16.592 -1.5709  0.2759  0.7071
 3939TIP3    H236013   3.068   5.452  16.645 -1.3216 -0.4005  2.0922
 3940TIP3   OH236014   5.163   2.235  15.622  0.1259 -0.1335  0.2694
 3940TIP3    H136015   5.135   2.182  15.548 -0.1168 -0.4908  0.6116
 3940TIP3    H236016   5.210   2.174  15.679  2.9697  0.7378 -0.9947
 3941TIP3   OH236017   8.307   2.394  16.935 -0.2263  0.2351 -0.5378
 3941TIP3    H136018   8.341   2.369  16.849  1.0194  1.2381 -0.3636
 3941TIP3    H236019   8.307   2.489  16.934  1.9344  0.3225  1.3416
 3942TIP3   OH236020   6.464   3.874  16.685 -0.3565 -0.6040 -0.2520
 3942TIP3    H136021   6.553   3.868  16.720 -0.8477 -0.9149  0.9987
 3942TIP3    H236022   6.467   3.822  16.605  0.4622 -1.0719  0.0611
 3943TIP3   OH236023   5.623   0.026  17.220 -0.3818  0.0397  0.1235
 3943TIP3    H136024   5.623  -0.066  17.246 -0.7573 -0.5551 -1.7726
 3943TIP3    H236025   5.714   0.053  17.227 -0.2887 -0.4357  0.8111
 3944TIP3   OH236026   5.393   4.768  17.752  0.0582 -0.4830 -0.4086
 3944TIP3    H136027   5.466   4.822  17.722 -0.3136 -1.0142 -2.4496
 3944TIP3    H236028   5.429   4.717  17.824  1.2188  0.4238 -0.3168
 3945TIP3   OH236029   6.454   7.213  16.047  0.2046 -0.2187 -0.2400
 3945TIP3    H136030   6.420   7.126  16.069 -1.6621  1.1801  3.0534
 3945TIP3    H236031   6.408   7.237  15.966 -2.0335 -0.9288  0.7531
 3946TIP3   OH236032   0.736   1.949  17.421  0.3112  0.3664 -0.1476
 3946TIP3    H136033   0.685   2.020  17.458 -1.2103 -0.3734 -0.7583
 3946TIP3    H236034   0.760   1.895  17.496 -0.2526  0.4339  0.0801
 3947TIP3   OH236035   0.591   1.729  15.891 -0.1272 -0.1313  0.2913
 3947TIP3    H136036   0.649   1.745  15.816 -1.4847  0.1627 -0.7250
 3947TIP3    H236037   0.637   1.661  15.941  0.3333 -1.1422 -1.3852
 3948TIP3   OH236038   0.870   5.425  17.389  0.0520  0.4542  0.2309
 3948TIP3    H136039   0.861   5.334  17.416  1.1162  0.5739  1.0611
 3948TIP3    H236040   0.780   5.455  17.376 -0.5904  0.2933  3.4438
 3949TIP3   OH236041   2.691   7.440  17.776  0.3591 -0.3193 -0.9650
 3949TIP3    H136042   2.662   7.528  17.752  0.3629  0.1766  0.7310
 3949TIP3    H236043   2.785   7.440  17.758  0.6575  0.5704  0.4924
 3950TIP3   OH236044   4.504   7.513  16.968 -0.3908  0.3793 -0.0991
 3950TIP3    H136045   4.549   7.570  16.906  0.7751  0.4811  0.8152
 3950TIP3    H236046   4.524   7.424  16.936 -1.9229  0.4298 -1.3206
 3951TIP3   OH236047   3.158   3.765  17.470 -0.5263 -0.6181 -0.8583
 3951TIP3    H136048   3.210   3.691  17.502 -0.2008  0.2488  0.6906
 3951TIP3    H236049   3.067   3.736  17.481 -0.4090 -1.3884 -1.7667
 3952TIP3   OH236050   6.578   3.389  17.020 -0.0247 -0.3100 -0.2512
 3952TIP3    H136051   6.625   3.390  17.103  0.3434 -0.2681 -0.4612
 3952TIP3    H236052   6.620   3.457  16.967 -0.9035  0.3733 -0.1128
 3953TIP3   OH236053   2.836   1.149  17.452  0.3980 -0.9359  0.3665
 3953TIP3    H136054   2.854   1.198  17.532  0.0661  0.0235 -0.1396
 3953TIP3    H236055   2.872   1.203  17.381 -1.9672 -0.2739 -0.4304
 3954TIP3   OH236056   6.851   7.312  16.400  0.3425  0.0903  0.4851
 3954TIP3    H136057   6.802   7.349  16.327 -2.0832  1.9090  2.8318
 3954TIP3    H236058   6.887   7.388  16.446  2.4519 -1.0368  0.8387
 3955TIP3   OH236059   5.027   7.175  17.257 -0.8229  0.1353  0.2830
 3955TIP3    H136060   5.026   7.169  17.353 -0.2027  0.1950  0.2933
 3955TIP3    H236061   5.040   7.268  17.239  1.5575 -0.1503  0.1704
 3956TIP3   OH236062   0.508   0.377  17.820 -0.2785  0.1321  0.1083
 3956TIP3    H136063   0.504   0.468  17.791  1.5707 -0.1429 -1.2146
 3956TIP3    H236064   0.478   0.327  17.744  0.7037 -0.4286  0.0725
 3957TIP3   OH236065   3.587   1.328  15.887 -0.5506 -0.0440 -0.0239
 3957TIP3    H136066   3.630   1.377  15.816 -0.7594  1.3562  0.7842
 3957TIP3    H236067   3.521   1.275  15.843  0.3256 -0.3423 -1.0245
 3958TIP3   OH236068   5.349   6.901  17.537  0.5043  0.4458  0.0675
 3958TIP3    H136069   5.379   6.895  17.628 -0.2485  0.4509  0.3246
 3958TIP3    H236070   5.356   6.994  17.515 -1.1385  0.7738  0.7795
 3959TIP3   OH236071   1.507   1.415  17.336 -0.6856  0.0064  0.2306
 3959TIP3    H136072   1.590   1.403  17.290 -0.2162  0.3564  0.9760
 3959TIP3    H236073   1.463   1.485  17.287 -0.3620  0.1119  0.0859
 3960TIP3   OH236074   7.516   5.897  16.643  0.2439  0.4116  0.1160
 3960TIP3    H136075   7.453   5.887  16.571 -0.3533  2.0573  0.3535
 3960TIP3    H236076   7.486   5.838  16.711 -0.6200  0.6249 -0.0704
 3961TIP3   OH236077   7.731   2.307  15.732  0.5850 -0.0931 -0.4917
 3961TIP3    H136078   7.679   2.228  15.745  1.4487 -1.1206 -2.7574
 3961TIP3    H236079   7.686   2.355  15.662  0.2382  1.3311  0.6457
 3962TIP3   OH236080   1.509   6.812  15.824 -0.5509 -0.1280  0.3519
 3962TIP3    H136081   1.565   6.859  15.762 -0.1772 -1.7825 -0.6286
 3962TIP3    H236082   1.549   6.827  15.909 -0.6536  1.5827  0.1344
 3963TIP3   OH236083   4.864   6.838  16.441  0.0569  0.0436 -0.3960
 3963TIP3    H136084   4.933   6.816  16.504  1.3886  2.8936 -0.6963
 3963TIP3    H236085   4.782   6.830  16.491  0.9078  0.2131  1.0753
 3964TIP3   OH236086   6.727   3.836  16.738 -0.4499 -0.4494  0.0540
 3964TIP3    H136087   6.798   3.846  16.675 -0.8507  1.0143 -0.2052
 3964TIP3    H236088   6.757   3.882  16.817 -0.3977 -1.3345  0.5622
 3965TIP3   OH236089   1.434   6.992  16.209  0.3177 -0.5652 -0.2638
 3965TIP3    H136090   1.388   7.067  16.248 -0.6680 -0.5237 -1.4632
 3965TIP3    H236091   1.405   6.917  16.262 -0.1205 -0.3577 -0.2021
 3966TIP3   OH236092   5.814   2.332  17.419 -0.6101  0.3262  0.0470
 3966TIP3    H136093   5.797   2.360  17.509 -0.7166  1.4290 -0.2983
 3966TIP3    H236094   5.871   2.255  17.428 -0.5767  0.4556  1.0515
 3967TIP3   OH236095   0.072   5.328  17.889  0.4870 -0.2516 -0.6663
 3967TIP3    H136096  -0.019   5.353  17.875  0.4848 -0.8334 -1.8775
 3967TIP3    H236097   0.102   5.382  17.961 -0.5303  0.6559 -0.9062
 3968TIP3   OH236098   7.765   2.434  16.985  0.2544  0.2108  0.0951
 3968TIP3    H136099   7.744   2.341  16.974 -0.7892  0.1913  1.8736
 3968TIP3    H236100   7.856   2.434  17.016 -0.0408 -0.3065  1.0109
 3969TIP3   OH236101   7.623   0.284  16.962  0.3700  0.2027 -0.1151
 3969TIP3    H136102   7.665   0.210  17.006  1.3570  0.4960 -0.5506
 3969TIP3    H236103   7.578   0.245  16.887  1.9371  0.1714 -1.0795
 3970TIP3   OH236104   3.339   1.196  15.887  0.2967 -0.4311 -0.5126
 3970TIP3    H136105   3.311   1.220  15.799  0.9109 -0.9938 -0.8666
 3970TIP3    H236106   3.271   1.136  15.918 -1.9660  2.4982  0.8682
 3971TIP3   OH236107   0.879   2.083  16.673 -0.3379 -0.1880  0.0800
 3971TIP3    H136108   0.851   2.173  16.693 -0.6292  0.1461 -1.6307
 3971TIP3    H236109   0.798   2.032  16.677 -0.8456  0.3022 -2.3045
 3972TIP3   OH236110   2.447   7.339  17.818  0.5570 -0.2452  0.1825
 3972TIP3    H136111   2.540   7.351  17.800  0.3789  1.2461  0.1464
 3972TIP3    H236112   2.407   7.422  17.792 -0.3972  0.2305  2.9211
 3973TIP3   OH236113   1.010   3.328  16.915  1.1425  0.2967 -0.6685
 3973TIP3    H136114   0.957   3.261  16.959  2.2195  0.2246  0.5574
 3973TIP3    H236115   1.033   3.288  16.831  1.0182 -0.5185 -0.3321
 3974TIP3   OH236116   0.995   1.879  16.820  0.0363 -0.2259  0.0267
 3974TIP3    H136117   1.064   1.898  16.884  1.1285 -0.6497 -0.9852
 3974TIP3    H236118   1.000   1.951  16.757 -1.8865  0.8799  1.0479
 3975TIP3   OH236119   5.971   6.025  17.096  0.1323 -0.0077 -0.3528
 3975TIP3    H136120   5.888   6.033  17.048 -0.1806  0.7940  0.2785
 3975TIP3    H236121   6.031   5.983  17.035  0.1734  2.2845 -1.9941
 3976TIP3   OH236122   8.297   5.780  17.489 -1.1048 -0.3990 -0.2754
 3976TIP3    H136123   8.291   5.748  17.579 -0.5279 -0.7622 -0.3595
 3976TIP3    H236124   8.358   5.719  17.447 -0.2178  0.6313 -0.5231
 3977TIP3   OH236125   4.473   5.845  16.043  0.7849  0.5780  0.3120
 3977TIP3    H136126   4.542   5.900  16.005  0.1034  1.8130  0.8116
 3977TIP3    H236127   4.474   5.765  15.990  2.1181  0.8730 -0.1299
 3978TIP3   OH236128   6.868   1.284  17.483  0.0490 -0.1490 -0.1162
 3978TIP3    H136129   6.785   1.294  17.436  0.4874  0.4438 -0.7772
 3978TIP3    H236130   6.843   1.239  17.564 -0.7492 -1.0385 -0.8123
 3979TIP3   OH236131   6.205   2.725  16.914 -0.2376 -0.2155  0.3815
 3979TIP3    H136132   6.125   2.765  16.947  0.3358  0.7042  0.6937
 3979TIP3    H236133   6.269   2.738  16.984  0.6101  0.4509 -0.4927
 3980TIP3   OH236134   3.327   7.299  15.816 -0.4538 -0.5289  0.4408
 3980TIP3    H136135   3.336   7.245  15.894  1.2839  0.0699  0.7052
 3980TIP3    H236136   3.417   7.311  15.784 -1.0501 -0.1255 -1.2131
 3981TIP3   OH236137   5.716   1.865  16.311 -0.1476 -0.4986 -0.1234
 3981TIP3    H136138   5.808   1.892  16.307 -0.0156 -1.1593 -2.2446
 3981TIP3    H236139   5.718   1.778  16.351  0.0139 -0.0877  0.8037
 3982TIP3   OH236140   4.944   2.319  17.826  0.2831  1.2086 -0.4709
 3982TIP3    H136141   4.878   2.264  17.867 -0.0653  2.8209  1.2700
 3982TIP3    H236142   5.018   2.260  17.810 -0.7918 -0.1671 -0.5184
 3983TIP3   OH236143   7.541   1.224  17.856  0.1294  0.3786  1.1234
 3983TIP3    H136144   7.584   1.158  17.910 -0.7069  0.3619  1.8040
 3983TIP3    H236145   7.560   1.198  17.766  1.3100  0.2368  1.3981
 3984TIP3   OH236146   1.039   8.034  16.796  0.1123 -0.0816 -0.6465
 3984TIP3    H136147   1.010   8.121  16.824 -0.2888 -0.6906  0.9519
 3984TIP3    H236148   1.025   8.033  16.702  0.1368  1.5852 -0.7012
 3985TIP3   OH236149   0.367   0.099  17.880 -0.3756  0.0477 -0.1990
 3985TIP3    H136150   0.366   0.130  17.789 -1.7482  0.7524  0.0214
 3985TIP3    H236151   0.448   0.049  17.888 -0.7274 -0.8981 -2.0947
 3986TIP3   OH236152   6.703   4.840  16.134 -0.2056  0.6347 -0.5353
 3986TIP3    H136153   6.631   4.779  16.152 -0.3594  0.0824 -2.8077
 3986TIP3    H236154   6.691   4.910  16.199 -1.5253 -0.4856  0.4960
 3987TIP3   OH236155   6.895   6.407  17.408  0.2268  0.1709 -0.3277
 3987TIP3    H136156   6.920   6.479  17.350  1.0637 -1.0100 -1.4633
 3987TIP3    H236157   6.975   6.384  17.455  0.5538 -1.4509 -1.5893
 3988TIP3   OH236158   8.346   2.606  16.747 -0.3919  0.8247 -0.4415
 3988TIP3    H136159   8.430   2.564  16.768 -0.4341 -0.6437 -2.8191
 3988TIP3    H236160   8.368   2.697  16.730  0.5891  0.6575 -0.1219
 3989TIP3   OH236161   4.857   1.874  17.378  0.1539 -0.0477  0.3301
 3989TIP3    H136162   4.800   1.949  17.359  0.0407 -0.6106 -1.8545
 3989TIP3    H236163   4.806   1.819  17.438 -0.0427  1.2591  1.4031
 3990TIP3   OH236164   6.401   7.891  17.960 -0.5465 -0.1516  0.4722
 3990TIP3    H136165   6.351   7.814  17.934 -1.9511  0.3170  1.6870
 3990TIP3    H236166   6.477   7.855  18.006 -0.0618 -0.8415 -0.7948
 3991TIP3   OH236167   6.092   3.515  15.993  0.0418 -0.2902  0.4917
 3991TIP3    H136168   6.126   3.427  15.981 -4.3191 -1.9731 -1.8245
 3991TIP3    H236169   6.127   3.565  15.919  1.1531 -0.5384  0.8365
 3992TIP3   OH236170   2.819   8.122  15.335 -0.0837  0.0306 -0.1861
 3992TIP3    H136171   2.737   8.156  15.371  0.1439 -1.8306  2.3780
 3992TIP3    H236172   2.791   8.053  15.274 -0.4755 -0.9639  1.0812
 3993TIP3   OH236173   4.938   4.566  16.935 -0.5089 -0.4227  0.1052
 3993TIP3    H136174   5.010   4.517  16.973 -1.1976  0.0248  2.1038
 3993TIP3    H236175   4.903   4.509  16.867  1.1618 -0.9910 -0.3209
 3994TIP3   OH236176   2.150   0.539  16.466  0.0208  0.0135  1.0459
 3994TIP3    H136177   2.124   0.582  16.385 -2.6568 -0.2819  1.6390
 3994TIP3    H236178   2.165   0.448  16.442 -2.1444 -0.3948  1.0165
 3995TIP3   OH236179   3.080   1.500  16.449  0.4244 -0.6473 -0.4461
 3995TIP3    H136180   3.070   1.416  16.493  0.8342  0.4802  2.0166
 3995TIP3    H236181   3.101   1.478  16.358  1.8140 -3.2009  0.3997
 3996TIP3   OH236182   1.345   4.163  16.555 -0.0610 -0.5287 -0.3521
 3996TIP3    H136183   1.434   4.199  16.562 -0.4748  0.8121 -1.6092
 3996TIP3    H236184   1.326   4.130  16.643  0.5454  1.9381  0.7797
 3997TIP3   OH236185   0.221   2.030  17.396 -0.2336  0.2231  0.2321
 3997TIP3    H136186   0.172   2.092  17.450  0.3212 -1.0723  2.3473
 3997TIP3    H236187   0.168   1.951  17.395  0.1766 -0.0561 -0.4136
 3998TIP3   OH236188   0.031   6.272  18.183  0.3617 -0.5703 -0.3218
 3998TIP3    H136189   0.061   6.360  18.205 -1.4528  0.1448 -0.5551
 3998TIP3    H236190   0.105   6.232  18.137  0.2386  1.8810 -2.8797
 3999TIP3   OH236191   4.177   6.474  17.711 -0.0514  0.1605 -0.2207
 3999TIP3    H136192   4.263   6.497  17.676  0.4081  2.4914  2.1010
 3999TIP3    H236193   4.174   6.379  17.708  1.9065  0.0844 -1.8924
 4000TIP3   OH236194   7.644   1.668  17.694 -0.1783  0.0093 -0.1474
 4000TIP3    H136195   7.734   1.637  17.699  0.4623  1.6632 -0.5979
 4000TIP3    H236196   7.650   1.753  17.650 -2.0365 -0.1273 -0.7719
 4001TIP3   OH236197   0.595   7.316  17.518  0.3631  0.1654  0.0774
 4001TIP3    H136198   0.512   7.286  17.556  1.0883  0.5405  2.0958
 4001TIP3    H236199   0.595   7.411  17.533  1.2959  0.1240  0.4069
 4002TIP3   OH236200   1.862   7.763  16.219 -0.0617  0.1764  0.2574
 4002TIP3    H136201   1.848   7.812  16.300 -1.4308  0.7615 -0.2911
 4002TIP3    H236202   1.879   7.674  16.247  1.6459  0.7779  1.2487
 4003TIP3   OH236203   2.038   7.936  16.095  0.0230  0.5492 -0.2189
 4003TIP3    H136204   1.990   7.896  16.166 -0.9493  1.9813 -0.0270
 4003TIP3    H236205   2.021   7.880  16.019  0.3525 -0.4882  0.4571
 4004TIP3   OH236206   3.106   0.044  17.236  0.1451  0.7886  0.2288
 4004TIP3    H136207   3.088   0.088  17.319  0.2343  1.0738  0.0975
 4004TIP3    H236208   3.201   0.034  17.234 -0.0157 -1.9822  1.5582
 4005TIP3   OH236209   4.086   7.748  16.526  0.4099  0.0758  0.1523
 4005TIP3    H136210   4.020   7.680  16.541  1.8580 -0.5964  5.0391
 4005TIP3    H236211   4.047   7.827  16.563  0.4282  0.9572 -1.6197
 4006TIP3   OH236212   6.264   0.180  17.806  0.2671 -0.0182  0.0671
 4006TIP3    H136213   6.279   0.148  17.717  1.5529  1.9493 -0.4630
 4006TIP3    H236214   6.270   0.275  17.800  1.8454  0.1281  2.4954
 4007TIP3   OH236215   8.427   7.575  16.821 -0.1897 -0.7124 -0.2917
 4007TIP3    H136216   8.489   7.530  16.763 -0.5310 -0.5089 -0.8235
 4007TIP3    H236217   8.446   7.668  16.810  0.7691 -0.7207  1.0967
 4008TIP3   OH236218   0.429   6.689  17.242 -0.1680 -0.5196 -0.1151
 4008TIP3    H136219   0.405   6.616  17.299  0.8997  0.0856  1.1470
 4008TIP3    H236220   0.508   6.660  17.197  0.3710 -0.0896  0.5342
 4009TIP3   OH236221   3.172   6.692  15.517 -0.5992 -0.3223 -0.2026
 4009TIP3    H136222   3.077   6.697  15.507 -0.5124 -0.0174 -0.9199
 4009TIP3    H236223   3.186   6.688  15.612 -1.2795  0.6710 -0.0465
 4010TIP3   OH236224   1.480   7.436  15.755  0.4546  0.5095 -0.2671
 4010TIP3    H136225   1.493   7.473  15.668 -2.6390 -0.7738 -1.4191
 4010TIP3    H236226   1.480   7.342  15.741 -1.2243  0.3019  0.8683
 4011TIP3   OH236227   4.120   0.098  16.919  0.2483 -0.6646  0.7544
 4011TIP3    H136228   4.095   0.008  16.903 -0.8147 -0.1319 -0.7701
 4011TIP3    H236229   4.048   0.134  16.971 -0.0510 -0.3051  0.0979
 4012TIP3   OH236230   6.743   4.613  16.874  0.1106 -0.1116  0.0241
 4012TIP3    H136231   6.820   4.670  16.874 -1.3170  1.8904 -0.3722
 4012TIP3    H236232   6.732   4.588  16.782 -0.4210  0.6396 -0.1268
 4013TIP3   OH236233   3.930   7.278  16.064 -0.0256  0.4426  0.0290
 4013TIP3    H136234   3.849   7.238  16.096 -0.5081 -0.3115 -1.9789
 4013TIP3    H236235   3.985   7.286  16.141 -0.6974 -2.2113  0.8849
 4014TIP3   OH236236   2.666   6.592  16.472  0.0572 -0.1215  0.2407
 4014TIP3    H136237   2.581   6.634  16.481  0.7387  1.0747  1.3344
 4014TIP3    H236238   2.666   6.557  16.383 -0.3443  2.7000 -0.9734
 4015TIP3   OH236239   2.214   3.994  15.874 -0.0007  0.0360  0.7350
 4015TIP3    H136240   2.183   4.014  15.785 -2.0045 -0.0602  1.3592
 4015TIP3    H236241   2.247   3.904  15.868  0.8375  0.3888 -0.1263
 4016TIP3   OH236242   4.023   0.392  17.605 -0.1149 -0.0206 -0.6808
 4016TIP3    H136243   4.051   0.470  17.556 -1.2783  0.8182 -0.0646
 4016TIP3    H236244   4.075   0.395  17.686 -1.5867  1.3054  0.2754
 4017TIP3   OH236245   1.496   6.239  15.633 -0.0682 -0.1390 -0.1262
 4017TIP3    H136246   1.412   6.266  15.595 -0.4996  1.0513  1.5847
 4017TIP3    H236247   1.513   6.302  15.703  1.6974 -1.0477  0.3368
 4018TIP3   OH236248   0.525   7.588  17.604 -0.0163  0.0357 -0.2290
 4018TIP3    H136249   0.454   7.603  17.541 -0.3644  0.4572  0.2546
 4018TIP3    H236250   0.498   7.637  17.682  0.1740 -0.8696  0.4200
 4019TIP3   OH236251   2.600   1.634  17.394 -0.5172 -0.2380 -0.3351
 4019TIP3    H136252   2.591   1.695  17.467 -1.2387 -1.1444  0.3707
 4019TIP3    H236253   2.519   1.582  17.396 -0.1513 -0.8772 -1.2205
 4020TIP3   OH236254   6.662   3.926  15.845  0.4492  0.0757  0.0381
 4020TIP3    H136255   6.668   4.021  15.831  0.2495  0.0998  0.1060
 4020TIP3    H236256   6.587   3.916  15.904  0.9259 -0.0675  0.6245
 4021TIP3   OH236257   6.881   7.301  15.644  0.1026  0.1657  0.8199
 4021TIP3    H136258   6.953   7.363  15.636  1.3013 -1.0546  1.6971
 4021TIP3    H236259   6.909   7.225  15.593 -1.4724  0.4045 -0.4919
 4022TIP3   OH236260   0.634   4.121  15.826 -0.0743  0.5328 -0.5046
 4022TIP3    H136261   0.713   4.089  15.869  0.2882  2.0533  0.0506
 4022TIP3    H236262   0.593   4.044  15.787  0.7207 -0.5526  0.7644
 4023TIP3   OH236263   6.161   4.974  17.779  0.4490  0.6001 -0.1907
 4023TIP3    H136264   6.221   4.944  17.847 -2.5834 -1.2497  1.9291
 4023TIP3    H236265   6.139   5.064  17.803 -0.8368 -0.1333  1.6203
 4024TIP3   OH236266   8.385   7.563  16.193 -0.4284 -0.0467  0.1463
 4024TIP3    H136267   8.459   7.613  16.159  0.2465 -2.3123 -2.0418
 4024TIP3    H236268   8.414   7.532  16.279  1.0656 -0.5773 -0.5084
 4025TIP3   OH236269   3.379   1.993  15.897 -0.0209 -0.2879  0.2746
 4025TIP3    H136270   3.346   2.033  15.817  0.0083  0.1736  0.4887
 4025TIP3    H236271   3.417   1.909  15.869  0.8016  0.2768 -0.3288
 4026TIP3   OH236272   2.023   0.272  17.222 -0.0158  0.4428 -0.0126
 4026TIP3    H136273   2.054   0.241  17.307  1.5023  1.7541 -0.0455
 4026TIP3    H236274   2.083   0.234  17.159 -0.8536 -0.1365 -0.4820
 4027TIP3   OH236275   1.425   2.384  16.773 -0.4085  0.1991  0.3862
 4027TIP3    H136276   1.452   2.293  16.762 -0.1499  0.2625  0.4790
 4027TIP3    H236277   1.500   2.426  16.815  0.8308  1.2152 -2.6218
 4028TIP3   OH236278   3.397   3.297  17.107 -0.5030  0.3604  0.0462
 4028TIP3    H136279   3.423   3.269  17.194 -1.7575  0.1004  0.3546
 4028TIP3    H236280   3.305   3.322  17.116 -1.0110 -0.8160 -1.4518
 4029TIP3   OH236281   5.685   2.671  16.536  0.2315 -0.2503  0.5423
 4029TIP3    H136282   5.772   2.646  16.567 -0.5456 -3.1185  0.6120
 4029TIP3    H236283   5.625   2.645  16.605 -0.7781  1.0268  0.1885
 4030TIP3   OH236284   1.120   0.667  17.483 -0.3091  0.1452  0.3426
 4030TIP3    H136285   1.092   0.741  17.430 -0.4429 -1.0839 -1.3746
 4030TIP3    H236286   1.048   0.652  17.544 -1.7494 -0.5621 -1.4553
 4031TIP3   OH236287   4.652   5.722  17.385 -0.5451 -0.1857 -0.0418
 4031TIP3    H136288   4.585   5.655  17.403  0.0897 -0.7463  0.2758
 4031TIP3    H236289   4.634   5.791  17.448 -0.6221 -0.4785  0.2577
 4032TIP3   OH236290   3.073   6.287  17.382  0.4176  0.0826 -0.7502
 4032TIP3    H136291   3.013   6.334  17.324  0.5722  0.3957 -0.6603
 4032TIP3    H236292   3.042   6.196  17.381 -0.0935  0.2512 -0.6636
 4033TIP3   OH236293   7.014   0.027  17.667 -0.0311 -0.0466 -0.1954
 4033TIP3    H136294   6.980  -0.061  17.685 -0.3787  0.2672  0.7404
 4033TIP3    H236295   7.106   0.012  17.643 -0.8780 -0.9365 -3.2604
 4034TIP3   OH236296   1.812   6.258  16.690 -0.1217 -0.1822  0.3362
 4034TIP3    H136297   1.889   6.200  16.690 -0.1224 -0.1891  0.6965
 4034TIP3    H236298   1.759   6.226  16.763  0.0198  0.4638  0.7304
 4035TIP3   OH236299   3.846   4.902  17.012 -0.2634  0.1799 -0.0619
 4035TIP3    H136300   3.854   4.903  17.108 -0.2304 -1.2973 -0.0336
 4035TIP3    H236301   3.933   4.877  16.981 -0.4511 -0.0024 -0.4502
 4036TIP3   OH236302   8.107   0.916  17.419 -0.0818  0.3086  0.7457
 4036TIP3    H136303   8.063   0.912  17.334 -0.6389  0.4798  1.0268
 4036TIP3    H236304   8.190   0.869  17.404  0.2426  1.1123 -0.1426
 4037TIP3   OH236305   3.011   0.123  17.473 -0.3497 -0.0348 -0.1776
 4037TIP3    H136306   2.995   0.151  17.563  0.8898 -0.4081  0.1803
 4037TIP3    H236307   2.964   0.040  17.465  0.1748 -0.3908  0.3792
 4038TIP3   OH236308   4.520   1.297  16.544  0.0919  0.5165  0.3338
 4038TIP3    H136309   4.578   1.273  16.616 -0.6055  0.1754  0.7884
 4038TIP3    H236310   4.501   1.390  16.558  0.0109  0.4673  0.5517
 4039TIP3   OH236311   7.001   7.385  18.248  0.6777  0.1388 -0.1386
 4039TIP3    H136312   6.994   7.349  18.337  0.7579 -2.2687 -1.0222
 4039TIP3    H236313   7.038   7.313  18.197  0.5014  1.4248 -2.1603
 4040TIP3   OH236314   7.267   7.703  18.104 -0.7571  0.2328 -0.0989
 4040TIP3    H136315   7.289   7.711  18.011 -0.5289 -1.3370 -0.2042
 4040TIP3    H236316   7.188   7.756  18.115 -0.3052  1.1238 -0.9938
 4041TIP3   OH236317   2.177   0.560  17.297  0.0239  0.2049 -0.2503
 4041TIP3    H136318   2.222   0.503  17.360  0.6722  1.6622  0.6574
 4041TIP3    H236319   2.240   0.573  17.227 -1.2882 -2.8065 -2.1976
 4042TIP3   OH236320   2.944   5.517  17.300  0.3148 -0.2831 -0.1923
 4042TIP3    H136321   2.906   5.486  17.218  0.4619 -1.6154  0.2211
 4042TIP3    H236322   2.934   5.444  17.360 -1.0408  1.1569  1.4186
 4043TIP3   OH236323   4.517   3.453  16.806  0.7677  0.2007  0.7811
 4043TIP3    H136324   4.566   3.376  16.778 -0.5099 -1.6472  3.2544
 4043TIP3    H236325   4.425   3.425  16.806  0.1643  2.0184  0.8732
 4044TIP3   OH236326   5.720   3.806  16.421  0.6747  0.0655  0.1289
 4044TIP3    H136327   5.662   3.810  16.345  1.8539 -0.8598 -0.8718
 4044TIP3    H236328   5.662   3.814  16.496 -0.7903 -1.2106 -0.8096
 4045TIP3   OH236329   5.084   2.910  17.004 -0.8769  0.1337  0.5856
 4045TIP3    H136330   5.002   2.910  17.054  0.1003  0.4938  2.2502
 4045TIP3    H236331   5.153   2.902  17.070  0.4404 -0.5202 -0.8034
 4046TIP3   OH236332   7.698   0.149  17.275 -0.0891 -0.1450 -0.0109
 4046TIP3    H136333   7.627   0.210  17.257  1.1448  0.6448 -2.8242
 4046TIP3    H236334   7.775   0.205  17.284  0.2954 -0.9916  2.7781
 4047TIP3   OH236335   0.182   3.454  17.673  0.1228  0.2734 -0.0728
 4047TIP3    H136336   0.274   3.453  17.645 -0.7221 -0.8053 -3.3656
 4047TIP3    H236337   0.180   3.398  17.751  2.1675 -0.2022 -0.2941
 4048TIP3   OH236338   4.474   6.508  16.555  0.3457 -0.3145  0.0769
 4048TIP3    H136339   4.478   6.500  16.460  0.8609  0.7940 -0.0118
 4048TIP3    H236340   4.463   6.418  16.586 -2.9359 -0.4924 -1.1401
 4049TIP3   OH236341   5.796   1.538  17.599  0.0260  0.3093  0.1194
 4049TIP3    H136342   5.821   1.567  17.511 -1.1130 -1.7446 -0.9332
 4049TIP3    H236343   5.866   1.479  17.626 -0.0379  0.2969  0.2586
 4050TIP3   OH236344   4.678   2.405  16.593  1.0978  0.2092  0.3557
 4050TIP3    H136345   4.720   2.450  16.520  2.2425 -0.8083  0.3430
 4050TIP3    H236346   4.736   2.331  16.612 -1.1813 -1.9099 -0.3334
 4051TIP3   OH236347   6.503   4.663  16.154  0.0934 -0.0563 -0.3739
 4051TIP3    H136348   6.485   4.578  16.112  0.0800  1.2064 -3.1369
 4051TIP3    H236349   6.447   4.725  16.107 -0.2370  1.4691  1.8795
 4052TIP3   OH236350   5.834   6.714  16.941 -0.7568  0.1882  0.0429
 4052TIP3    H136351   5.804   6.737  17.029 -1.6763  0.4002 -0.3255
 4052TIP3    H236352   5.928   6.699  16.952 -0.9733 -0.4173  1.1852
 4053TIP3   OH236353   1.200   2.926  16.419 -0.3274 -0.2112  0.8645
 4053TIP3    H136354   1.188   2.893  16.508  0.1181 -1.6715  0.4216
 4053TIP3    H236355   1.294   2.947  16.413 -0.4547  0.3733  0.8949
 4054TIP3   OH236356   6.969   0.547  15.757  0.1622 -0.5056 -0.2388
 4054TIP3    H136357   6.990   0.488  15.685  3.1318  0.2384 -0.1255
 4054TIP3    H236358   6.949   0.631  15.715  0.2693 -0.4962 -0.2728
 4055TIP3   OH236359   0.772   2.199  16.919 -0.0473 -0.0614 -0.0122
 4055TIP3    H136360   0.810   2.138  16.983  1.2015 -1.1580 -1.7194
 4055TIP3    H236361   0.707   2.248  16.969  0.7894 -0.9446  2.0700
 4056TIP3   OH236362   0.432   3.978  16.603 -0.3180  0.4328 -0.8907
 4056TIP3    H136363   0.347   3.933  16.608 -0.5198  0.7725 -1.1853
 4056TIP3    H236364   0.419   4.045  16.536  0.4224 -0.0301 -1.5226
 4057TIP3   OH236365   7.174   0.068  16.996 -0.2194  0.2377 -0.0305
 4057TIP3    H136366   7.183   0.052  16.902 -1.1882 -4.2707  0.4085
 4057TIP3    H236367   7.094   0.120  17.004 -0.9531 -0.5697 -1.6677
 4058TIP3   OH236368   0.346   6.340  16.138 -0.1656  0.3892 -0.0224
 4058TIP3    H136369   0.351   6.283  16.062  0.1281  1.4857 -0.8536
 4058TIP3    H236370   0.358   6.428  16.103 -0.5373  0.9671  1.2259
 4059TIP3   OH236371   1.522   4.451  17.795 -0.1609  0.8528  0.7026
 4059TIP3    H136372   1.532   4.537  17.755 -0.6743 -0.6499 -3.1475
 4059TIP3    H236373   1.609   4.411  17.789 -0.1418  0.7582  1.5520
 4060TIP3   OH236374   5.695   2.449  17.638 -0.1750  0.2291 -0.0035
 4060TIP3    H136375   5.683   2.535  17.679 -0.3285  0.1248  0.1706
 4060TIP3    H236376   5.698   2.388  17.711 -0.8952 -0.0074 -0.1680
 4061TIP3   OH236377   3.579   2.717  16.835 -0.2694 -0.5502 -0.2626
 4061TIP3    H136378   3.653   2.761  16.877 -0.7554  0.6195 -0.6103
 4061TIP3    H236379   3.590   2.625  16.859  0.0609 -0.0772  1.5547
 4062TIP3   OH236380   2.551   1.472  17.698  0.2834 -0.3957  0.0580
 4062TIP3    H136381   2.577   1.386  17.664 -1.0564 -0.6268 -0.4329
 4062TIP3    H236382   2.473   1.454  17.750 -0.6160  0.6531 -0.8822
 4063TIP3   OH236383   6.236   2.221  17.600  0.4317  0.4424 -0.2008
 4063TIP3    H136384   6.313   2.164  17.605 -0.3752 -0.9184 -2.1608
 4063TIP3    H236385   6.232   2.247  17.508 -0.7995  1.4307  0.1147
 4064TIP3   OH236386   0.751   4.308  17.657 -0.2029  0.4955 -0.5057
 4064TIP3    H136387   0.686   4.335  17.721  1.4050  3.3673  0.0895
 4064TIP3    H236388   0.820   4.267  17.709 -0.1949  0.1604 -0.7771
 4065TIP3   OH236389   1.425   0.762  16.546  0.1408  0.5431  0.0931
 4065TIP3    H136390   1.344   0.790  16.589 -0.1244 -0.9782  0.6578
 4065TIP3    H236391   1.399   0.748  16.454 -0.4044 -0.4730  0.3818
 4066TIP3   OH236392   4.467   2.190  16.984  0.7237 -0.1977  0.1369
 4066TIP3    H136393   4.546   2.137  16.995 -0.8225 -2.4781  1.0046
 4066TIP3    H236394   4.497   2.281  16.988  3.2385 -0.9945  0.6791
 4067TIP3   OH236395   0.324   7.760  17.702  0.3425  0.2410  0.1807
 4067TIP3    H136396   0.261   7.815  17.749 -0.0820  0.2068 -0.3332
 4067TIP3    H236397   0.274   7.724  17.629  1.2947  1.2983 -1.0529
 4068TIP3   OH236398   8.201   4.865  16.763  0.1414  0.0632 -0.2759
 4068TIP3    H136399   8.131   4.896  16.821  0.5560 -0.1514  0.3513
 4068TIP3    H236400   8.276   4.921  16.785 -0.0615  0.8756 -1.5555
 4069TIP3   OH236401   8.257   6.637  17.224 -0.1296  0.3958 -0.2543
 4069TIP3    H136402   8.300   6.602  17.146 -2.0009 -0.6784 -0.8600
 4069TIP3    H236403   8.323   6.631  17.293  1.0141 -0.1878 -1.3663
 4070TIP3   OH236404   6.177   3.266  15.987 -0.0915 -0.1690 -0.2818
 4070TIP3    H136405   6.192   3.195  15.925 -0.6765 -0.5913  0.0492
 4070TIP3    H236406   6.261   3.280  16.030 -0.1424 -1.1613  0.1614
 4071TIP3   OH236407   2.306   1.517  16.755 -0.2263  0.0221 -0.4142
 4071TIP3    H136408   2.274   1.456  16.688  2.3469 -1.2870 -0.5816
 4071TIP3    H236409   2.307   1.465  16.836 -0.0209  0.4975 -0.1092
 4072TIP3   OH236410   5.174   7.732  17.076  0.4489  0.4825  0.7193
 4072TIP3    H136411   5.227   7.809  17.055  1.0464 -0.1059  0.0051
 4072TIP3    H236412   5.181   7.723  17.171 -1.0891  2.3302  1.0625
 4073TIP3   OH236413   2.787   3.100  18.198  0.2488 -0.7770 -0.3845
 4073TIP3    H136414   2.775   3.185  18.156 -1.3105 -0.2358  1.0458
 4073TIP3    H236415   2.714   3.046  18.168  0.4069 -1.1304 -0.1539
 4074TIP3   OH236416   7.678   5.532  15.937 -0.2842  0.1469  0.1637
 4074TIP3    H136417   7.629   5.614  15.924  0.1977  0.4207  0.0485
 4074TIP3    H236418   7.650   5.476  15.865 -0.5101  0.2650  0.1592
 4075TIP3   OH236419   5.304   0.702  17.299 -0.1200  0.1643  0.1245
 4075TIP3    H136420   5.306   0.702  17.203 -0.0431 -0.5270  0.1191
 4075TIP3    H236421   5.394   0.680  17.324 -0.0166  0.8485  0.3665
 4076TIP3   OH236422   8.272   7.305  16.579  0.2952 -0.4518  0.0362
 4076TIP3    H136423   8.268   7.244  16.505  0.8302  0.7240 -0.9928
 4076TIP3    H236424   8.345   7.364  16.558  0.1458  0.2070  1.2694
 4077TIP3   OH236425   2.042   5.783  16.539 -0.4540 -0.2545 -0.0392
 4077TIP3    H136426   2.124   5.825  16.512 -0.3305  0.1702  0.9362
 4077TIP3    H236427   1.976   5.819  16.481 -0.2061  0.6853  0.2456
 4078TIP3   OH236428   8.021   6.578  17.827  0.2028  0.6169 -0.4927
 4078TIP3    H136429   8.053   6.490  17.845  1.0401  0.6154 -1.9103
 4078TIP3    H236430   7.929   6.566  17.805 -0.5508  0.4795  2.3001
 4079TIP3   OH236431   6.384   3.609  16.227  0.3064 -0.1328 -0.3410
 4079TIP3    H136432   6.464   3.637  16.182 -0.8958 -1.0650 -3.2813
 4079TIP3    H236433   6.333   3.563  16.160 -1.4887 -2.0418  2.1339
 4080TIP3   OH236434   3.687   3.297  17.551 -0.3131  0.4465 -0.3833
 4080TIP3    H136435   3.737   3.293  17.633  0.8311 -0.6354 -1.0970
 4080TIP3    H236436   3.717   3.377  17.508 -1.5002  1.4448  0.5892
 4081TIP3   OH236437   1.229   2.340  17.544 -0.0416 -0.2494 -0.5769
 4081TIP3    H136438   1.311   2.354  17.495  0.6427  0.9399  0.8239
 4081TIP3    H236439   1.257   2.328  17.634 -1.3861 -0.7595 -0.2091
 4082TIP3   OH236440   0.679   7.247  15.457  0.5559  0.4787 -0.2723
 4082TIP3    H136441   0.681   7.153  15.437 -1.4920  0.1618  0.7535
 4082TIP3    H236442   0.667   7.289  15.372 -0.7085 -0.3536 -0.5380
 4083TIP3   OH236443   5.589   2.914  17.025  0.5983  0.0994 -0.0084
 4083TIP3    H136444   5.508   2.930  17.074  0.9357  0.8350  0.3168
 4083TIP3    H236445   5.632   2.843  17.074 -0.1794 -0.8016 -0.5937
 4084TIP3   OH236446   3.026   0.195  15.842  0.3863 -0.3676  0.4467
 4084TIP3    H136447   3.045   0.121  15.784  0.1123 -1.6816  1.9699
 4084TIP3    H236448   2.961   0.247  15.794  0.1665 -1.4014 -0.4177
 4085TIP3   OH236449   2.202   4.913  16.399  0.6460 -0.4210  0.2117
 4085TIP3    H136450   2.151   4.973  16.453 -0.5515  0.4295 -1.7594
 4085TIP3    H236451   2.286   4.904  16.445  0.1480  1.2435  1.5448
 4086TIP3   OH236452   4.287   8.442  16.143 -0.4080  0.0327  0.1976
 4086TIP3    H136453   4.366   8.401  16.108 -0.6226  1.0792 -1.6476
 4086TIP3    H236454   4.318   8.526  16.178 -0.1653 -1.0656  2.8682
 4087TIP3   OH236455   0.958   1.437  15.933  0.3781 -0.1840  0.0413
 4087TIP3    H136456   0.964   1.501  15.862 -0.8888 -0.3744 -0.2717
 4087TIP3    H236457   1.008   1.361  15.901 -1.2184 -0.7492 -1.2434
 4088TIP3   OH236458   7.208   1.895  16.367 -0.5005  0.0711 -0.1526
 4088TIP3    H136459   7.211   1.801  16.380 -0.2391 -0.3903 -2.8205
 4088TIP3    H236460   7.203   1.932  16.455 -2.6767 -2.4663  0.9399
 4089TIP3   OH236461   4.530   2.141  16.165  0.0539 -0.0162 -0.0830
 4089TIP3    H136462   4.521   2.078  16.237 -0.3800 -2.7672 -2.3621
 4089TIP3    H236463   4.595   2.102  16.107  1.8827  3.0896 -0.3243
 4090TIP3   OH236464   0.951   6.197  17.974 -0.4260 -0.0591  0.0027
 4090TIP3    H136465   0.873   6.247  18.000 -0.0465  2.1989 -2.7413
 4090TIP3    H236466   0.925   6.152  17.894  0.8631  0.1012 -0.5242
 4091TIP3   OH236467   0.740   6.341  18.086 -0.6240  0.6451 -0.5244
 4091TIP3    H136468   0.732   6.345  18.181 -1.2951  0.9983 -0.5929
 4091TIP3    H236469   0.669   6.396  18.053  0.2316  1.3663 -1.2188
 4092TIP3   OH236470   6.554   2.273  17.432 -0.0866  0.1537 -0.4271
 4092TIP3    H136471   6.638   2.286  17.388 -0.5757 -0.7448 -1.7207
 4092TIP3    H236472   6.489   2.306  17.370 -0.9857 -3.3835 -1.6458
 4093TIP3   OH236473   1.770   7.059  15.911  0.0406 -0.0818 -0.2529
 4093TIP3    H136474   1.727   7.036  15.828  2.3284  0.7257 -1.7508
 4093TIP3    H236475   1.718   7.131  15.946 -2.8417 -2.4289  0.7557
 4094TIP3   OH236476   0.524   7.523  17.116  0.3318 -0.6085 -0.3155
 4094TIP3    H136477   0.527   7.591  17.183  1.2348 -0.0644 -0.8843
 4094TIP3    H236478   0.593   7.461  17.141  0.5822 -0.4727 -0.6648
 4095TIP3   OH236479   6.893   6.858  17.939 -0.7783 -0.0255 -0.4071
 4095TIP3    H136480   6.845   6.820  17.864 -0.1863 -0.1950 -0.7036
 4095TIP3    H236481   6.920   6.944  17.908 -1.9748  0.5964  0.2082
 4096TIP3   OH236482   2.844   7.664  16.747 -0.5119 -0.2861 -0.1817
 4096TIP3    H136483   2.851   7.594  16.812 -0.3308 -1.0466 -1.0068
 4096TIP3    H236484   2.934   7.698  16.740 -0.8333  1.0277  1.2509
 4097TIP3   OH236485   4.127   5.399  16.163  0.2638  0.1059 -0.0064
 4097TIP3    H136486   4.137   5.403  16.068  1.2160 -0.3036  0.0723
 4097TIP3    H236487   4.036   5.425  16.178 -0.4784 -1.6228 -1.1652
 4098TIP3   OH236488   0.609   6.116  16.128  0.5041 -0.1251  0.3194
 4098TIP3    H136489   0.539   6.131  16.064  0.5966 -0.7741  0.0542
 4098TIP3    H236490   0.663   6.195  16.124 -1.3144  1.2818  1.9873
 4099TIP3   OH236491   6.582   6.315  16.691  0.0015 -0.4063  0.2805
 4099TIP3    H136492   6.597   6.398  16.735  2.0717 -0.3156 -0.5057
 4099TIP3    H236493   6.491   6.320  16.662  0.0807  1.6199  0.2136
 4100TIP3   OH236494   3.283   6.381  16.508 -0.2147  0.0638  0.3905
 4100TIP3    H136495   3.243   6.397  16.594  0.2434 -0.1824  0.6545
 4100TIP3    H236496   3.376   6.368  16.527 -0.0794  0.1967 -0.1681
 4101TIP3   OH236497   8.010   0.951  16.926  0.0444  0.3417  0.5105
 4101TIP3    H136498   7.994   0.933  17.019  1.1370  0.9354  0.8325
 4101TIP3    H236499   8.009   1.046  16.919  0.1526  0.3047 -0.0466
 4102TIP3   OH236500   7.089   7.868  16.417 -0.0238 -0.2070 -0.3947
 4102TIP3    H136501   7.117   7.777  16.402 -0.5144 -0.7308  1.6340
 4102TIP3    H236502   7.167   7.911  16.453 -0.9706 -1.1071  3.1448
 4103TIP3   OH236503   3.328   4.466  17.153  0.5875 -0.2553 -0.1461
 4103TIP3    H136504   3.345   4.378  17.121 -0.7860  0.1149 -2.0131
 4103TIP3    H236505   3.250   4.457  17.207  0.1470 -0.1137 -0.7516
 4104TIP3   OH236506   1.314   1.539  16.427 -0.4326  0.6207 -0.8737
 4104TIP3    H136507   1.266   1.589  16.494 -1.8645  0.2132 -1.5660
 4104TIP3    H236508   1.302   1.447  16.452  0.0810  0.5158 -1.0027
 4105TIP3   OH236509   5.751   2.320  16.694  0.7350 -0.1627  0.6589
 4105TIP3    H136510   5.752   2.233  16.653  0.2754 -0.4672  1.2788
 4105TIP3    H236511   5.796   2.376  16.632  0.7068 -0.7726  0.0766
 4106TIP3   OH236512   7.596   3.914  16.767  1.0423 -0.7448 -0.6050
 4106TIP3    H136513   7.642   3.966  16.702 -0.7628 -0.8595 -2.0654
 4106TIP3    H236514   7.655   3.841  16.787  1.8748 -0.3772 -1.6779
 4107TIP3   OH236515   2.594   3.262  16.529  0.4733 -0.0616 -0.7038
 4107TIP3    H136516   2.574   3.179  16.487 -0.1533  0.3933 -1.3285
 4107TIP3    H236517   2.564   3.252  16.620  0.1605 -0.4289 -0.8477
 4108TIP3   OH236518   5.175   3.639  17.799  0.0750 -0.4260 -0.3517
 4108TIP3    H136519   5.194   3.546  17.815  0.3059 -0.3383 -0.1103
 4108TIP3    H236520   5.173   3.678  17.886  1.5964  0.1027 -0.5161
 4109TIP3   OH236521   3.503   5.994  15.704 -0.4727 -0.1249 -0.2114
 4109TIP3    H136522   3.488   6.077  15.749 -1.5340 -0.2914 -0.2233
 4109TIP3    H236523   3.576   6.011  15.644 -1.0081  0.9381 -0.5809
 4110TIP3   OH236524   7.522   1.833  17.881  0.0560 -0.9810 -0.1727
 4110TIP3    H136525   7.499   1.743  17.857 -2.3924 -0.8832  1.3573
 4110TIP3    H236526   7.447   1.885  17.853  1.9874  0.8802 -2.2156
 4111TIP3   OH236527   3.997   4.880  15.925 -0.0089  0.1777  0.5515
 4111TIP3    H136528   3.917   4.888  15.873 -0.5855  2.6760  1.6718
 4111TIP3    H236529   3.997   4.788  15.954 -1.2762 -0.4454 -1.2470
 4112TIP3   OH236530   6.894   5.782  17.749 -0.1954  0.1015 -0.6009
 4112TIP3    H136531   6.969   5.821  17.705  0.3047 -0.9743 -0.7402
 4112TIP3    H236532   6.833   5.759  17.679 -0.9814  1.5880 -0.4401
 4113TIP3   OH236533   7.315   5.092  16.830 -0.4207 -0.2223  0.1779
 4113TIP3    H136534   7.298   5.155  16.760  0.6628 -0.8083 -0.6435
 4113TIP3    H236535   7.400   5.055  16.808 -0.3379 -0.8574  1.4952
 4114TIP3   OH236536   7.340   1.035  16.975 -0.1182 -0.5463 -0.4698
 4114TIP3    H136537   7.305   0.989  16.899  0.6691 -1.2613 -0.4161
 4114TIP3    H236538   7.429   1.060  16.949 -0.4054  0.6451 -0.3676
 4115TIP3   OH236539   5.409   6.187  17.141  0.3152 -0.2209 -0.2390
 4115TIP3    H136540   5.461   6.227  17.210  1.9210 -0.2455 -1.3748
 4115TIP3    H236541   5.458   6.110  17.114 -2.2981 -2.6210  1.3045
 4116TIP3   OH236542   6.656   1.440  17.597  0.5781  0.3848 -0.5186
 4116TIP3    H136543   6.601   1.472  17.525 -1.1667 -0.6218  0.3055
 4116TIP3    H236544   6.742   1.480  17.581 -0.1832  1.4496 -2.2556
 4117TIP3   OH236545   3.250   3.641  17.087  0.3334  0.2437 -0.3717
 4117TIP3    H136546   3.184   3.575  17.103 -1.6317  1.7534 -1.7707
 4117TIP3    H236547   3.321   3.620  17.148 -0.8010 -2.2527  0.1989
 4118TIP3   OH236548   4.964   7.571  16.994 -0.0515  0.3075 -0.0236
 4118TIP3    H136549   5.011   7.519  16.929  1.3576 -0.6559  1.6756
 4118TIP3    H236550   5.033   7.615  17.044 -1.0930  1.2408  0.6408
 4119TIP3   OH236551   5.938   1.591  16.185  0.2473 -0.0783  0.0662
 4119TIP3    H136552   5.869   1.591  16.252  0.4190  1.4411  0.2782
 4119TIP3    H236553   5.891   1.605  16.103 -0.0498 -2.7004 -0.3042
 4120TIP3   OH236554   6.051   6.243  16.879  0.1470  0.5310  0.3744
 4120TIP3    H136555   5.996   6.232  16.801  2.0542  1.7037 -1.2508
 4120TIP3    H236556   6.100   6.161  16.885  0.1405  0.5122  0.1952
 4121TIP3   OH236557   5.963   3.395  16.581 -0.2062  0.5658 -0.1777
 4121TIP3    H136558   5.919   3.470  16.540 -0.1260 -0.1818 -1.7034
 4121TIP3    H236559   6.023   3.434  16.644 -0.8656  1.7422 -0.2532
 4122TIP3   OH236560   0.096   7.873  17.793  0.0296 -0.1463 -0.1155
 4122TIP3    H136561   0.080   7.954  17.842 -0.6020  1.8035 -3.2698
 4122TIP3    H236562   0.016   7.822  17.806 -1.4774  1.6998 -1.4429
 4123TIP3   OH236563   7.569   2.507  17.843  0.2038 -0.0216  0.0618
 4123TIP3    H136564   7.536   2.419  17.862 -0.5259  0.1204 -0.4893
 4123TIP3    H236565   7.647   2.493  17.790 -0.3930 -0.3397 -0.7577
 4124TIP3   OH236566   1.747   8.124  15.900 -0.5964 -0.1874  0.0457
 4124TIP3    H136567   1.654   8.142  15.887 -0.6000 -0.7217 -0.7218
 4124TIP3    H236568   1.749   8.065  15.976 -0.6916  1.6122  1.5401
 4125TIP3   OH236569   0.535   1.367  17.065  0.0195 -0.6076  0.2388
 4125TIP3    H136570   0.447   1.385  17.099  0.1854 -2.6603  1.9186
 4125TIP3    H236571   0.582   1.450  17.076 -1.7447  0.6230 -0.9924
 4126TIP3   OH236572   2.369   0.067  17.626  0.2310 -0.7484  0.0999
 4126TIP3    H136573   2.410   0.132  17.683  0.3589 -0.5978 -0.1593
 4126TIP3    H236574   2.439   0.004  17.607  0.0847 -1.0134  0.4224
 4127TIP3   OH236575   5.054   6.468  17.772 -0.3445 -0.0706 -0.2197
 4127TIP3    H136576   4.974   6.520  17.780 -0.2920  0.0048 -0.1787
 4127TIP3    H236577   5.125   6.533  17.770 -0.1076 -0.1827  1.9276
 4128TIP3   OH236578   8.148   7.117  17.955  0.2032  0.7276 -0.1440
 4128TIP3    H136579   8.207   7.063  17.902 -1.8703 -1.2710 -0.5256
 4128TIP3    H236580   8.142   7.071  18.038 -3.4981 -1.1952 -1.2808
 4129TIP3   OH236581   8.215   2.040  16.308 -0.0011  0.3250  0.0657
 4129TIP3    H136582   8.211   1.959  16.359 -1.0446  0.6744  0.5641
 4129TIP3    H236583   8.125   2.055  16.278  0.3261  0.8854 -0.6905
 4130TIP3   OH236584   4.946   4.279  17.283  0.4038 -1.4510  0.0039
 4130TIP3    H136585   5.032   4.259  17.319  1.3440 -1.7861 -2.2681
 4130TIP3    H236586   4.960   4.283  17.189 -2.3119 -2.9057 -0.5678
 4131TIP3   OH236587   7.518   5.766  15.917  0.1974  0.0751  0.1488
 4131TIP3    H136588   7.429   5.767  15.951 -0.7828 -3.0681 -1.8553
 4131TIP3    H236589   7.531   5.854  15.881 -1.5948  0.9708  1.5320
 4132TIP3   OH236590   3.213   5.106  16.724  0.5532  0.1620  0.0045
 4132TIP3    H136591   3.307   5.092  16.742  0.1804 -0.3644  1.8447
 4132TIP3    H236592   3.175   5.121  16.811 -1.1005  0.1943 -0.7001
 4133TIP3   OH236593   2.221   5.448  17.868 -0.4714  0.2754 -0.0638
 4133TIP3    H136594   2.225   5.521  17.930 -0.6431  0.2537 -0.0266
 4133TIP3    H236595   2.129   5.442  17.844 -0.3403  0.5972 -0.6901
 4134TIP3   OH236596   3.883   7.041  17.042 -0.0078  0.0880 -0.1333
 4134TIP3    H136597   3.936   6.963  17.058 -1.4552 -0.8099  0.4918
 4134TIP3    H236598   3.946   7.113  17.041  1.4172 -1.1189 -1.1670
 4135TIP3   OH236599   8.141   2.568  18.007 -0.1520 -0.1629  0.7643
 4135TIP3    H136600   8.226   2.600  17.977 -0.0568 -1.5331 -0.5490
 4135TIP3    H236601   8.093   2.647  18.031  1.1326  0.7124  0.5756
 4136TIP3   OH236602   8.235   7.119  16.805 -0.4381  0.0209  0.2149
 4136TIP3    H136603   8.215   7.180  16.876  1.8273 -0.0581  0.9932
 4136TIP3    H236604   8.283   7.173  16.742 -1.0933 -0.2801 -0.5603
 4137TIP3   OH236605   7.541   1.360  17.172 -0.1726  0.2111  0.4947
 4137TIP3    H136606   7.447   1.364  17.155  0.2843  3.1557 -2.2891
 4137TIP3    H236607   7.570   1.450  17.164  2.5839 -0.1628  4.0326
 4138TIP3   OH236608   2.161   2.673  17.125  1.1461  0.0414 -0.0062
 4138TIP3    H136609   2.178   2.629  17.208 -0.9956 -0.6121  0.1646
 4138TIP3    H236610   2.105   2.747  17.148  2.0154  0.9270 -0.6790
 4139TIP3   OH236611   4.637   7.445  16.582 -0.3456  0.1037  0.0813
 4139TIP3    H136612   4.651   7.353  16.560 -1.0333  0.0633 -0.2051
 4139TIP3    H236613   4.572   7.476  16.519 -0.8364  0.5339  0.7819
 4140TIP3   OH236614   5.556   3.818  17.949  0.5171  0.2785  0.5007
 4140TIP3    H136615   5.645   3.854  17.958  1.4784 -1.8905  0.3531
 4140TIP3    H236616   5.570   3.726  17.929 -1.8058 -0.0826  0.2995
 4141TIP3   OH236617   0.006   7.433  17.072 -0.0253  0.0341  0.3600
 4141TIP3    H136618  -0.042   7.351  17.056  0.3272 -0.2707  0.8532
 4141TIP3    H236619   0.027   7.464  16.984 -0.4521 -0.2301  0.1550
 4142TIP3   OH236620   6.625   2.030  11.499  0.0019  0.0452 -0.0141
 4142TIP3    H136621   6.530   2.021  11.495 -0.0845  0.8789  0.1101
 4142TIP3    H236622   6.642   2.123  11.485  0.7519  0.0428  0.7680
 4143TIP3   OH236623   1.430   1.652  16.177 -0.2118  0.2256 -0.7403
 4143TIP3    H136624   1.429   1.744  16.206 -3.2544  0.0670  0.0224
 4143TIP3    H236625   1.423   1.601  16.258  2.3448 -0.8157 -1.0790
 4144TIP3   OH236626   4.376   6.416  17.332 -0.1049  0.0483 -0.1805
 4144TIP3    H136627   4.312   6.447  17.268  1.2409  1.2321 -1.0112
 4144TIP3    H236628   4.459   6.452  17.303  0.5089  1.0629  2.4956
 4145TIP3   OH236629   1.179   5.812  17.089 -0.0994 -0.4670  0.3557
 4145TIP3    H136630   1.231   5.816  17.009 -0.9762  1.0749 -0.1919
 4145TIP3    H236631   1.147   5.901  17.101 -0.0018 -0.6630  2.4456
 4146TIP3   OH236632   2.794   5.614  15.738  0.2027 -0.1660 -0.2418
 4146TIP3    H136633   2.807   5.658  15.654  0.5951  1.9191  0.8443
 4146TIP3    H236634   2.837   5.530  15.728  1.8666  0.7733 -1.5545
 4147TIP3   OH236635   4.751   5.407  17.521  1.0000 -0.0842  0.2126
 4147TIP3    H136636   4.662   5.415  17.553  0.7007 -2.4074  0.1065
 4147TIP3    H236637   4.742   5.380  17.430  1.8252 -0.2972  0.1843
 4148TIP3   OH236638   3.787   1.412  16.649 -0.2511  0.9005  0.5014
 4148TIP3    H136639   3.799   1.502  16.618  1.0867  0.1818 -1.2538
 4148TIP3    H236640   3.785   1.359  16.569  0.3062 -0.7621  1.5274
 4149TIP3   OH236641   2.171   4.892  15.534 -1.0913  0.4853 -0.0206
 4149TIP3    H136642   2.194   4.819  15.592  0.1699 -0.1080 -1.2128
 4149TIP3    H236643   2.128   4.955  15.591  1.0163  0.3784  1.7971
 4150TIP3   OH236644   1.338   6.122  16.006 -0.0424 -0.1782  0.2157
 4150TIP3    H136645   1.306   6.110  15.916  0.4245  1.0488 -0.1441
 4150TIP3    H236646   1.370   6.213  16.007  1.9326 -0.8456  1.0091
 4151TIP3   OH236647   0.711   7.491  16.603 -0.9889  0.2692  0.4948
 4151TIP3    H136648   0.798   7.461  16.578 -0.8202  0.6070  0.6688
 4151TIP3    H236649   0.694   7.449  16.688 -1.1972 -0.1754  0.2381
 4152TIP3   OH236650   1.429   4.984  17.443  0.1986 -0.2144 -0.8216
 4152TIP3    H136651   1.370   4.912  17.465  0.9233 -0.6747 -0.3468
 4152TIP3    H236652   1.400   5.013  17.356 -0.3991 -0.7666 -0.8125
 4153TIP3   OH236653   8.350   2.844  16.431 -0.2625 -0.2573  0.4587
 4153TIP3    H136654   8.297   2.784  16.379 -0.2783  0.1823 -0.0361
 4153TIP3    H236655   8.314   2.930  16.413 -0.0361 -0.0611  0.9237
 4154TIP3   OH236656   1.062   4.175  16.192  0.0093 -0.0105 -0.4254
 4154TIP3    H136657   1.098   4.108  16.249 -1.6510  0.0051  0.7160
 4154TIP3    H236658   0.999   4.222  16.247 -0.9171  0.6689 -1.9987
 4155TIP3   OH236659   1.424   3.446  16.225 -0.3106  0.3669  0.2316
 4155TIP3    H136660   1.368   3.455  16.149  0.7509  2.9328 -0.3693
 4155TIP3    H236661   1.431   3.535  16.260  1.5304 -0.2471  1.6014
 4156TIP3   OH236662   4.231   7.374  17.380  0.5667  0.0471  0.2537
 4156TIP3    H136663   4.275   7.313  17.439  0.7890 -1.8144 -1.7063
 4156TIP3    H236664   4.146   7.334  17.362  0.2240  0.9212 -0.1480
 4157TIP3   OH236665   7.391   6.825  17.496  0.6684  0.1465 -0.0310
 4157TIP3    H136666   7.317   6.883  17.516 -0.0773 -1.4690  2.3108
 4157TIP3    H236667   7.403   6.834  17.402 -4.0452 -1.1924 -1.0315
 4158TIP3   OH236668   6.682   3.835  17.360 -0.5760  0.1203  0.8640
 4158TIP3    H136669   6.739   3.907  17.332 -1.0244 -0.7067 -2.6316
 4158TIP3    H236670   6.593   3.869  17.349 -0.7974 -0.0957  1.8982
 4159TIP3   OH236671   1.952   4.003  16.768 -0.3131  0.1047 -0.2664
 4159TIP3    H136672   1.940   4.097  16.758  0.9044  0.4120  0.9014
 4159TIP3    H236673   1.896   3.964  16.701  0.1297  1.6815 -1.5916
 4160TIP3   OH236674   6.223   8.097  16.018  0.0020  0.2401  0.0750
 4160TIP3    H136675   6.306   8.108  15.971 -0.0324  0.6674  0.1119
 4160TIP3    H236676   6.200   8.005  16.004 -1.0191  0.7853 -2.4569
 4161TIP3   OH236677   3.730   2.700  17.540 -0.6900  0.6702  0.1133
 4161TIP3    H136678   3.749   2.752  17.462 -0.1836  0.5483  0.1515
 4161TIP3    H236679   3.774   2.747  17.611  0.1899 -0.0751  0.0681
 4162TIP3   OH236680   1.324   7.922  17.210 -0.1796  0.4630 -0.1282
 4162TIP3    H136681   1.375   7.954  17.284  0.1496  0.2660 -0.2633
 4162TIP3    H236682   1.257   7.989  17.195  0.0307  0.7171  0.0632
 4163TIP3   OH236683   8.369   5.493  17.594 -0.0598  0.0855 -0.0465
 4163TIP3    H136684   8.282   5.471  17.561  0.5729 -1.9909 -0.4569
 4163TIP3    H236685   8.379   5.439  17.672  0.7103  0.6416  0.2472
 4164TIP3   OH236686   4.229   4.837  17.893  0.2245 -0.0452  0.3493
 4164TIP3    H136687   4.230   4.844  17.989  0.5777  1.1642  0.2758
 4164TIP3    H236688   4.189   4.752  17.876 -0.8927  0.2010  1.5486
 4165TIP3   OH236689   0.015   1.367  16.274 -0.5604  0.3520  0.0664
 4165TIP3    H136690  -0.070   1.362  16.230 -0.2943  0.1701 -0.4333
 4165TIP3    H236691   0.006   1.440  16.336 -0.4802  1.5507 -1.2912
 4166TIP3   OH236692   4.006   1.133  17.629 -0.0219 -0.5996  0.0176
 4166TIP3    H136693   4.038   1.057  17.579  3.4748  0.4056  0.4600
 4166TIP3    H236694   3.979   1.096  17.713  1.1738 -1.4590  0.0551
 4167TIP3   OH236695   2.335   3.680  15.567 -0.1997  0.4067  0.1615
 4167TIP3    H136696   2.388   3.601  15.580 -2.0616 -0.8265  0.6843
 4167TIP3    H236697   2.245   3.650  15.578 -1.0242  2.4271 -0.6620
 4168TIP3   OH236698   6.971   7.474  17.995  0.0703 -0.2352 -0.2997
 4168TIP3    H136699   6.983   7.417  18.071 -3.1695 -1.0774 -0.2770
 4168TIP3    H236700   6.999   7.560  18.025  1.8796 -1.1149  0.7501
 4169TIP3   OH236701   8.332   4.175  17.397 -0.5817 -0.1517 -0.0792
 4169TIP3    H136702   8.298   4.157  17.485 -0.3804 -1.0595 -0.1830
 4169TIP3    H236703   8.386   4.099  17.376  0.2864  0.5728 -0.5316
 4170TIP3   OH236704   2.890   0.325  16.890 -0.0557  0.0008 -0.0737
 4170TIP3    H136705   2.864   0.237  16.863 -2.3596  1.1605 -2.0091
 4170TIP3    H236706   2.848   0.338  16.974  1.2549 -1.0887  0.7999
 4171TIP3   OH236707   3.206   1.213  17.152  0.0945  0.4099  0.8087
 4171TIP3    H136708   3.129   1.156  17.144  0.6053 -0.1826 -0.0540
 4171TIP3    H236709   3.229   1.209  17.244 -0.9727  0.6771  1.0957
 4172TIP3   OH236710   0.881   0.309  15.711 -0.2696 -0.1791 -0.2377
 4172TIP3    H136711   0.946   0.367  15.670  0.1359 -0.5912 -0.1906
 4172TIP3    H236712   0.797   0.353  15.696 -0.1128 -0.2273 -1.3501
 4173TIP3   OH236713   0.674   3.034  17.248  0.6531 -0.2852  0.0785
 4173TIP3    H136714   0.763   3.067  17.252  1.3081 -1.9581  0.1076
 4173TIP3    H236715   0.675   2.956  17.304 -1.0547  0.1587  0.7865
 4174TIP3   OH236716   8.198   6.539  15.957 -0.3704 -0.9194  0.6284
 4174TIP3    H136717   8.143   6.520  15.880 -1.2933 -0.4854  1.1624
 4174TIP3    H236718   8.206   6.635  15.957 -0.9247 -0.8647  1.4301
 4175TIP3   OH236719   3.409   1.212  16.965  0.0541  0.2966 -0.0593
 4175TIP3    H136720   3.449   1.139  16.917  0.2907  0.0089  0.5706
 4175TIP3    H236721   3.340   1.172  17.017 -0.2683  0.6248 -0.2326
 4176TIP3   OH236722   4.006   3.408  17.807 -0.0488  0.1561  0.1806
 4176TIP3    H136723   4.096   3.403  17.775  0.0874  1.1124  0.3698
 4176TIP3    H236724   3.985   3.502  17.805 -1.6224 -0.1797 -1.4563
 4177TIP3   OH236725   1.522   3.713  16.774  0.4708 -0.3791 -0.2210
 4177TIP3    H136726   1.614   3.737  16.789  0.0787  1.4426 -0.4588
 4177TIP3    H236727   1.488   3.693  16.861  0.3609  1.9086  0.3225
 4178TIP3   OH236728   2.595   2.912  18.078 -0.5066 -0.1651 -0.2953
 4178TIP3    H136729   2.584   2.854  18.154 -0.9319 -0.3131 -0.4664
 4178TIP3    H236730   2.646   2.860  18.016 -0.6350 -0.2464 -0.3322
 4179TIP3   OH236731   2.311   2.265  17.070 -0.0005 -0.4729  0.4647
 4179TIP3    H136732   2.348   2.252  17.157  2.1460 -1.5451 -0.5199
 4179TIP3    H236733   2.310   2.177  17.031  1.3583  0.2508 -1.3882
 4180TIP3   OH236734   6.675   5.002  17.384  0.1576  0.0697  0.3670
 4180TIP3    H136735   6.580   5.008  17.391  0.0209  0.6082 -1.3658
 4180TIP3    H236736   6.696   5.051  17.305  2.0832  1.5163  1.6848
 4181TIP3   OH236737   0.321   1.088  16.720 -0.4387 -0.0148 -0.1171
 4181TIP3    H136738   0.381   1.137  16.663 -2.6532  1.4111 -1.3774
 4181TIP3    H236739   0.287   1.019  16.664 -0.2895 -0.5630  0.4641
 4182TIP3   OH236740   3.137   7.131  17.913 -0.2506  0.0913  0.0094
 4182TIP3    H136741   3.114   7.044  17.881  2.0549 -0.9460  0.8894
 4182TIP3    H236742   3.161   7.116  18.005  0.1739  1.6463  0.1728
 4183TIP3   OH236743   7.789   6.278  17.764  0.0587 -0.0472 -0.1034
 4183TIP3    H136744   7.711   6.223  17.768 -0.4640 -0.0014 -4.5751
 4183TIP3    H236745   7.755   6.368  17.759  0.5332  0.1451  0.0443
 4184TIP3   OH236746   7.503   7.112  17.632 -0.0727  0.4208  0.1209
 4184TIP3    H136747   7.491   7.018  17.624 -1.7703  0.6438 -0.2846
 4184TIP3    H236748   7.575   7.122  17.694  1.5149 -1.1453 -1.3660
 4185TIP3   OH236749   5.621   1.017  17.086 -0.1632  0.0024 -0.1695
 4185TIP3    H136750   5.683   0.973  17.027 -0.3112 -1.9828  1.0534
 4185TIP3    H236751   5.603   0.952  17.154 -1.5174  1.5113  0.9882
 4186TIP3   OH236752   7.030   1.653  16.409  0.0801 -0.2411  0.3319
 4186TIP3    H136753   7.033   1.627  16.501 -1.2022  0.4013  0.5778
 4186TIP3    H236754   6.957   1.604  16.373  1.1146 -1.1666 -0.5971
 4187TIP3   OH236755   0.978   6.309  17.138 -0.1826 -0.3157  0.2513
 4187TIP3    H136756   0.985   6.404  17.133  1.0752 -0.4452 -0.8973
 4187TIP3    H236757   0.886   6.291  17.119  0.1406  0.5240 -2.5441
 4188TIP3   OH236758   6.813   1.193  16.587  0.3035 -0.0924  0.1911
 4188TIP3    H136759   6.757   1.257  16.544  0.6307  0.9386  1.2611
 4188TIP3    H236760   6.805   1.114  16.533  0.4569  1.0367 -1.5496
 4189TIP3   OH236761   4.348   1.262  17.264  0.5307 -0.2277  0.4506
 4189TIP3    H136762   4.391   1.317  17.330 -0.0294  0.6397  0.1119
 4189TIP3    H236763   4.257   1.291  17.263  0.4023 -0.6064 -0.3106
 4190TIP3   OH236764   3.894   1.720  16.553  0.1975 -0.2641 -0.4017
 4190TIP3    H136765   3.858   1.804  16.582 -0.0707 -0.6737  0.4795
 4190TIP3    H236766   3.880   1.719  16.459 -0.0062  0.5827 -0.3898
 4191TIP3   OH236767   7.798   5.121  16.405  1.0440  0.3576 -0.0200
 4191TIP3    H136768   7.711   5.108  16.367  0.8832  0.3445  0.3479
 4191TIP3    H236769   7.798   5.212  16.433  0.5557 -0.0461  1.4349
 4192TIP3   OH236770   3.091   5.771  14.892  0.3403  0.4673 -0.2852
 4192TIP3    H136771   3.028   5.772  14.965 -0.8698  3.1043 -1.2087
 4192TIP3    H236772   3.048   5.824  14.824  1.2676 -2.1129 -3.0926
 4193TIP3   OH236773   4.551   0.925  16.121 -0.4513 -0.2037  0.0245
 4193TIP3    H136774   4.644   0.938  16.101 -1.0371  0.7289 -2.3187
 4193TIP3    H236775   4.549   0.918  16.217  2.1315 -1.3159  0.0957
 4194TIP3   OH236776   1.948   3.270  16.365 -0.4070 -0.5902  0.0511
 4194TIP3    H136777   1.978   3.236  16.281  0.5571  1.1759 -0.3701
 4194TIP3    H236778   1.859   3.302  16.348  0.2797  1.0433 -0.7278
 4195TIP3   OH236779   3.417   5.126  17.017 -0.5074 -0.1621  0.7186
 4195TIP3    H136780   3.466   5.163  16.944  0.3912 -0.0962  1.3496
 4195TIP3    H236781   3.423   5.031  17.004 -0.1469 -0.1552  0.8421
 4196TIP3   OH236782   5.257   2.133  17.460  0.8051 -0.0693  0.1918
 4196TIP3    H136783   5.334   2.140  17.517  2.4356  0.5846 -1.9713
 4196TIP3    H236784   5.232   2.041  17.466  2.4323 -0.5592  0.1383
 4197TIP3   OH236785   3.254   5.790  15.141  0.1511  0.1652  0.4986
 4197TIP3    H136786   3.177   5.802  15.087 -1.4897  0.8150  2.8421
 4197TIP3    H236787   3.327   5.792  15.080 -1.4774  2.1537 -1.5164
 4198TIP3   OH236788   5.544   2.541  15.961  0.3329 -0.2628  0.3438
 4198TIP3    H136789   5.499   2.607  15.908 -0.6293 -0.3326  1.0392
 4198TIP3    H236790   5.559   2.584  16.045  0.0443 -0.7921  0.6732
 4199TIP3   OH236791   0.708   2.299  18.164  0.0450  0.2725 -0.4381
 4199TIP3    H136792   0.717   2.392  18.187 -0.8277  0.5495 -1.1845
 4199TIP3    H236793   0.616   2.288  18.143 -0.3537 -1.2563  1.7030
 4200TIP3   OH236794   6.671   8.173  17.130 -0.4109 -0.6203 -0.2367
 4200TIP3    H136795   6.590   8.134  17.097 -0.1741 -2.0675  0.7818
 4200TIP3    H236796   6.663   8.167  17.225  0.6875 -0.3437 -0.1175
 4201TIP3   OH236797   7.720   5.924  17.772 -0.1781  0.0180  0.4781
 4201TIP3    H136798   7.748   5.849  17.720  1.8494  0.8756  0.2189
 4201TIP3    H236799   7.662   5.973  17.714  1.9670  0.9046 -1.0474
 4202TIP3   OH236800   6.288   0.059  17.562 -0.1639  0.3646 -0.0498
 4202TIP3    H136801   6.354   0.027  17.501 -0.3535 -1.7555  0.7511
 4202TIP3    H236802   6.247   0.133  17.518  1.2660  0.3656 -1.4632
 4203TIP3   OH236803   1.077   7.735  17.873 -0.2087  0.2453  0.0500
 4203TIP3    H136804   0.998   7.687  17.850 -0.5434  1.4542 -1.5414
 4203TIP3    H236805   1.052   7.827  17.866  1.1181  0.6565  0.3084
 4204TIP3   OH236806   2.377   0.374  16.617 -0.2096  0.3713 -0.5130
 4204TIP3    H136807   2.346   0.357  16.528 -0.1387 -0.8527 -0.3212
 4204TIP3    H236808   2.298   0.383  16.669 -0.2505  0.1656 -0.5387
 4205TIP3   OH236809   2.470   3.435  17.430  0.1436 -0.0312 -0.4965
 4205TIP3    H136810   2.429   3.486  17.360 -0.4560 -0.1865 -0.2689
 4205TIP3    H236811   2.396   3.407  17.485  0.7037  1.4950  1.1488
 4206TIP3   OH236812   1.284   4.357  15.541  0.1927 -0.3313  0.5166
 4206TIP3    H136813   1.202   4.391  15.578  0.4143 -0.2801  0.9690
 4206TIP3    H236814   1.270   4.263  15.533  0.3457 -0.4248  1.2765
 4207TIP3   OH236815   2.225   6.138  17.919  0.1400  0.0248  0.3124
 4207TIP3    H136816   2.183   6.224  17.913  1.5766  0.6533 -1.6881
 4207TIP3    H236817   2.152   6.077  17.934 -1.0246  1.4625  0.7607
 4208TIP3   OH236818   7.899   4.127  17.758 -0.0691 -0.4619  0.6309
 4208TIP3    H136819   7.876   4.209  17.714  0.8518  0.6203  2.0682
 4208TIP3    H236820   7.826   4.109  17.816 -0.3092 -0.7278  0.2554
 4209TIP3   OH236821   6.651   3.287  17.274 -0.4890  0.3523 -0.6934
 4209TIP3    H136822   6.580   3.249  17.326 -1.4376 -1.1438 -2.9307
 4209TIP3    H236823   6.713   3.216  17.261  0.4571  1.1059 -0.4493
 4210TIP3   OH236824   2.258   5.523  16.971  0.1782 -0.5633 -0.1001
 4210TIP3    H136825   2.261   5.520  16.876 -0.2361 -1.5889 -0.0917
 4210TIP3    H236826   2.333   5.470  16.999 -0.3016 -1.1315  0.1342
 4211TIP3   OH236827   3.030   8.193  15.478  0.6842  0.3082  0.0870
 4211TIP3    H136828   3.108   8.176  15.426  0.8729 -0.8860  0.7098
 4211TIP3    H236829   2.957   8.173  15.420  0.8461  1.0227 -0.3669
 4212TIP3   OH236830   7.247   7.275  17.098 -0.3624  0.1077 -0.1592
 4212TIP3    H136831   7.290   7.335  17.159  0.3692 -0.9666  0.4212
 4212TIP3    H236832   7.279   7.302  17.012  0.2641  0.3170  0.1298
 4213TIP3   OH236833   3.933   0.299  16.728 -0.0228 -0.3172  0.0970
 4213TIP3    H136834   3.993   0.238  16.685  0.1841  0.2589 -0.4393
 4213TIP3    H236835   3.989   0.364  16.770 -0.2610  0.8714 -1.3530
 4214TIP3   OH236836   4.430   6.822  17.274 -0.3417  0.3788  0.2908
 4214TIP3    H136837   4.393   6.805  17.361  0.5310 -3.7499  0.0516
 4214TIP3    H236838   4.525   6.821  17.288 -0.2012  0.1986 -0.6309
 4215TIP3   OH236839   6.432   5.282  16.868 -0.0115  0.2220  0.1628
 4215TIP3    H136840   6.351   5.314  16.827 -1.4585 -1.8401  1.2879
 4215TIP3    H236841   6.446   5.342  16.942 -0.3776  0.7183 -0.1573
 4216TIP3   OH236842   4.330   0.968  17.069 -0.4929 -0.0221  0.9387
 4216TIP3    H136843   4.414   0.963  17.023 -1.1541 -0.2943 -0.2757
 4216TIP3    H236844   4.264   0.970  16.999 -1.6212 -1.8019  1.8689
 4217TIP3   OH236845   8.258   4.203  16.857  0.2962  0.1880 -0.5721
 4217TIP3    H136846   8.320   4.267  16.891 -1.2832  2.4323 -1.6659
 4217TIP3    H236847   8.295   4.176  16.773  0.0056  1.2285 -1.0441
 4218TIP3   OH236848   4.964   2.432  15.753  0.6897 -0.1055 -0.2154
 4218TIP3    H136849   4.933   2.471  15.671  0.7899  1.1218  0.3065
 4218TIP3    H236850   5.046   2.387  15.729  1.0844  0.8268 -0.6704
 4219TIP3   OH236851   4.982   3.461  17.183  0.2259 -0.1513  0.2434
 4219TIP3    H136852   5.068   3.447  17.222 -0.0403 -0.7421  0.6178
 4219TIP3    H236853   4.999   3.519  17.108  1.1980 -1.6947 -0.7675
 4220TIP3   OH236854   2.193   1.134  16.079  0.0311 -0.9443 -0.1334
 4220TIP3    H136855   2.143   1.209  16.047 -1.9621 -2.2513 -0.2472
 4220TIP3    H236856   2.245   1.106  16.003 -1.4738 -1.4589 -1.0002
 4221TIP3   OH236857   2.805   7.990  16.324  0.4704 -0.3950  0.2522
 4221TIP3    H136858   2.851   7.964  16.404  2.3897  0.2281 -0.5965
 4221TIP3    H236859   2.865   7.967  16.253  0.5931  2.6480 -0.7780
 4222TIP3   OH236860   4.958   7.419  17.537 -0.1734  0.3801  0.0042
 4222TIP3    H136861   4.914   7.444  17.619 -1.4999 -1.2077 -0.1764
 4222TIP3    H236862   4.896   7.443  17.468  0.1241 -0.0322 -0.4071
 4223TIP3   OH236863   1.300   5.452  15.754 -0.2997 -0.5480 -0.5225
 4223TIP3    H136864   1.270   5.491  15.672  0.5614  1.7396  0.1607
 4223TIP3    H236865   1.355   5.520  15.794 -1.0643 -1.3977  2.1790
 4224TIP3   OH236866   6.666   7.241  17.340  0.5366  0.1651 -0.4450
 4224TIP3    H136867   6.586   7.291  17.356 -1.4025 -1.7627 -3.1042
 4224TIP3    H236868   6.698   7.272  17.256  1.8674 -0.0086 -0.0296
 4225TIP3   OH236869   4.185   1.320  17.549 -0.0960  0.1455 -0.3487
 4225TIP3    H136870   4.117   1.266  17.589 -0.1604  0.4498 -0.0399
 4225TIP3    H236871   4.156   1.333  17.459  0.2073 -0.8092 -0.6035
 4226TIP3   OH236872   4.661   6.109  16.770 -0.2616  0.3200  0.3646
 4226TIP3    H136873   4.576   6.088  16.732 -0.3299  2.1301 -0.5736
 4226TIP3    H236874   4.694   6.182  16.717  2.5921 -1.2732 -0.3145
 4227TIP3   OH236875   7.156   4.014  16.936  0.2643  0.0759  0.0490
 4227TIP3    H136876   7.126   3.937  16.983  2.0247 -1.3376 -1.0124
 4227TIP3    H236877   7.087   4.033  16.872  0.6534 -1.8759 -1.0171
 4228TIP3   OH236878   5.716   3.035  17.314  0.1141  0.5967 -0.0655
 4228TIP3    H136879   5.797   3.070  17.351  0.3581  1.6856 -1.5463
 4228TIP3    H236880   5.731   3.035  17.220 -0.8935 -1.0552 -0.2662
 4229TIP3   OH236881   7.484   4.188  16.001  0.0325 -0.2878  0.3154
 4229TIP3    H136882   7.557   4.127  16.012  0.0672 -0.5379 -1.0257
 4229TIP3    H236883   7.521   4.274  16.021  0.9999 -0.2886 -1.2445
 4230TIP3   OH236884   6.398   6.119  16.165  0.0397 -0.0609  0.1654
 4230TIP3    H136885   6.319   6.078  16.201 -0.5726 -0.2146 -1.2846
 4230TIP3    H236886   6.433   6.055  16.103  0.5230  0.5678 -0.2283
 4231TIP3   OH236887   6.821   6.640  16.223 -0.0726 -0.0092 -1.1674
 4231TIP3    H136888   6.857   6.554  16.201  2.0871  0.5233 -0.0152
 4231TIP3    H236889   6.788   6.674  16.140 -2.2725 -2.4483 -1.4227
 4232TIP3   OH236890   0.035   7.653  17.246 -0.3157  0.3144  0.0059
 4232TIP3    H136891   0.082   7.723  17.202 -0.6742  0.0464 -0.8172
 4232TIP3    H236892   0.031   7.582  17.182 -0.7728 -0.1103  0.4929
 4233TIP3   OH236893   1.238   6.912  17.016 -0.3006 -0.3873  0.0169
 4233TIP3    H136894   1.144   6.922  17.026 -0.2863  0.7569 -0.7500
 4233TIP3    H236895   1.276   6.981  17.071  0.0093  0.2965 -1.0088
 4234TIP3   OH236896   8.271   2.984  16.777 -0.3759 -0.0763  0.4350
 4234TIP3    H136897   8.188   2.963  16.734 -0.1070 -0.6832  0.1976
 4234TIP3    H236898   8.248   3.001  16.868 -0.6941 -0.7569  0.4844
 4235TIP3   OH236899   3.397   6.691  17.459  0.4810 -0.3093 -0.2950
 4235TIP3    H136900   3.441   6.760  17.409 -0.7944  1.8267  1.3517
 4235TIP3    H236901   3.355   6.737  17.531 -4.1428 -2.1388 -1.4320
 4236TIP3   OH236902   3.898   0.762  16.644  0.0703 -0.5735 -0.3348
 4236TIP3    H136903   3.859   0.755  16.557  0.0562  1.7330 -0.5907
 4236TIP3    H236904   3.894   0.856  16.664  0.6629 -0.9635  1.8862
 4237TIP3   OH236905   0.505   7.029  16.215 -0.1928 -0.0965 -0.1416
 4237TIP3    H136906   0.517   7.121  16.193  1.4975  0.1478  1.5537
 4237TIP3    H236907   0.521   7.025  16.309  0.8974 -2.2997 -0.3592
 4238TIP3   OH236908   4.364   4.173  17.395 -0.1816 -0.0047 -0.2667
 4238TIP3    H136909   4.417   4.205  17.322 -1.4756  0.1357 -1.1923
 4238TIP3    H236910   4.402   4.214  17.473  1.4389 -0.4322 -0.8025
 4239TIP3   OH236911   6.033   6.093  17.335  0.0993 -0.1908 -0.0605
 4239TIP3    H136912   6.011   6.184  17.313  1.8908  0.4595  0.5810
 4239TIP3    H236913   6.025   6.046  17.252  2.1786  1.2348 -1.1696
 4240TIP3   OH236914   0.979   3.752  15.360 -0.1489 -0.1439 -0.3281
 4240TIP3    H136915   0.938   3.835  15.386 -0.1646 -0.2053 -0.1578
 4240TIP3    H236916   0.933   3.685  15.411  0.9208 -0.1122  0.7361
 4241TIP3   OH236917   3.751   2.867  16.191 -0.8085 -0.2850  0.1323
 4241TIP3    H136918   3.807   2.854  16.115  1.7599 -2.1665  2.1767
 4241TIP3    H236919   3.740   2.962  16.197  2.6693  0.2567 -0.1015
 4242TIP3   OH236920   0.618   6.811  16.443 -0.1237 -0.3007  0.2570
 4242TIP3    H136921   0.565   6.882  16.479 -0.4502 -0.4108  0.0001
 4242TIP3    H236922   0.557   6.738  16.432  0.3867 -0.9163  1.3470
 4243TIP3   OH236923   1.812   5.992  17.089  0.8036 -0.3068 -0.1264
 4243TIP3    H136924   1.866   6.065  17.060 -1.5605  1.7927  0.3979
 4243TIP3    H236925   1.812   5.931  17.015  1.6374  0.9404 -1.1972
 4244TIP3   OH236926   6.116   3.971  17.437  0.9530  0.3939  0.2254
 4244TIP3    H136927   6.053   3.901  17.417  0.2505  0.5109  1.8499
 4244TIP3    H236928   6.105   4.035  17.366 -1.6097  0.9467  1.0199
 4245TIP3   OH236929   3.701   4.041  16.826 -0.1069  0.8180 -0.5831
 4245TIP3    H136930   3.719   4.115  16.884 -0.3022  0.8644 -0.5816
 4245TIP3    H236931   3.728   3.964  16.876  2.2010  1.0052 -1.3846
 4246TIP3   OH236932   7.054   6.486  16.782  0.2835 -0.0183 -0.2315
 4246TIP3    H136933   7.030   6.395  16.766 -1.0176  0.1420  0.6235
 4246TIP3    H236934   7.131   6.501  16.727 -0.4652 -1.1487 -1.6493
 4247TIP3   OH236935   5.904   2.075  16.897 -0.3604 -0.3620 -0.5797
 4247TIP3    H136936   5.878   2.024  16.974  1.0466 -0.2928 -0.0326
 4247TIP3    H236937   5.857   2.033  16.824 -1.5133 -0.5863  0.2572
 4248TIP3   OH236938   8.311   2.413  17.630 -0.2935 -0.3399 -0.0195
 4248TIP3    H136939   8.250   2.484  17.612 -1.0916 -1.1228 -0.4532
 4248TIP3    H236940   8.270   2.362  17.700 -0.0692 -0.7732 -0.1951
 4249TIP3   OH236941   4.616   1.285  17.392 -0.2370 -0.1386 -0.4056
 4249TIP3    H136942   4.673   1.235  17.334  1.9416  0.0338  1.4275
 4249TIP3    H236943   4.634   1.376  17.371  0.3876 -0.0797  0.3476
 4250TIP3   OH236944   1.256   5.947  15.538 -0.7422  0.4248 -0.5536
 4250TIP3    H136945   1.333   5.994  15.505 -0.2501  0.9834  1.2529
 4250TIP3    H236946   1.189   5.961  15.472 -0.2304  2.6581 -0.6660
 4251TIP3   OH236947   1.443   5.153  15.770 -0.0327  0.1676 -0.0829
 4251TIP3    H136948   1.404   5.235  15.800  1.5995  0.9076  0.1448
 4251TIP3    H236949   1.379   5.086  15.792 -0.6051  1.1646  1.4050
 4252TIP3   OH236950   6.316   6.016  17.127 -0.1560 -0.0937 -0.3922
 4252TIP3    H136951   6.327   6.082  17.195 -0.3779 -0.5105  0.0519
 4252TIP3    H236952   6.322   6.065  17.045 -0.8609  0.5664 -0.0625
 4253TIP3   OH236953   7.713   6.151  16.618 -0.2997  0.4479 -0.0764
 4253TIP3    H136954   7.757   6.184  16.539 -0.5324  0.1546 -0.3326
 4253TIP3    H236955   7.660   6.225  16.648 -0.0443  0.6296 -0.0708
 4254TIP3   OH236956   1.606   2.233  16.388 -0.5733  0.2322 -0.4058
 4254TIP3    H136957   1.535   2.271  16.441 -0.3330  0.5070 -0.2743
 4254TIP3    H236958   1.628   2.302  16.325 -0.6136  0.0403 -0.6302
 4255TIP3   OH236959   2.139   3.785  16.989  0.3699  0.3548 -0.2150
 4255TIP3    H136960   2.093   3.843  17.049 -1.6790 -0.4718 -0.8907
 4255TIP3    H236961   2.190   3.843  16.933  1.6797  1.1845  1.7346
 4256TIP3   OH236962   4.430   3.899  17.973  0.3840 -0.2370  0.4753
 4256TIP3    H136963   4.412   3.989  17.944 -1.9932 -1.3528 -1.9140
 4256TIP3    H236964   4.510   3.874  17.925  0.2847  0.1620  0.0923
 4257TIP3   OH236965   1.233   4.134  17.544  0.0267  0.4109 -0.4231
 4257TIP3    H136966   1.318   4.138  17.500  1.2855 -1.5969  1.5820
 4257TIP3    H236967   1.238   4.202  17.612 -0.3958  0.9762 -0.9514
 4258TIP3   OH236968   4.179   6.140  16.992  0.6941 -0.2229 -0.4745
 4258TIP3    H136969   4.150   6.049  16.985  0.0204  0.0083 -0.7714
 4258TIP3    H236970   4.267   6.140  16.953  1.1913 -0.9658  0.6215
 4259TIP3   OH236971   3.079   4.574  17.601  0.0965 -0.1840  0.8028
 4259TIP3    H136972   3.143   4.509  17.629  0.3493 -0.6257 -0.7058
 4259TIP3    H236973   3.109   4.657  17.639  1.4627 -0.4191  0.2618
 4260TIP3   OH236974   0.792   2.123  17.231 -0.1414 -0.5698 -0.2109
 4260TIP3    H136975   0.881   2.149  17.210 -0.1317  0.8514  1.3732
 4260TIP3    H236976   0.798   2.083  17.317 -0.8150 -2.0714 -0.8247
 4261TIP3   OH236977   3.128   2.650  17.439  0.4585 -0.8505  0.4017
 4261TIP3    H136978   3.038   2.616  17.442 -0.7331  1.9030 -0.5963
 4261TIP3    H236979   3.137   2.700  17.520  1.5401 -1.9357  0.9936
 4262TIP3   OH236980   0.749   1.189  15.404 -0.2793 -0.3928 -0.3414
 4262TIP3    H136981   0.844   1.177  15.404  0.1364  2.3210 -0.5153
 4262TIP3    H236982   0.714   1.100  15.411  2.2526 -1.4575 -0.0154
 4263TIP3   OH236983   1.312   2.216  16.146 -0.7212 -0.0458  0.3396
 4263TIP3    H136984   1.347   2.156  16.080 -1.8864 -0.7986  0.3793
 4263TIP3    H236985   1.288   2.160  16.219 -0.6452  0.6368  0.9035
 4264TIP3   OH236986   5.403   5.138  16.038  0.0118 -0.0493  0.1023
 4264TIP3    H136987   5.336   5.077  16.005  0.4967 -0.4655 -0.1234
 4264TIP3    H236988   5.354   5.218  16.057 -0.3279  0.1477 -1.4372
 4265TIP3   OH236989   6.169   7.900  17.079 -0.3233  0.0212 -1.0234
 4265TIP3    H136990   6.149   7.871  16.990 -0.7013 -2.5135 -0.1963
 4265TIP3    H236991   6.215   7.827  17.119 -0.1493  1.0942  0.8922
 4266TIP3   OH236992   6.560   8.047  15.897 -0.0713 -0.7351  0.1055
 4266TIP3    H136993   6.612   8.050  15.977 -0.5924  0.3220  0.4220
 4266TIP3    H236994   6.506   7.968  15.905  1.4968 -1.8921 -0.2607
 4267TIP3   OH236995   8.142   6.288  16.407 -0.3055  0.0410  1.2987
 4267TIP3    H136996   8.212   6.264  16.346 -0.5194  0.8896  0.6962
 4267TIP3    H236997   8.139   6.216  16.470  0.4786 -0.4559  0.7853
 4268TIP3   OH236998   7.957   0.849  17.187 -0.2217 -0.2575  0.1900
 4268TIP3    H136999   7.963   0.754  17.179  2.5835 -0.1328 -0.4255
 4268TIP3    H237000   7.866   0.866  17.212 -1.3115 -2.9496 -1.4855
 4269TIP3   OH237001   0.016   6.249  17.064 -0.6996  0.0558  0.6063
 4269TIP3    H137002   0.006   6.168  17.115  0.0660 -0.6388 -0.2893
 4269TIP3    H237003   0.049   6.219  16.979  2.0669  1.4864  1.0449
 4270TIP3   OH237004   7.084   2.589  15.605  0.1470  0.1009 -0.0443
 4270TIP3    H137005   7.126   2.502  15.607 -1.7075 -0.8450 -0.5051
 4270TIP3    H237006   7.157   2.650  15.594  1.4151 -1.4826 -0.8784
 4271TIP3   OH237007   2.442   4.931  16.680 -0.2502  0.0278  0.1808
 4271TIP3    H137008   2.376   5.001  16.680  0.9910  1.3774 -2.8401
 4271TIP3    H237009   2.393   4.852  16.657 -1.0653  0.7008 -0.4532
 4272TIP3   OH237010   5.974   6.979  16.707 -0.3909  0.1458  1.0233
 4272TIP3    H137011   5.933   6.925  16.639 -1.3938 -1.3332  2.7345
 4272TIP3    H237012   6.038   6.922  16.748  1.8449  1.7160 -0.0517
 4273TIP3   OH237013   3.298   0.997  16.182  0.1317  0.6479  0.5027
 4273TIP3    H137014   3.228   1.011  16.118  0.2200  1.0287  0.4856
 4273TIP3    H237015   3.378   0.991  16.130  0.0388 -0.4557  0.4704
 4274TIP3   OH237016   7.387   4.360  16.576  0.5514  0.6480 -0.1900
 4274TIP3    H137017   7.379   4.329  16.486  0.4526 -0.3544  0.1516
 4274TIP3    H237018   7.359   4.452  16.573  3.3510  1.5760 -1.7173
 4275TIP3   OH237019   4.241   4.559  17.800 -0.0615  0.0575  0.0253
 4275TIP3    H137020   4.307   4.603  17.747 -0.3305  0.6487  0.1674
 4275TIP3    H237021   4.186   4.513  17.736  1.2470 -1.5446 -0.0093
 4276TIP3   OH237022   1.249   3.336  15.999  0.2907  0.0456  0.0374
 4276TIP3    H137023   1.253   3.423  15.958 -0.4038 -0.6582 -1.6252
 4276TIP3    H237024   1.318   3.286  15.956  2.1534  0.3116  2.5177
 4277TIP3   OH237025   2.901   7.317  17.206 -0.6094 -0.0942 -0.1057
 4277TIP3    H137026   2.814   7.347  17.231 -0.6493  1.4377 -1.8866
 4277TIP3    H237027   2.886   7.235  17.160 -0.9647 -0.4951  0.7008
 4278TIP3   OH237028   7.706   4.249  16.890  0.2265  0.3016 -0.2898
 4278TIP3    H137029   7.655   4.188  16.837 -1.6326  1.6827 -0.1925
 4278TIP3    H237030   7.796   4.238  16.860  0.2500 -3.4645  0.6978
 4279TIP3   OH237031   8.199   7.621  15.822  0.0828  0.5232 -0.3316
 4279TIP3    H137032   8.151   7.679  15.762  1.5604  0.8596 -1.2433
 4279TIP3    H237033   8.284   7.665  15.834  0.9300 -1.0464 -0.3958
 4280TIP3   OH237034   4.599   6.932  17.533  0.5353  0.2013  0.3337
 4280TIP3    H137035   4.689   6.961  17.549  0.2495  0.8165  0.8276
 4280TIP3    H237036   4.559   7.003  17.483  0.2572  0.0219  0.2987
 4281TIP3   OH237037   3.010   3.128  16.961 -0.0957 -0.1059  0.3964
 4281TIP3    H137038   3.026   3.216  16.927 -0.8543  0.1939  0.7898
 4281TIP3    H237039   3.015   3.138  17.056  0.6661 -0.6667  0.4232
 4282TIP3   OH237040   7.803   1.990  17.304  0.0744 -0.2834 -0.2732
 4282TIP3    H137041   7.875   1.946  17.260 -0.5907  0.3853 -2.1504
 4282TIP3    H237042   7.820   2.083  17.290 -0.8338 -0.0985 -0.2397
 4283TIP3   OH237043   7.577   7.573  16.680 -0.2330  0.4358 -0.5781
 4283TIP3    H137044   7.546   7.490  16.645 -0.1746  0.4138 -0.5783
 4283TIP3    H237045   7.523   7.639  16.636 -0.1510  0.4086 -0.7195
 4284TIP3   OH237046   7.839   7.903  16.295  0.0220 -0.2943  0.6477
 4284TIP3    H137047   7.791   7.822  16.315 -0.5272  0.6897  3.8167
 4284TIP3    H237048   7.818   7.962  16.367  1.3692  2.3021 -0.9345
 4285TIP3   OH237049   2.673   3.135  17.176 -0.2739 -0.3756 -0.3465
 4285TIP3    H137050   2.703   3.118  17.266 -0.4419  0.2264 -0.1764
 4285TIP3    H237051   2.581   3.157  17.186 -0.6673 -1.7010 -0.8183
 4286TIP3   OH237052   6.978   0.339  15.573 -0.3310  0.0513 -0.5132
 4286TIP3    H137053   7.043   0.271  15.553 -0.3938  0.2910 -1.5945
 4286TIP3    H237054   6.901   0.290  15.603 -1.3288 -0.6266 -3.7473
 4287TIP3   OH237055   5.835   6.485  17.864  0.2835 -0.1704 -0.6747
 4287TIP3    H137056   5.903   6.434  17.908  0.5644 -0.3148 -1.2703
 4287TIP3    H237057   5.870   6.503  17.777 -1.1850 -1.8295 -1.6869
 4288TIP3   OH237058   4.810   7.955  16.178 -0.0387  0.0076 -0.2806
 4288TIP3    H137059   4.763   8.034  16.207  1.2050  0.3441  0.9470
 4288TIP3    H237060   4.746   7.907  16.126 -1.5666  0.7090  0.8617
 4289TIP3   OH237061   5.798   0.759  16.337 -0.5048  0.1681 -0.1196
 4289TIP3    H137062   5.864   0.736  16.271  1.0218  0.5014  1.2045
 4289TIP3    H237063   5.796   0.683  16.395  1.0128  1.3072  1.5495
 4290TIP3   OH237064   2.071   6.760  17.801 -0.2029  0.0828  0.2726
 4290TIP3    H137065   2.049   6.852  17.814 -3.1958 -1.0079  5.0685
 4290TIP3    H237066   2.001   6.727  17.745 -1.9393 -0.1072  2.4408
 4291TIP3   OH237067   4.063   2.621  16.900  0.1958  0.3112 -0.4353
 4291TIP3    H137068   4.126   2.552  16.878 -1.2899 -0.7644 -1.5372
 4291TIP3    H237069   4.062   2.678  16.823 -0.4871  0.0811 -0.5984
 4292TIP3   OH237070   3.412   5.129  16.324 -0.0733  0.0791 -0.3708
 4292TIP3    H137071   3.401   5.097  16.235  0.9643  0.5308 -0.6852
 4292TIP3    H237072   3.349   5.080  16.376 -2.5696  1.6121 -1.7448
 4293TIP3   OH237073   6.126   0.207  16.497  0.0088  0.3634 -0.2413
 4293TIP3    H137074   6.175   0.140  16.546 -0.8869  0.6817  1.1433
 4293TIP3    H237075   6.111   0.167  16.411  1.2103 -0.4084 -0.1275
 4294TIP3   OH237076   3.330   1.318  17.455  0.3559  0.6303 -0.0032
 4294TIP3    H137077   3.239   1.348  17.450  0.1532  0.1863  0.8228
 4294TIP3    H237078   3.328   1.247  17.520  1.1800  0.1999 -0.4343
 4295TIP3   OH237079   7.976   8.366  16.195  0.2412  0.2271 -0.1773
 4295TIP3    H137080   7.955   8.458  16.209  0.5058 -0.0583  2.6859
 4295TIP3    H237081   7.891   8.322  16.188  0.0899  0.4962 -0.0140
 4296TIP3   OH237082   4.251   2.440  17.846 -0.4550 -0.3049 -0.3024
 4296TIP3    H137083   4.210   2.526  17.859  0.1684 -0.0151 -0.2040
 4296TIP3    H237084   4.212   2.407  17.765 -1.4539 -0.3838  0.1961
 4297TIP3   OH237085   6.826   0.471  16.149  0.3916  0.2858 -0.0063
 4297TIP3    H137086   6.800   0.392  16.102 -1.1620  0.5594  0.3575
 4297TIP3    H237087   6.780   0.542  16.105  1.6046  0.9899 -0.1955
 4298TIP3   OH237088   4.470   5.627  15.881 -0.5255  0.4182  0.0693
 4298TIP3    H137089   4.549   5.630  15.828  1.3429  0.5023  2.6356
 4298TIP3    H237090   4.450   5.533  15.890  0.3179  0.2979  0.7812
 4299TIP3   OH237091   0.389   1.760  15.715  0.1177  0.4626 -0.1078
 4299TIP3    H137092   0.395   1.856  15.721  0.2567  0.3758  1.9386
 4299TIP3    H237093   0.467   1.729  15.762  0.2570 -0.6721 -1.0495
 4300TIP3   OH237094   4.037   6.672  17.568 -0.1313  0.1471  0.1244
 4300TIP3    H137095   4.032   6.641  17.477  1.5504 -2.4552  0.8122
 4300TIP3    H237096   4.074   6.598  17.616 -2.0841  0.9882  3.2020
 4301TIP3   OH237097   1.808   6.452  16.098  0.4314 -0.0303 -0.5291
 4301TIP3    H137098   1.767   6.365  16.099  1.5573 -0.5907 -0.8310
 4301TIP3    H237099   1.817   6.472  16.005  0.8559  0.0785 -0.4627
 4302TIP3   OH237100   0.996   6.574  16.782 -0.3578 -0.0163 -0.2593
 4302TIP3    H137101   1.069   6.599  16.727  0.7262  1.1678  1.6179
 4302TIP3    H237102   0.918   6.591  16.729  0.6596  0.1133 -1.7405
 4303TIP3   OH237103   0.699   1.470  15.732 -0.3097  0.2131  0.5049
 4303TIP3    H137104   0.735   1.388  15.700  0.4686  0.3253  1.0807
 4303TIP3    H237105   0.724   1.534  15.665 -1.7141 -0.1598 -0.4168
 4304TIP3   OH237106   3.087   6.363  17.799  0.5213  0.2518 -0.4790
 4304TIP3    H137107   3.177   6.393  17.808  0.6641 -0.1604 -0.4951
 4304TIP3    H237108   3.033   6.440  17.816  0.8732  0.4376 -0.2061
 4305TIP3   OH237109   3.842   8.190  16.825 -1.0889 -0.1908  0.1902
 4305TIP3    H137110   3.849   8.284  16.804  0.4687 -0.3886 -0.2455
 4305TIP3    H237111   3.926   8.168  16.864 -0.9967 -1.6788 -0.7985
 4306TIP3   OH237112   2.406   0.941  16.503  0.5750  0.4828 -0.7185
 4306TIP3    H137113   2.457   0.894  16.437 -0.7189 -0.7567 -0.8911
 4306TIP3    H237114   2.444   0.915  16.586  1.0107  0.5554 -0.8932
 4307TIP3   OH237115   5.528   8.199  17.008  0.6320  0.3752 -0.1736
 4307TIP3    H137116   5.486   8.258  17.071  1.1928  0.5504  0.0375
 4307TIP3    H237117   5.477   8.211  16.928 -0.8394 -0.7124  0.5377
 4308TIP3   OH237118   3.679   1.053  17.155 -0.0230 -0.2977  0.3421
 4308TIP3    H137119   3.616   1.083  17.089 -0.0688  0.0112  0.5243
 4308TIP3    H237120   3.722   0.978  17.114 -0.7973 -0.7718  0.3758
 4309TIP3   OH237121   7.283   4.459  16.201 -0.7555 -0.3166 -0.8123
 4309TIP3    H137122   7.306   4.466  16.108  0.0068  2.0895 -0.5057
 4309TIP3    H237123   7.359   4.417  16.242  1.1035  2.9691 -0.6050
 4310TIP3   OH237124   6.747   2.344  16.954  0.4719 -0.1489 -0.1048
 4310TIP3    H137125   6.764   2.435  16.979  1.2228 -0.1843 -0.4555
 4310TIP3    H237126   6.817   2.323  16.892 -0.7957 -0.3544 -1.5094
 4311TIP3   OH237127   6.888   2.589  16.908  0.1093 -0.1196  0.0394
 4311TIP3    H137128   6.927   2.669  16.945 -1.2476  0.8026 -0.4448
 4311TIP3    H237129   6.944   2.567  16.834 -0.1182  1.0697 -0.5208
 4312TIP3   OH237130   1.664   7.489  16.818 -0.5042 -0.1221  0.4828
 4312TIP3    H137131   1.573   7.514  16.833 -0.2307  0.7585  0.7310
 4312TIP3    H237132   1.703   7.483  16.905  0.1539  1.4078  0.3272
 4313TIP3   OH237133   3.042   7.438  17.462  0.1623  0.4467  0.0758
 4313TIP3    H137134   3.016   7.460  17.552  0.5570 -2.3803  0.9883
 4313TIP3    H237135   2.960   7.427  17.415 -0.1463 -0.4921  0.7943
 4314TIP3   OH237136   6.249   5.775  16.338 -0.2484  0.4233  0.7085
 4314TIP3    H137137   6.254   5.861  16.379 -0.1645  0.7847 -0.0403
 4314TIP3    H237138   6.336   5.737  16.352 -0.1362  0.6500  0.6252
 4315TIP3   OH237139   7.158   6.146  17.530  0.3562  0.1826  0.1480
 4315TIP3    H137140   7.102   6.128  17.454  0.1836  2.2566 -0.2826
 4315TIP3    H237141   7.213   6.219  17.502  1.8232 -0.4400  1.3015
 4316TIP3   OH237142   4.018   0.078  16.278  0.1155  0.0290 -0.3994
 4316TIP3    H137143   4.104   0.085  16.237 -0.6041  0.4036 -1.9134
 4316TIP3    H237144   4.011   0.155  16.334  0.5122  0.3393 -0.7761
 4317TIP3   OH237145   0.759   2.697  17.128 -0.0379 -0.3390  0.0477
 4317TIP3    H137146   0.845   2.737  17.120  1.1601 -2.6750  0.5938
 4317TIP3    H237147   0.727   2.726  17.213  0.6802 -0.3493  0.3239
 4318TIP3   OH237148   1.201   3.873  17.132 -0.3449  0.4961 -0.2441
 4318TIP3    H137149   1.192   3.968  17.120  0.2417  0.3404 -2.3907
 4318TIP3    H237150   1.124   3.836  17.089  0.3424 -0.0348 -1.0686
 4319TIP3   OH237151   6.920   3.179  16.697 -0.3215 -0.7774 -0.7396
 4319TIP3    H137152   6.829   3.201  16.720 -0.0906  0.1991 -0.7106
 4319TIP3    H237153   6.917   3.161  16.603 -0.7823 -2.0986 -0.4879
 4320TIP3   OH237154   1.742   6.905  17.542 -0.1885  0.1350  0.3480
 4320TIP3    H137155   1.687   6.940  17.612  0.6035 -2.0488  2.1657
 4320TIP3    H237156   1.743   6.975  17.476 -0.8560  2.3685  2.5346
 4321TIP3   OH237157   8.126   3.359  17.934 -0.0723  0.0622  0.2411
 4321TIP3    H137158   8.092   3.436  17.978  2.5128  1.7400 -0.4453
 4321TIP3    H237159   8.068   3.347  17.858 -0.6679  1.1774  0.4995
 4322TIP3   OH237160   2.723   5.725  17.463 -0.5146 -0.2548  0.1438
 4322TIP3    H137161   2.671   5.706  17.541  1.8295 -0.1709  1.8266
 4322TIP3    H237162   2.764   5.642  17.441  0.1747  0.1094  0.0372
 4323TIP3   OH237163   3.131   4.415  16.105  0.0974 -0.3147 -0.1430
 4323TIP3    H137164   3.049   4.371  16.080  0.3990 -0.4301 -0.9590
 4323TIP3    H237165   3.188   4.403  16.029  1.4756 -1.7196  1.0386
 4324TIP3   OH237166   6.758   2.325  17.654  0.0823 -0.5988  0.0544
 4324TIP3    H137167   6.745   2.412  17.616  1.2892  0.1709  1.3184
 4324TIP3    H237168   6.671   2.299  17.685 -0.0625  0.7909  0.9225
 4325TIP3   OH237169   4.690   3.885  17.822 -0.2213  0.0377 -0.5381
 4325TIP3    H137170   4.739   3.853  17.897  2.2109 -1.0787 -2.4285
 4325TIP3    H237171   4.709   3.979  17.818  3.0781 -0.5236 -1.8999
 4326TIP3   OH237172   5.946   8.173  17.253 -0.5231  0.2014 -0.1771
 4326TIP3    H137173   5.935   8.256  17.299 -2.4186  0.4927 -1.0836
 4326TIP3    H237174   6.018   8.130  17.300  0.6079  2.3718  0.2399
 4327TIP3   OH237175   6.593   5.396  16.232  0.1053  0.3075 -0.2452
 4327TIP3    H137176   6.526   5.333  16.256 -1.0692  1.3861 -0.5787
 4327TIP3    H237177   6.656   5.392  16.303 -0.2213 -0.8418 -0.0006
 4328TIP3   OH237178   2.722   6.486  16.183 -0.2558 -0.7032  0.3697
 4328TIP3    H137179   2.690   6.430  16.112 -0.0106 -1.4131  0.8162
 4328TIP3    H237180   2.698   6.575  16.155  0.4731 -0.8855 -0.9435
 4329TIP3   OH237181   7.399   3.233  16.929  0.5362 -0.0069  0.3240
 4329TIP3    H137182   7.314   3.204  16.895  1.0775 -1.5020  0.1982
 4329TIP3    H237183   7.412   3.319  16.889  0.7405 -1.3075 -2.6730
 4330TIP3   OH237184   5.002   3.969  17.328 -0.3622 -0.5014 -0.2047
 4330TIP3    H137185   5.035   4.038  17.271  0.6039 -1.3426 -0.6937
 4330TIP3    H237186   5.080   3.926  17.361 -0.8294  0.5936  2.6041
 4331TIP3   OH237187   8.139   1.214  16.454 -0.8973  0.6057 -0.4839
 4331TIP3    H137188   8.079   1.139  16.455  0.3990 -0.4608  0.1775
 4331TIP3    H237189   8.181   1.211  16.368  0.5712 -0.6413  0.2282
 4332TIP3   OH237190   1.212   0.228  17.033  0.4372  0.2875  0.1030
 4332TIP3    H137191   1.216   0.312  17.079 -0.0805  0.9430 -1.0163
 4332TIP3    H237192   1.303   0.208  17.011  0.6566  0.1297  1.0712
 4333TIP3   OH237193   6.608   8.128  17.395  0.0652 -0.1706  0.0714
 4333TIP3    H137194   6.628   8.042  17.433  2.6114 -0.4316 -1.5749
 4333TIP3    H237195   6.672   8.187  17.436  0.5578  0.2239 -1.2299
 4334TIP3   OH237196   5.822   7.771  17.415  0.8768  0.3844  0.2736
 4334TIP3    H137197   5.854   7.681  17.404 -1.4361 -0.3332 -1.6836
 4334TIP3    H237198   5.862   7.819  17.343 -0.6715 -0.0305 -0.9281
 4335TIP3   OH237199   0.479   4.180  17.013 -0.1068  0.1661 -0.2340
 4335TIP3    H137200   0.559   4.180  17.064 -0.9558 -1.1119  1.1642
 4335TIP3    H237201   0.484   4.100  16.960 -0.3943  0.1438 -0.2315
 4336TIP3   OH237202   2.638   6.720  17.369  0.0351 -0.0489  0.2373
 4336TIP3    H137203   2.676   6.665  17.438  0.8089 -0.0417 -0.1757
 4336TIP3    H237204   2.705   6.723  17.301  0.8331  2.9481  1.0235
 4337TIP3   OH237205   5.844   6.640  16.281 -0.3970  0.2228 -0.4677
 4337TIP3    H137206   5.765   6.694  16.276  0.5218  1.7000  0.2674
 4337TIP3    H237207   5.818   6.556  16.244 -2.3387  0.6377 -0.1470
 4338TIP3   OH237208   1.484   3.316  16.545  0.8579 -0.2681  0.1254
 4338TIP3    H137209   1.444   3.244  16.593  1.2866  0.2245  1.2608
 4338TIP3    H237210   1.416   3.384  16.541 -0.1130 -1.2503 -2.3239
 4339TIP3   OH237211   4.158   3.036  17.431  0.2890  0.5001  0.3818
 4339TIP3    H137212   4.113   3.025  17.347 -0.2205  1.4447  0.5173
 4339TIP3    H237213   4.129   2.961  17.484  0.7784 -0.2185 -0.3445
 4340TIP3   OH237214   1.528   7.639  15.522 -0.5494 -0.3791  0.4427
 4340TIP3    H137215   1.478   7.676  15.449  0.4800 -1.1201 -0.6733
 4340TIP3    H237216   1.599   7.701  15.536  0.8102 -1.5265 -1.0107
 4341TIP3   OH237217   0.186   2.524  16.708 -0.1298  0.5234  0.2533
 4341TIP3    H137218   0.181   2.559  16.619 -0.7984 -1.2390 -0.4408
 4341TIP3    H237219   0.278   2.502  16.720  0.0964  1.4347  0.2982
 4342TIP3   OH237220   4.861   0.239  17.119 -0.5140 -0.2980 -0.2026
 4342TIP3    H137221   4.942   0.240  17.170  0.2405 -1.2054 -1.3294
 4342TIP3    H237222   4.792   0.226  17.184  0.2995 -0.2187  0.7031
 4343TIP3   OH237223   7.087   6.299  17.040  0.2055 -0.0815  0.3896
 4343TIP3    H137224   7.110   6.274  16.951  0.1203  0.6223  0.1639
 4343TIP3    H237225   7.004   6.345  17.032  0.7363  0.9561  0.6824
 4344TIP3   OH237226   2.930   4.052  16.867  0.7857  0.6662  0.1033
 4344TIP3    H137227   2.942   4.038  16.961  0.7283 -1.9293 -0.2000
 4344TIP3    H237228   2.835   4.048  16.854  0.8583 -0.6587 -0.2228
 4345TIP3   OH237229   7.450   7.917  18.109  0.2245 -0.3965 -0.1627
 4345TIP3    H137230   7.386   7.848  18.090  1.1943 -1.0660 -1.1038
 4345TIP3    H237231   7.470   7.906  18.202  1.0311 -1.9959 -0.4935
 4346TIP3   OH237232   2.709   4.280  16.291  0.0844  0.0621 -0.1289
 4346TIP3    H137233   2.676   4.367  16.269 -0.8951 -0.3795 -0.4657
 4346TIP3    H237234   2.794   4.296  16.334 -0.5703  1.2395  0.7833
 4347TIP3   OH237235   5.933   5.471  17.478 -0.1351  0.0387 -0.2441
 4347TIP3    H137236   5.848   5.462  17.435 -0.4682 -0.4256  0.4773
 4347TIP3    H237237   5.916   5.443  17.568  0.6396  0.5718  0.0707
 4348TIP3   OH237238   8.231   7.283  16.136 -0.4933  0.2758 -0.1755
 4348TIP3    H137239   8.213   7.364  16.185  2.6922  0.0553  1.6147
 4348TIP3    H237240   8.240   7.216  16.204 -0.0632 -0.9503 -1.4131
 4349TIP3   OH237241   5.802   7.973  16.120 -0.6609  0.2886 -0.1441
 4349TIP3    H137242   5.744   7.907  16.158 -1.1379  0.6728 -0.1929
 4349TIP3    H237243   5.891   7.943  16.141 -0.9087  0.5456  1.3458
 4350TIP3   OH237244   3.478   6.151  16.092 -0.7062  0.3239 -0.1256
 4350TIP3    H137245   3.560   6.201  16.093  0.4093 -1.4016 -0.5207
 4350TIP3    H237246   3.457   6.141  15.999 -0.6985 -0.2537 -0.0699
 4351TIP3   OH237247   5.871   6.179  15.891 -0.0952 -0.4631  0.5017
 4351TIP3    H137248   5.942   6.125  15.925  0.7288  0.4444  0.2612
 4351TIP3    H237249   5.914   6.255  15.852 -1.0301 -1.0101 -1.7669
 4352TIP3   OH237250   1.765   0.601  17.254  0.5983 -0.1212  0.0290
 4352TIP3    H137251   1.713   0.521  17.266  0.4635 -0.3307 -1.6585
 4352TIP3    H237252   1.849   0.569  17.220  1.0157  0.3758  0.5852
 4353TIP3   OH237253   6.406   2.389  16.545  0.5083 -0.1539  0.1801
 4353TIP3    H137254   6.336   2.339  16.587 -0.3691  2.8914  2.7780
 4353TIP3    H237255   6.483   2.332  16.549 -1.0440 -2.3278  0.2954
 4354TIP3   OH237256   0.784   0.783  17.039  0.2579  0.3721 -0.1920
 4354TIP3    H137257   0.700   0.787  16.993 -0.1675  0.1131  0.5408
 4354TIP3    H237258   0.796   0.690  17.059  1.2661  0.2549 -1.2656
 4355TIP3   OH237259   5.863   0.381  16.233 -0.6411  0.2234 -0.3649
 4355TIP3    H137260   5.876   0.361  16.325 -0.3154 -0.5817 -0.5755
 4355TIP3    H237261   5.928   0.449  16.214 -0.6772  0.3555 -0.0173
 4356TIP3   OH237262   4.200   5.429  17.467 -0.4595 -0.0405 -0.5039
 4356TIP3    H137263   4.171   5.372  17.396 -2.7441 -1.1896  1.2391
 4356TIP3    H237264   4.142   5.409  17.540 -0.7316  3.7819  0.5753
 4357TIP3   OH237265   3.187   2.746  17.026  0.1876 -0.3611  0.4031
 4357TIP3    H137266   3.265   2.717  16.978  0.0036 -2.3210  1.1831
 4357TIP3    H237267   3.117   2.688  16.996 -1.0835  1.5447 -0.4855
 4358TIP3   OH237268   1.817   0.595  16.119 -0.3075  0.4430 -0.2494
 4358TIP3    H137269   1.828   0.530  16.189 -0.3051 -0.1184 -0.7678
 4358TIP3    H237270   1.897   0.588  16.067 -0.3137  0.8524 -0.3157
 4359TIP3   OH237271   5.201   7.862  17.616  0.3359 -0.2912  0.2671
 4359TIP3    H137272   5.112   7.875  17.649  0.4229 -0.8307  0.7136
 4359TIP3    H237273   5.248   7.942  17.642  0.5370 -0.9114  1.9102
 4360TIP3   OH237274   2.983   6.914  17.492  0.1451  0.6647  0.4847
 4360TIP3    H137275   3.005   6.824  17.517 -1.3804 -0.5776 -2.2058
 4360TIP3    H237276   3.036   6.930  17.414 -0.4717  1.6521  0.2580
 4361TIP3   OH237277   5.264   0.898  16.297 -0.6758  0.1540  0.7705
 4361TIP3    H137278   5.285   0.808  16.271 -1.2459  0.0456  0.6596
 4361TIP3    H237279   5.183   0.918  16.249 -0.0462  1.0626  0.0781
 4362TIP3   OH237280   5.410   2.688  15.763  0.2011  0.8470  0.0457
 4362TIP3    H137281   5.337   2.745  15.738  0.1208  0.6532 -0.1707
 4362TIP3    H237282   5.389   2.604  15.722  1.1232  1.1027 -0.9834
 4363TIP3   OH237283   7.167   3.117  17.119  0.1674  0.1688 -0.5013
 4363TIP3    H137284   7.249   3.167  17.125  2.1159 -2.7347 -1.0268
 4363TIP3    H237285   7.149   3.091  17.210  0.5760 -0.2846 -0.5473
 4364TIP3   OH237286   3.747   0.344  17.532 -0.0945  0.2551 -0.1230
 4364TIP3    H137287   3.733   0.439  17.528  0.3717  0.3889  1.0704
 4364TIP3    H237288   3.837   0.334  17.564 -0.8557 -0.5483  1.9695
 4365TIP3   OH237289   0.406   0.277  16.982  0.0551 -0.3057  0.6230
 4365TIP3    H137290   0.489   0.320  16.960 -0.2845  0.4951  0.8660
 4365TIP3    H237291   0.348   0.349  17.005 -1.0074 -0.7753 -0.5176
 4366TIP3   OH237292   0.293   2.705  15.977  0.1058  0.2548 -0.1635
 4366TIP3    H137293   0.366   2.654  16.012  0.6664  2.1255  1.6033
 4366TIP3    H237294   0.215   2.663  16.014  0.4937  0.1240  0.5203
 4367TIP3   OH237295   8.046   4.856  17.039 -0.1899  0.4134 -0.4513
 4367TIP3    H137296   7.987   4.824  17.107 -0.7934  0.0748 -1.1228
 4367TIP3    H237297   8.063   4.947  17.063 -0.5965  0.3727  0.0132
 4368TIP3   OH237298   0.179   0.228  18.267  0.4367 -1.1706  0.7415
 4368TIP3    H137299   0.177   0.314  18.308  1.3658  0.1450 -1.7643
 4368TIP3    H237300   0.261   0.226  18.218 -1.7258 -1.3252 -3.3959
 4369TIP3   OH237301   2.408   6.678  16.490  0.0494  0.2291 -0.6672
 4369TIP3    H137302   2.346   6.747  16.511 -0.2906 -0.6182  1.3542
 4369TIP3    H237303   2.355   6.600  16.475  0.5474 -0.2633  0.0414
 4370TIP3   OH237304   2.149   0.195  17.500  0.3507 -0.1303 -0.3261
 4370TIP3    H137305   2.194   0.114  17.524  0.5314  0.1061  0.1370
 4370TIP3    H237306   2.215   0.264  17.512  0.1214  0.1145 -0.4655
 4371TIP3   OH237307   0.513   3.516  17.402 -0.0061 -0.1642  0.0419
 4371TIP3    H137308   0.516   3.564  17.319 -0.0624 -0.0299  0.1177
 4371TIP3    H237309   0.541   3.579  17.468 -0.0485 -0.2451  0.1373
 4372TIP3   OH237310   4.724   4.477  16.280  0.3713 -0.5401 -1.1724
 4372TIP3    H137311   4.786   4.549  16.286 -1.2285  0.7944  0.8200
 4372TIP3    H237312   4.683   4.488  16.193 -0.5176  1.6339 -0.5554
 4373TIP3   OH237313   2.984   2.923  18.095  0.0368 -0.0139 -0.2755
 4373TIP3    H137314   2.905   2.964  18.132 -1.5091 -0.9839 -2.2814
 4373TIP3    H237315   2.954   2.839  18.062  2.6332 -1.8392  1.5892
 4374TIP3   OH237316   5.866   6.546  15.978 -0.3933 -0.2089 -0.1730
 4374TIP3    H137317   5.793   6.562  16.037  1.3435 -0.0785  2.0713
 4374TIP3    H237318   5.846   6.460  15.939 -1.4431 -0.4603  0.8527
 4375TIP3   OH237319   5.278   6.609  17.107  0.6496 -0.2140  0.0323
 4375TIP3    H137320   5.241   6.520  17.101 -0.9597  0.4159  0.1659
 4375TIP3    H237321   5.250   6.641  17.192  2.5570 -0.1170  0.6604
 4376TIP3   OH237322   1.317   7.661  17.069 -0.1565  0.4320  0.3036
 4376TIP3    H137323   1.319   7.756  17.081  0.5351  0.5856 -0.8598
 4376TIP3    H237324   1.228   7.635  17.096 -1.5227  1.8765 -2.4131
 4377TIP3   OH237325   6.172   1.691  16.906  0.4893 -0.1491  0.5343
 4377TIP3    H137326   6.247   1.674  16.849 -0.4774  2.4385 -1.7039
 4377TIP3    H237327   6.110   1.620  16.886  0.4710  0.2984 -1.1876
 4378TIP3   OH237328   2.852   0.756  16.511  0.1678  0.4878  0.1826
 4378TIP3    H137329   2.941   0.791  16.512  0.0654  0.7667  1.6390
 4378TIP3    H237330   2.845   0.705  16.591 -0.5907 -0.6073 -0.5352
 4379TIP3   OH237331   4.973   3.406  16.856 -0.4658 -0.1977  0.3353
 4379TIP3    H137332   5.067   3.422  16.862 -0.5572  0.1561  0.9381
 4379TIP3    H237333   4.965   3.311  16.847 -0.0215 -0.1553 -0.5646
 4380TIP3   OH237334   3.663   8.387  16.494  0.3958  0.3947 -0.5543
 4380TIP3    H137335   3.727   8.416  16.559  0.7459  0.2954 -0.8516
 4380TIP3    H237336   3.711   8.389  16.411 -0.0230  0.4328 -0.7957
 4381TIP3   OH237337   7.685   7.486  16.343  0.2335 -0.2115 -0.6062
 4381TIP3    H137338   7.671   7.445  16.258 -0.5724 -0.9055 -0.1567
 4381TIP3    H237339   7.627   7.562  16.344 -0.5389 -0.8005 -0.2817
 4382TIP3   OH237340   0.295   2.235  17.677  0.0120 -0.2269  0.3521
 4382TIP3    H137341   0.346   2.316  17.681  0.2646 -0.2658 -1.3523
 4382TIP3    H237342   0.321   2.195  17.594 -1.5036 -1.1185  0.2842
 4383TIP3   OH237343   6.328   1.858  17.046 -0.4724  0.1935 -0.1753
 4383TIP3    H137344   6.245   1.810  17.047 -0.1301 -0.6487 -3.1791
 4383TIP3    H237345   6.392   1.797  17.080 -0.8639  0.5093  1.2178
 4384TIP3   OH237346   6.447   3.940  17.270 -0.0509  0.0323 -0.4762
 4384TIP3    H137347   6.415   4.030  17.274  0.2123  0.1630 -1.1791
 4384TIP3    H237348   6.444   3.917  17.177 -0.5058 -0.8306 -0.2608
 4385TIP3   OH237349   6.305   5.873  16.600  0.1057  0.4036 -0.0713
 4385TIP3    H137350   6.395   5.903  16.606 -0.2078  1.0378  2.1874
 4385TIP3    H237351   6.299   5.803  16.665  0.0114 -2.6503 -3.0932
 4386TIP3   OH237352   0.441   5.674  17.485  0.2267 -0.3947 -0.1135
 4386TIP3    H137353   0.479   5.621  17.555 -1.0685 -0.7473  0.3430
 4386TIP3    H237354   0.380   5.733  17.529  0.6934  0.6097 -0.7638
 4387TIP3   OH237355   1.529   4.520  16.807 -0.0797 -0.3710  0.0943
 4387TIP3    H137356   1.591   4.579  16.850 -1.2354  0.8443  0.1559
 4387TIP3    H237357   1.451   4.574  16.791 -1.2709 -1.9309  0.3473
 4388TIP3   OH237358   0.063   5.313  17.077 -0.2399 -0.0591 -0.4359
 4388TIP3    H137359  -0.002   5.303  17.007 -0.8712  1.8763 -0.1887
 4388TIP3    H237360   0.079   5.407  17.081  1.1586 -0.3176  0.8227
 4389TIP3   OH237361   0.199   1.592  15.599  0.1179 -0.3051 -0.1234
 4389TIP3    H137362   0.234   1.520  15.651 -0.4333 -0.0746  0.5825
 4389TIP3    H237363   0.259   1.665  15.616  0.3866 -0.4537 -0.4351
 4390TIP3   OH237364   0.200   3.071  16.801  0.2951 -0.5577 -0.0710
 4390TIP3    H137365   0.171   3.058  16.891 -3.3376  2.9186 -0.4601
 4390TIP3    H237366   0.141   3.016  16.749  0.9787 -0.9259 -0.4641
 4391TIP3   OH237367   8.084   3.719  17.152 -0.0595 -0.5835  0.2058
 4391TIP3    H137368   8.120   3.695  17.066 -1.7491 -1.9308 -0.1811
 4391TIP3    H237369   8.059   3.811  17.142 -0.1862 -0.7069 -0.7592
 4392TIP3   OH237370   6.018   5.650  17.132  0.1445 -1.1982 -0.0014
 4392TIP3    H137371   6.024   5.556  17.147 -2.5717 -1.1575  2.2108
 4392TIP3    H237372   5.925   5.666  17.115  0.5924  1.0553 -0.7500
 4393TIP3   OH237373   6.886   0.592  16.708  0.0207  0.0527  0.1627
 4393TIP3    H137374   6.883   0.497  16.701 -2.3990 -0.0046  0.8508
 4393TIP3    H237375   6.915   0.609  16.798  1.3134  0.0258 -0.2285
 4394TIP3   OH237376   1.848   4.674  16.006 -0.1756 -0.3952  0.6227
 4394TIP3    H137377   1.908   4.684  15.931 -0.7451  1.2090  0.3342
 4394TIP3    H237378   1.761   4.669  15.966 -0.3458 -1.3462  1.1038
 4395TIP3   OH237379   7.994   4.234  16.776  0.0209  0.4218 -0.2847
 4395TIP3    H137380   7.987   4.139  16.768  1.3216  0.3940 -1.5695
 4395TIP3    H237381   8.082   4.248  16.812  0.1576  1.1414 -0.8660
 4396TIP3   OH237382   5.225   3.172  16.834 -0.0846 -0.9393 -0.1758
 4396TIP3    H137383   5.295   3.111  16.813  1.8786  1.2602 -0.3937
 4396TIP3    H237384   5.220   3.170  16.930  0.2106 -1.1785 -0.1637
 4397TIP3   OH237385   3.594   1.135  16.348  0.3873  0.1597 -0.0678
 4397TIP3    H137386   3.539   1.167  16.276  0.6332  0.1994 -0.2367
 4397TIP3    H237387   3.672   1.189  16.345  0.8290 -0.4820 -0.3850
 4398TIP3   OH237388   6.439   7.073  17.781 -0.6324 -0.1183  0.2714
 4398TIP3    H137389   6.491   7.150  17.759  1.1765 -1.1873  0.6746
 4398TIP3    H237390   6.495   6.998  17.759 -1.5008 -1.3001  1.8732
 4399TIP3   OH237391   0.205   7.183  16.912 -0.1070 -0.0704 -0.7075
 4399TIP3    H137392   0.228   7.275  16.912 -1.3255  0.2621 -2.0323
 4399TIP3    H237393   0.286   7.138  16.886  1.1182  0.3798  1.9851
 4400TIP3   OH237394   8.212   3.149  17.504  0.5043  0.1931  0.0103
 4400TIP3    H137395   8.202   3.182  17.415 -1.2959 -0.3283 -0.0185
 4400TIP3    H237396   8.307   3.138  17.515  0.7505  0.0132 -1.9198
 4401TIP3   OH237397   4.978   0.224  17.946 -0.3287 -0.3764 -0.2122
 4401TIP3    H137398   4.989   0.319  17.943 -0.9641 -0.3120 -0.6682
 4401TIP3    H237399   5.039   0.196  18.014 -1.9072  0.6286  1.7483
 4402TIP3   OH237400   5.718   1.576  15.809 -0.5942 -0.1333 -0.3055
 4402TIP3    H137401   5.637   1.550  15.765 -1.1262  0.8167  0.0856
 4402TIP3    H237402   5.691   1.600  15.897  0.7340 -4.0980  1.4004
 4403TIP3   OH237403   5.946   3.900  16.196  0.0217  0.0439  0.4026
 4403TIP3    H137404   6.034   3.920  16.164  0.2643  0.8266  1.5019
 4403TIP3    H237405   5.919   3.824  16.145  0.5258  0.9976 -1.3562
 4404TIP3   OH237406   6.378   7.487  17.275  0.2788  0.1267  0.0822
 4404TIP3    H137407   6.371   7.408  17.330 -0.3690  1.0284  1.3353
 4404TIP3    H237408   6.439   7.543  17.322 -0.2621  0.9038 -0.1334
 4405TIP3   OH237409   2.144   2.125  16.722  0.6830 -0.3869 -0.2922
 4405TIP3    H137410   2.114   2.197  16.667  0.1515  0.1661  0.6881
 4405TIP3    H237411   2.111   2.046  16.681 -0.3959  0.0753 -0.3315
 4406TIP3   OH237412   5.497   4.696  15.911 -0.2900  0.3332 -0.0189
 4406TIP3    H137413   5.443   4.641  15.854 -2.1780  1.9788  0.0733
 4406TIP3    H237414   5.434   4.753  15.955  1.3427  0.7169  1.9434
 4407TIP3   OH237415   2.089   0.803  17.187  0.9485 -0.5719 -0.0774
 4407TIP3    H137416   2.100   0.710  17.203 -0.9356 -0.8548 -0.2604
 4407TIP3    H237417   2.168   0.828  17.137  1.8581 -1.8576  0.6608
 4408TIP3   OH237418   6.281   7.294  17.095 -0.9210  0.3595  0.5033
 4408TIP3    H137419   6.325   7.232  17.037 -0.9413  0.0529  0.8126
 4408TIP3    H237420   6.351   7.328  17.151 -1.0004  0.2138  0.6916
 4409TIP3   OH237421   7.522   8.398  17.856  0.0995 -0.3893  0.3115
 4409TIP3    H137422   7.593   8.461  17.843 -0.6621  0.5738  0.6952
 4409TIP3    H237423   7.566   8.317  17.880  1.2082 -0.5134 -1.8419
 4410TIP3   OH237424   7.784   5.531  17.644 -0.6184  0.3567  0.0369
 4410TIP3    H137425   7.755   5.455  17.594 -0.5218  0.1634  0.2720
 4410TIP3    H237426   7.758   5.606  17.591 -0.3487  0.1484 -0.3960
 4411TIP3   OH237427   6.276   6.182  16.654  0.3143 -0.0268 -0.5498
 4411TIP3    H137428   6.334   6.138  16.592  0.4060  1.2864 -1.4384
 4411TIP3    H237429   6.279   6.274  16.628  1.4869  0.8523  2.2777
 4412TIP3   OH237430   2.785   1.621  16.720  0.5549  0.7925  0.2751
 4412TIP3    H137431   2.844   1.547  16.736 -0.9748 -0.3269  0.9616
 4412TIP3    H237432   2.747   1.603  16.635  0.9978  1.3917 -0.0590
 4413TIP3   OH237433   8.039   0.944  16.403  0.0034 -0.0759 -0.1056
 4413TIP3    H137434   7.971   0.931  16.468  1.1596  0.4164  1.2616
 4413TIP3    H237435   8.007   0.899  16.324 -0.5864 -2.4176  1.3675
 4414TIP3   OH237436   4.095   8.272  16.900  0.3108 -0.5399 -0.4460
 4414TIP3    H137437   4.180   8.286  16.858  0.2408  2.3659  0.1618
 4414TIP3    H237438   4.114   8.211  16.972  2.1620  0.8032  0.2988
 4415TIP3   OH237439   3.317   7.222  16.603 -0.2950 -0.1847  0.3531
 4415TIP3    H137440   3.388   7.199  16.663 -0.6117 -0.4616  0.6210
 4415TIP3    H237441   3.362   7.254  16.524  0.1215  1.1855  1.1098
 4416TIP3   OH237442   1.250   3.847  15.994 -0.4688  0.3034  0.5489
 4416TIP3    H137443   1.298   3.927  16.015 -1.1345  0.6748  0.6929
 4416TIP3    H237444   1.181   3.842  16.061 -1.3210  0.3870 -0.2973
 4417TIP3   OH237445   3.910   6.747  15.650  0.6910  0.5005 -0.1962
 4417TIP3    H137446   3.867   6.823  15.610  0.2314  0.3109 -0.0686
 4417TIP3    H237447   3.843   6.679  15.649  1.3635 -0.1657 -1.0871
 4418TIP3   OH237448   6.242   5.237  16.571  0.5257 -0.5126 -0.4492
 4418TIP3    H137449   6.202   5.157  16.535  1.4429 -1.3492  0.3395
 4418TIP3    H237450   6.211   5.241  16.661  0.2560  0.1917 -0.5684
 4419TIP3   OH237451   3.704   5.155  16.978 -0.1004 -0.2764 -0.2190
 4419TIP3    H137452   3.757   5.089  17.023  1.2250  1.9275  1.6731
 4419TIP3    H237453   3.734   5.151  16.887  1.7003 -0.6502  0.3383
 4420TIP3   OH237454   5.913   5.741  17.464  0.4908  0.2449  0.5694
 4420TIP3    H137455   5.923   5.766  17.372  2.6718  1.2959  1.0201
 4420TIP3    H237456   5.944   5.650  17.468  0.3702  0.1890  0.2605
 4421TIP3   OH237457   4.987   3.611  16.150 -0.1481 -0.3780 -0.5995
 4421TIP3    H137458   4.935   3.560  16.088 -1.0772  0.4670 -0.5391
 4421TIP3    H237459   5.066   3.634  16.101 -0.2084 -0.9439 -0.9811
 4422TIP3   OH237460   4.171   6.352  17.181 -0.2095 -0.4500  0.4283
 4422TIP3    H137461   4.151   6.265  17.146 -1.3899 -0.8489  1.9530
 4422TIP3    H237462   4.174   6.409  17.104 -1.2049 -1.5339 -0.4544
 4423TIP3   OH237463   2.554   7.465  17.451 -0.2126  0.0462 -0.2915
 4423TIP3    H137464   2.553   7.380  17.495 -0.1551 -0.1847 -0.7358
 4423TIP3    H237465   2.552   7.529  17.523  1.7927 -0.3105  0.1584
 4424TIP3   OH237466   3.653   4.064  16.108 -0.2270  0.8975  0.1835
 4424TIP3    H137467   3.741   4.070  16.071 -0.2486 -2.5068 -0.7737
 4424TIP3    H237468   3.595   4.073  16.033 -0.5232 -0.0432  0.2852
 4425TIP3   OH237469   2.203   3.001  15.994 -0.6007 -0.2403  1.0053
 4425TIP3    H137470   2.158   2.928  16.038  0.4723 -0.5086  1.6894
 4425TIP3    H237471   2.262   2.959  15.932 -0.0689  0.0548  1.3103
 4426TIP3   OH237472   5.324   0.620  16.252 -0.3096  0.3526 -0.2031
 4426TIP3    H137473   5.276   0.557  16.199  0.1106 -0.2418  0.1065
 4426TIP3    H237474   5.406   0.575  16.275  0.1319  1.1236 -0.2267
 4427TIP3   OH237475   4.169   1.498  16.107 -0.4334 -0.2087 -0.3121
 4427TIP3    H137476   4.078   1.511  16.133  0.0484 -1.6557  2.5761
 4427TIP3    H237477   4.166   1.423  16.047 -1.0202 -1.9116  1.7090
 4428TIP3   OH237478   2.458   4.236  16.544  0.1905 -0.6574 -0.1598
 4428TIP3    H137479   2.390   4.231  16.611 -0.3422  1.3506 -0.4629
 4428TIP3    H237480   2.438   4.165  16.484 -2.7306  0.8020 -1.1308
 4429TIP3   OH237481   0.656   2.066  15.865 -0.2207  0.2387 -0.0990
 4429TIP3    H137482   0.734   2.096  15.818 -0.2044 -0.1414 -0.3150
 4429TIP3    H237483   0.598   2.031  15.797 -0.0281 -0.6871  0.2003
 4430TIP3   OH237484   1.135   5.278  17.385 -0.5436  0.0215 -0.1137
 4430TIP3    H137485   1.048   5.310  17.361 -1.0106 -2.0262 -1.4327
 4430TIP3    H237486   1.194   5.351  17.367 -1.8993  1.2118  0.1378
 4431TIP3   OH237487   0.362   1.148  17.659  0.8247 -0.2153  0.3136
 4431TIP3    H137488   0.389   1.126  17.748 -1.4232  0.0536  1.1305
 4431TIP3    H237489   0.336   1.240  17.664  1.6354  0.0899 -0.8796
 4432TIP3   OH237490   7.879   8.434  17.802 -0.4346  0.2003 -0.0618
 4432TIP3    H137491   7.823   8.435  17.725  0.6813 -0.4131 -0.9061
 4432TIP3    H237492   7.903   8.526  17.815 -1.3325  0.4203  0.1014
 4433TIP3   OH237493   4.501   1.809  16.457 -0.4088 -0.0511 -0.0346
 4433TIP3    H137494   4.540   1.896  16.461 -2.1699  0.7589  0.9410
 4433TIP3    H237495   4.452   1.809  16.374 -0.4787 -0.0597  0.0060
 4434TIP3   OH237496   0.364   5.809  17.943  0.0245  0.0869 -0.2623
 4434TIP3    H137497   0.458   5.793  17.928  0.2345  0.8850  0.1631
 4434TIP3    H237498   0.354   5.903  17.930 -0.8291 -0.0735 -0.8249
 4435TIP3   OH237499   7.148   4.900  17.331 -0.3634  0.3644 -0.7385
 4435TIP3    H137500   7.084   4.947  17.385  1.3483  0.9814  0.8575
 4435TIP3    H237501   7.198   4.969  17.288 -0.6211 -0.1104 -1.8340
 4436TIP3   OH237502   1.168   4.795  16.558 -0.4361  0.3491 -0.8039
 4436TIP3    H137503   1.170   4.883  16.521  2.9627  0.4110 -0.7591
 4436TIP3    H237504   1.198   4.738  16.488  0.2593 -0.3499  0.0393
 4437TIP3   OH237505   3.463   2.977  18.150 -0.3344 -0.4997  0.2422
 4437TIP3    H137506   3.392   2.924  18.188 -0.3189 -1.7035 -1.3253
 4437TIP3    H237507   3.524   2.913  18.114  0.7353  0.5645  0.1035
 4438TIP3   OH237508   2.049   2.057  17.639  0.0942 -0.1759  0.0928
 4438TIP3    H137509   2.000   1.988  17.594  0.2023 -1.1517  1.4001
 4438TIP3    H237510   1.982   2.120  17.666 -0.2353 -0.6012  0.2925
 4439TIP3   OH237511   2.706   6.858  16.400  0.0612 -0.6087  0.1210
 4439TIP3    H137512   2.706   6.773  16.445  1.6973  0.2516  1.8776
 4439TIP3    H237513   2.652   6.914  16.455 -0.5845 -0.3488 -0.7597
 4440TIP3   OH237514   5.853   7.214  16.338 -0.5291  0.0229  0.2091
 4440TIP3    H137515   5.860   7.258  16.253  0.8057  0.2899  0.4401
 4440TIP3    H237516   5.784   7.149  16.325 -1.8668  1.5030 -0.4223
 4441TIP3   OH237517   2.869   3.775  17.603  0.2560 -0.3238 -0.0377
 4441TIP3    H137518   2.877   3.870  17.592  1.7554 -0.4666 -0.3850
 4441TIP3    H237519   2.774   3.758  17.603 -0.0086  1.0267 -1.1724
 4442TIP3   OH237520   4.065   6.116  16.368  0.2680 -0.1460  0.0734
 4442TIP3    H137521   4.108   6.034  16.392 -1.9843 -1.4492 -0.1093
 4442TIP3    H237522   4.044   6.158  16.452  0.8352 -0.0623  0.1773
 4443TIP3   OH237523   0.546   7.071  16.541  0.3408 -0.1296  0.0911
 4443TIP3    H137524   0.507   7.080  16.628 -3.2143  2.4644 -1.4698
 4443TIP3    H237525   0.636   7.103  16.551  0.6280 -1.5680  3.0474
 4444TIP3   OH237526   1.215   1.182  15.323 -0.4261 -0.5638  0.0512
 4444TIP3    H137527   1.285   1.237  15.288 -2.1013  1.1030 -0.8845
 4444TIP3    H237528   1.248   1.093  15.314  2.1151  0.1910  0.9559
 4445TIP3   OH237529   1.575   2.060  15.257  0.0857  0.3884  0.0654
 4445TIP3    H137530   1.574   2.097  15.345  0.2649 -2.2604  1.3009
 4445TIP3    H237531   1.653   2.004  15.256  0.8795  1.4044 -2.3042
 4446TIP3   OH237532   0.459   6.162  15.924 -0.1571  0.1581  0.1385
 4446TIP3    H137533   0.451   6.096  15.855 -0.3203 -0.2204  0.5150
 4446TIP3    H237534   0.431   6.244  15.883  1.5605  0.3119 -0.7992
 4447TIP3   OH237535   3.068   1.002  17.826 -0.7390  0.5317  0.1789
 4447TIP3    H137536   3.012   1.078  17.844  0.8974  1.6496  0.8291
 4447TIP3    H237537   3.022   0.928  17.866 -2.0849  1.2750  0.0575
 4448TIP3   OH237538   7.193   2.042  16.609 -0.1163  0.1782  0.3293
 4448TIP3    H137539   7.111   2.057  16.563 -1.1074  0.6103  2.1061
 4448TIP3    H237540   7.166   2.016  16.697  1.6680 -1.0785  0.5520
 4449TIP3   OH237541   5.129   7.523  16.649  0.2706  0.1239  0.3225
 4449TIP3    H137542   5.070   7.597  16.669  0.0484 -0.4194  1.7848
 4449TIP3    H237543   5.216   7.556  16.671  0.7164  1.2285 -2.6534
 4450TIP3   OH237544   0.773   0.270  17.854 -0.0964 -0.6649 -0.4886
 4450TIP3    H137545   0.680   0.294  17.861  0.3125  1.0385 -0.4741
 4450TIP3    H237546   0.792   0.225  17.937 -0.7042 -0.2885 -0.1376
 4451TIP3   OH237547   4.553   7.426  17.476 -0.0416 -0.3314  0.3041
 4451TIP3    H137548   4.526   7.486  17.545 -1.3102  1.0560 -1.3202
 4451TIP3    H237549   4.573   7.482  17.401 -0.2953 -1.8489 -0.9632
 4452TIP3   OH237550   2.790   5.799  16.592 -0.1238  0.2999 -0.0010
 4452TIP3    H137551   2.751   5.803  16.504  0.3581 -1.5861 -0.3362
 4452TIP3    H237552   2.884   5.799  16.576 -0.0377 -0.2363  0.5084
 4453TIP3   OH237553   5.313   2.555  16.910  0.3593 -0.0958  0.1418
 4453TIP3    H137554   5.275   2.598  16.987 -0.0006  1.6515 -0.9366
 4453TIP3    H237555   5.348   2.473  16.943 -0.4675  0.2434  2.0189
 4454TIP3   OH237556   1.375   3.380  17.265 -0.1404 -0.1254  0.0468
 4454TIP3    H137557   1.459   3.409  17.229 -0.6865  0.9258 -0.4634
 4454TIP3    H237558   1.310   3.415  17.203 -1.0006 -0.0151  0.9874
 4455TIP3   OH237559   3.111   1.815  16.416 -0.1708  0.1657 -0.6961
 4455TIP3    H137560   3.124   1.907  16.438  2.3217  0.1801 -1.9173
 4455TIP3    H237561   3.111   1.813  16.320  2.0048 -1.2789 -0.7398
 4456TIP3   OH237562   6.678   1.302  17.075  0.5636 -1.0457 -0.3491
 4456TIP3    H137563   6.679   1.232  17.008  0.4612  0.0464 -1.5316
 4456TIP3    H237564   6.602   1.355  17.051 -0.7050 -1.7421  1.8699
 4457TIP3   OH237565   1.925   1.585  16.141 -0.1926 -0.2369 -0.1802
 4457TIP3    H137566   1.874   1.665  16.129 -0.0936  0.0650  1.1977
 4457TIP3    H237567   1.867   1.527  16.191 -0.3984 -1.1835 -1.4687
 4458TIP3   OH237568   1.672   1.335  16.024 -0.1497 -0.0957 -0.3301
 4458TIP3    H137569   1.617   1.397  15.977  1.6042  0.7669 -1.3840
 4458TIP3    H237570   1.674   1.366  16.114  0.3120  1.1420 -0.7434
 4459TIP3   OH237571   2.866   1.611  17.312 -0.2682 -0.0680  0.3121
 4459TIP3    H137572   2.773   1.619  17.336 -0.6926  0.4730 -1.3529
 4459TIP3    H237573   2.876   1.669  17.237  1.6078  0.4250  0.8895
 4460TIP3   OH237574   0.009   1.110  17.224  0.0816 -0.7611  0.3434
 4460TIP3    H137575  -0.014   1.152  17.306  0.2254  0.0422 -0.0160
 4460TIP3    H237576  -0.039   1.160  17.157 -1.8263 -2.7421  0.0988
 4461TIP3   OH237577   1.975   5.546  15.668  0.0041  0.0656  0.3023
 4461TIP3    H137578   1.958   5.639  15.664 -0.0588  0.0395 -0.0579
 4461TIP3    H237579   2.045   5.537  15.733 -0.8703  0.2307  1.2825
 4462TIP3   OH237580   1.477   6.051  16.334 -0.5117  0.0350 -0.1205
 4462TIP3    H137581   1.536   6.107  16.384  1.7947 -2.1319 -0.2481
 4462TIP3    H237582   1.417   6.015  16.400 -1.1033  1.4521  0.1631
 4463TIP3   OH237583   6.259   8.115  16.824 -0.6714 -0.3897 -0.5106
 4463TIP3    H137584   6.227   8.092  16.736 -1.1371  2.8789 -1.3063
 4463TIP3    H237585   6.182   8.145  16.871  0.0161  0.6123  0.0160
 4464TIP3   OH237586   3.360   3.224  16.468  0.4366 -0.4909  0.1911
 4464TIP3    H137587   3.421   3.172  16.521  0.6183 -1.8505 -1.2889
 4464TIP3    H237588   3.280   3.228  16.521 -0.0310 -3.3949 -0.1296
 4465TIP3   OH237589   4.074   7.378  16.264  0.3390 -0.0834 -0.0960
 4465TIP3    H137590   4.081   7.472  16.247 -2.5983  0.5375  1.4616
 4465TIP3    H237591   4.135   7.362  16.336 -0.2958  1.0179  0.7161
 4466TIP3   OH237592   6.846   3.099  16.425 -0.4387 -0.1146 -0.0642
 4466TIP3    H137593   6.894   3.135  16.350 -1.1719  0.0056 -0.4924
 4466TIP3    H237594   6.805   3.019  16.391  0.1069 -0.6540  0.5185
 4467TIP3   OH237595   4.743   2.115  17.883  0.2325 -0.2106 -0.9214
 4467TIP3    H137596   4.791   2.038  17.852 -0.3973 -0.3920 -1.4795
 4467TIP3    H237597   4.655   2.105  17.846  0.1198  0.7424 -0.9449
 4468TIP3   OH237598   7.014   3.655  16.039 -0.2229  0.2955 -0.3336
 4468TIP3    H137599   6.979   3.737  16.003 -2.1733 -0.0901  0.5275
 4468TIP3    H237600   6.988   3.588  15.976 -0.6357  0.0598  0.0823
 4469TIP3   OH237601   7.063   8.323  17.165 -0.0680  0.0975 -0.2014
 4469TIP3    H137602   6.991   8.366  17.211 -0.2816 -0.4298 -0.0330
 4469TIP3    H237603   7.109   8.394  17.120 -1.2850  0.3325 -1.1316
 4470TIP3   OH237604   1.294   4.572  17.101  0.4449  0.8661 -0.3617
 4470TIP3    H137605   1.374   4.521  17.114 -1.0161 -1.3058  0.4972
 4470TIP3    H237606   1.224   4.516  17.132 -1.2652  3.6046  1.1528
 4471TIP3   OH237607   5.318   5.964  27.218  0.2812  0.3208  0.0034
 4471TIP3    H137608   5.407   5.980  27.250  0.2909  1.0133 -0.3694
 4471TIP3    H237609   5.302   6.033  27.154  0.0910 -0.7804 -1.1754
 4472TIP3   OH237610   0.303   7.647  16.229 -0.3177  0.1721  0.0971
 4472TIP3    H137611   0.257   7.678  16.151  1.1902 -1.3714 -1.4943
 4472TIP3    H237612   0.387   7.692  16.227  0.5124 -1.3058 -0.3342
 4473TIP3   OH237613   2.928   6.077  16.737  0.5186 -0.3516 -0.5581
 4473TIP3    H137614   2.843   6.079  16.692  0.6460 -1.4562 -0.8605
 4473TIP3    H237615   2.991   6.102  16.669  0.5718 -0.7513 -0.6547
 4474TIP3   OH237616   7.718   0.019  16.939  0.1079  0.1024 -0.0753
 4474TIP3    H137617   7.793  -0.040  16.955 -0.1823 -1.1638 -2.8170
 4474TIP3    H237618   7.646  -0.040  16.918 -1.1439  1.3814  0.5327
 4475TIP3   OH237619   7.078   2.777  16.488 -0.0900 -0.0893 -0.2014
 4475TIP3    H137620   7.159   2.780  16.436 -0.0603 -0.7306 -0.2015
 4475TIP3    H237621   7.081   2.856  16.542 -0.4221  0.9177 -1.6095
 4476TIP3   OH237622   7.179   5.726  17.995  0.0494  0.1594  0.0614
 4476TIP3    H137623   7.245   5.752  18.060  1.5336  0.3242 -1.4294
 4476TIP3    H237624   7.163   5.806  17.945 -2.9508  0.7055  1.6706
 4477TIP3   OH237625   1.781   0.423  16.368  0.2710  0.0023  0.0213
 4477TIP3    H137626   1.720   0.462  16.305 -0.1380 -1.7704 -0.7471
 4477TIP3    H237627   1.746   0.448  16.453 -0.4457  0.5898 -0.4232
 4478TIP3   OH237628   2.940   4.880  16.243  0.0196  0.0422 -0.2442
 4478TIP3    H137629   2.942   4.785  16.238 -0.6964  0.0450 -0.7304
 4478TIP3    H237630   2.971   4.901  16.331 -1.4348 -0.7051  0.4681
 4479TIP3   OH237631   7.093   7.535  17.572  0.0924  0.2479 -0.2506
 4479TIP3    H137632   7.118   7.473  17.641  0.1878  0.3780 -0.1672
 4479TIP3    H237633   7.080   7.481  17.494  0.0413  0.1073 -0.1430
 4480TIP3   OH237634   6.733   7.667  15.485  0.2757  0.5214 -0.2079
 4480TIP3    H137635   6.744   7.631  15.573 -1.0452 -0.2391 -0.3316
 4480TIP3    H237636   6.794   7.617  15.431  0.7106  0.6328  0.1676
 4481TIP3   OH237637   4.543   1.587  17.793 -0.2172 -0.5099 -0.3677
 4481TIP3    H137638   4.543   1.497  17.826  1.4479  0.2998  2.2048
 4481TIP3    H237639   4.612   1.630  17.843 -1.1662  2.2922 -1.2957
 4482TIP3   OH237640   1.654   3.494  17.182 -0.4530  0.0647  0.4419
 4482TIP3    H137641   1.708   3.543  17.244  0.9686 -1.0842  0.1613
 4482TIP3    H237642   1.712   3.476  17.108 -1.0498 -1.6872  0.3693
 4483TIP3   OH237643   3.833   0.958  16.158 -0.6716  0.0095 -0.1956
 4483TIP3    H137644   3.809   0.934  16.248  2.5230 -0.7894  0.5923
 4483TIP3    H237645   3.793   1.044  16.145 -0.9163  0.3285  2.1829
 4484TIP3   OH237646   1.943   5.527  16.733 -0.4083 -0.1670  0.0144
 4484TIP3    H137647   1.917   5.610  16.773 -1.8401 -0.6042  0.0579
 4484TIP3    H237648   2.038   5.522  16.746 -0.4308  1.0482  0.7742
 4485TIP3   OH237649   6.945   7.018  17.325 -0.7218  0.1915 -0.4988
 4485TIP3    H137650   6.873   7.030  17.263 -1.2479 -1.2631 -0.2261
 4485TIP3    H237651   6.908   6.961  17.393  0.9305 -1.4066 -0.8529
 4486TIP3   OH237652   2.938   4.056  17.148  0.1012  0.1967 -0.1636
 4486TIP3    H137653   2.932   4.136  17.201  3.6450  0.4147  0.1673
 4486TIP3    H237654   3.014   4.010  17.183 -0.9304 -2.6246 -1.3435
 4487TIP3   OH237655   3.588   6.014  17.216  0.0313  0.4826 -0.7741
 4487TIP3    H137656   3.607   6.010  17.310  2.0818 -0.9780 -1.1892
 4487TIP3    H237657   3.520   5.949  17.202  1.0519 -0.6811 -0.5344
 4488TIP3   OH237658   1.536   5.399  17.676  0.3974 -0.2424  0.2526
 4488TIP3    H137659   1.490   5.482  17.685  2.0616  0.5956  1.8491
 4488TIP3    H237660   1.575   5.402  17.589 -1.4670 -0.4420 -0.6353
 4489TIP3   OH237661   2.244   5.956  16.467 -0.3163 -0.3925  0.0467
 4489TIP3    H137662   2.288   6.020  16.523 -1.5773 -0.1062  0.7718
 4489TIP3    H237663   2.220   6.006  16.389 -1.8879  0.2743  0.8860
 4490TIP3   OH237664   4.693   0.231  16.310 -0.3511  0.4340  0.0655
 4490TIP3    H137665   4.781   0.199  16.329 -0.5984  0.0426  0.5480
 4490TIP3    H237666   4.696   0.255  16.217  0.0546 -0.2604 -0.1042
 4491TIP3   OH237667   3.380   5.261  16.068  0.2158  0.5783  0.0404
 4491TIP3    H137668   3.401   5.248  15.975 -3.1211  2.8356 -1.2460
 4491TIP3    H237669   3.342   5.178  16.096 -1.0015  0.6039 -1.4104
 4492TIP3   OH237670   7.940   7.984  17.049  0.4831 -0.1891  0.0033
 4492TIP3    H137671   7.861   8.038  17.048  0.1897 -0.6139 -1.1556
 4492TIP3    H237672   7.993   8.020  17.120 -0.3121  0.7317  0.1448
 4493TIP3   OH237673   5.998   5.668  16.077  0.1890 -0.0851 -0.7030
 4493TIP3    H137674   6.079   5.620  16.099  1.5634  2.1247 -0.6647
 4493TIP3    H237675   6.015   5.704  15.990 -0.3914  1.1574 -0.3155
 4494TIP3   OH237676   2.168   5.163  17.776 -0.1498  0.2014 -0.1634
 4494TIP3    H137677   2.218   5.191  17.699  0.0638  1.0243  0.2625
 4494TIP3    H237678   2.191   5.227  17.843 -0.6152 -0.3036  0.4776
 4495TIP3   OH237679   6.261   7.657  17.896 -0.1092  0.7812 -0.1189
 4495TIP3    H137680   6.253   7.636  17.803  0.7620  0.2153 -0.0758
 4495TIP3    H237681   6.227   7.579  17.940 -0.4697  1.0277  0.0457
 4496TIP3   OH237682   1.663   6.884  17.164 -0.0898  0.2954 -0.0883
 4496TIP3    H137683   1.699   6.971  17.148  1.5108 -0.1920  0.6471
 4496TIP3    H237684   1.695   6.831  17.090  2.7421 -0.6668  1.6697
 4497TIP3   OH237685   4.235   0.312  16.016 -0.8387 -0.0463  0.0888
 4497TIP3    H137686   4.242   0.255  15.940 -1.2719  1.2031 -0.9285
 4497TIP3    H237687   4.306   0.285  16.073  0.8084  0.2923 -1.6919
 4498TIP3   OH237688   8.330   4.636  16.806 -0.4027  0.6641 -0.0959
 4498TIP3    H137689   8.307   4.622  16.898 -0.1352  2.3780  0.2705
 4498TIP3    H237690   8.281   4.714  16.781 -1.6127 -0.5845 -1.8772
 4499TIP3   OH237691   4.371   4.129  17.848 -0.4787 -0.0295 -0.6177
 4499TIP3    H137692   4.365   4.163  17.758 -0.3077 -0.8820 -0.9631
 4499TIP3    H237693   4.357   4.206  17.903  0.2827  0.6770 -1.3727
 4500TIP3   OH237694   4.754   7.850  17.600  0.2567  0.1672  0.1764
 4500TIP3    H137695   4.840   7.884  17.576  0.6175  0.3885  1.6872
 4500TIP3    H237696   4.706   7.926  17.631  0.2225 -0.2709  1.2504
 4501TIP3   OH237697   8.391   4.653  17.592  0.4766  0.8100 -0.5376
 4501TIP3    H137698   8.457   4.704  17.638  0.6173 -0.0728  0.2835
 4501TIP3    H237699   8.389   4.569  17.639 -0.5308  0.4726 -1.1511
 4502TIP3   OH237700   6.755   4.730  16.530 -0.5271  0.2746  0.4059
 4502TIP3    H137701   6.676   4.784  16.533 -0.0411  0.9813  0.7636
 4502TIP3    H237702   6.732   4.656  16.473 -1.7923 -0.1006  1.3680
 4503TIP3   OH237703   2.993   7.657  16.443 -0.0595 -0.7145  0.4787
 4503TIP3    H137704   2.904   7.628  16.427 -0.0378  0.6219 -2.8678
 4503TIP3    H237705   3.028   7.595  16.507 -3.4930 -0.8928  2.4164
 4504TIP3   OH237706   3.779   7.049  16.172 -0.2172  0.4854  0.6247
 4504TIP3    H137707   3.731   7.033  16.253 -0.9239  0.4639  0.2131
 4504TIP3    H237708   3.712   7.044  16.104  0.6764 -1.5138 -0.1825
 4505TIP3   OH237709   2.412   6.562  16.085  0.2916 -0.2307 -0.4688
 4505TIP3    H137710   2.429   6.607  16.003 -0.1217 -0.1903 -0.5350
 4505TIP3    H237711   2.345   6.616  16.128  1.0825  0.2044  0.2635
 4506TIP3   OH237712   8.406   4.949  16.241  0.0170  0.6731  0.0174
 4506TIP3    H137713   8.421   4.949  16.336 -1.0884  0.1301  0.2144
 4506TIP3    H237714   8.424   5.039  16.214 -0.7006  1.1187  0.9378
 4507TIP3   OH237715   6.393   7.078  16.971 -0.7528  0.2363  0.1832
 4507TIP3    H137716   6.340   7.007  17.007 -0.8883 -0.1808 -0.7842
 4507TIP3    H237717   6.359   7.089  16.882  0.0496  0.7254 -0.0696
 4508TIP3   OH237718   0.656   7.098  16.872  0.2468  0.4253 -0.0649
 4508TIP3    H137719   0.728   7.035  16.868  1.2727  1.2522  2.8898
 4508TIP3    H237720   0.578   7.045  16.891  0.8142 -0.1265  0.7777
 4509TIP3   OH237721   1.124   1.057  16.703  0.5087  0.0699  0.2754
 4509TIP3    H137722   1.152   0.978  16.749  2.2239  0.5034  0.0533
 4509TIP3    H237723   1.075   1.106  16.769  1.4518 -0.1153  1.1542
 4510TIP3   OH237724   5.370   7.201  17.488  0.2588 -1.4343  0.2826
 4510TIP3    H137725   5.410   7.198  17.401  0.4789 -1.1663  0.3719
 4510TIP3    H237726   5.433   7.250  17.541 -0.1798 -1.0277  0.4318
 4511TIP3   OH237727   7.253   0.568  16.995 -0.0301  0.5479  0.3067
 4511TIP3    H137728   7.327   0.607  17.041 -0.5424  0.2267  1.4466
 4511TIP3    H237729   7.248   0.479  17.031 -0.9041  0.5399  0.1783
 4512TIP3   OH237730   7.560   5.959  17.254  0.9022 -0.2488 -0.1567
 4512TIP3    H137731   7.571   5.955  17.159 -0.0283 -0.5839 -0.2638
 4512TIP3    H237732   7.567   6.052  17.275  0.3472 -0.0841 -0.6599
 4513TIP3   OH237733   4.313   0.267  16.830  0.3180 -0.2585  0.0489
 4513TIP3    H137734   4.361   0.246  16.910 -0.2132 -1.0919  0.1695
 4513TIP3    H237735   4.223   0.238  16.848 -0.2305  1.2263 -0.1859
 4514TIP3   OH237736   1.534   6.489  16.898 -0.2290  0.0732 -0.1725
 4514TIP3    H137737   1.440   6.479  16.917 -0.6808  1.3259 -1.5303
 4514TIP3    H237738   1.558   6.570  16.943  0.5439 -0.8988  1.2219
 4515TIP3   OH237739   4.345   5.182  17.331 -0.2379  0.1467 -0.7580
 4515TIP3    H137740   4.376   5.092  17.338 -1.3630 -0.2596 -0.9097
 4515TIP3    H237741   4.373   5.210  17.244 -2.6739 -1.1724 -2.0612
 4516TIP3   OH237742   4.732   8.371  16.946 -0.4947  0.2667 -0.2255
 4516TIP3    H137743   4.819   8.340  16.972 -1.1063  1.6931  4.2024
 4516TIP3    H237744   4.748   8.457  16.907  0.1072  0.4372  0.3803
 4517TIP3   OH237745   4.533   7.688  17.580 -0.0245 -0.1484  0.2896
 4517TIP3    H137746   4.619   7.725  17.558 -0.4477 -0.7825 -2.9622
 4517TIP3    H237747   4.475   7.765  17.587  0.2195  0.1539 -0.7527
 4518TIP3   OH237748   8.339   4.609  17.343 -0.3390  0.1623  0.0066
 4518TIP3    H137749   8.261   4.556  17.332 -0.0804 -0.1837 -0.1999
 4518TIP3    H237750   8.363   4.601  17.435 -0.2789 -0.1083 -0.0342
 4519TIP3   OH237751   5.673   7.857  16.676 -0.6361  0.8115 -0.2238
 4519TIP3    H137752   5.668   7.763  16.662 -1.4769  0.8627 -0.3169
 4519TIP3    H237753   5.624   7.873  16.756  0.1695  1.0837  0.2269
 4520TIP3   OH237754   4.017   1.715  17.534  0.3678 -0.0019 -0.1964
 4520TIP3    H137755   4.078   1.645  17.555 -0.3769 -1.7208 -3.1274
 4520TIP3    H237756   3.956   1.718  17.607  0.6065 -2.2456  0.1376
 4521TIP3   OH237757   2.412   0.856  17.198 -0.2809 -0.6874  0.5085
 4521TIP3    H137758   2.382   0.905  17.121  0.8811  1.1079  1.1305
 4521TIP3    H237759   2.434   0.769  17.165  2.6429  0.7420 -1.7740
 4522TIP3   OH237760   3.913   2.875  16.437  0.1710 -0.4699  0.2324
 4522TIP3    H137761   3.992   2.875  16.383  0.1570  0.2278  0.2077
 4522TIP3    H237762   3.846   2.837  16.380  0.1103  0.4522 -0.3185
 4523TIP3   OH237763   7.803   7.532  17.213 -0.1719  0.0317  0.0282
 4523TIP3    H137764   7.796   7.449  17.167 -0.5092  0.2372 -0.3015
 4523TIP3    H237765   7.879   7.522  17.271 -1.7189 -1.4082  1.9117
 4524TIP3   OH237766   4.014   3.320  17.468  0.1293 -0.1305 -0.0499
 4524TIP3    H137767   3.983   3.359  17.386  0.3462 -1.4654 -0.8104
 4524TIP3    H237768   4.108   3.309  17.454  0.1512 -0.4443  0.3440
 4525TIP3   OH237769   6.444   5.232  17.191  0.8640 -0.5113 -0.4474
 4525TIP3    H137770   6.441   5.315  17.142  0.1662 -0.7771 -0.8678
 4525TIP3    H237771   6.484   5.256  17.275 -0.4497  0.5146 -0.0741
 4526TIP3   OH237772   4.079   0.810  17.898 -0.3574 -0.0748  0.1314
 4526TIP3    H137773   4.138   0.766  17.958  1.1800  1.0873 -0.4479
 4526TIP3    H237774   4.130   0.821  17.817 -1.5655  0.4311 -0.5950
 4527TIP3   OH237775   6.053   8.243  17.026  0.0361  0.0568  0.7925
 4527TIP3    H137776   5.974   8.226  16.975  0.5203  0.1181  0.0145
 4527TIP3    H237777   6.031   8.213  17.114 -0.8059 -0.0542  0.5531
 4528TIP3   OH237778   4.939   4.148  17.727  0.1040  0.0285 -0.0506
 4528TIP3    H137779   4.859   4.155  17.779  1.2004  1.5356  1.5245
 4528TIP3    H237780   4.928   4.212  17.657  0.0033  0.3532  0.2625
 4529TIP3   OH237781   6.954   7.764  18.076 -0.8092 -0.1334 -0.0908
 4529TIP3    H137782   6.874   7.786  18.125 -0.6189  3.6731 -1.1323
 4529TIP3    H237783   6.948   7.818  17.997  1.6441 -1.6600 -1.4204
 4530TIP3   OH237784   6.041   4.737  17.168  0.1498  0.2825  0.2784
 4530TIP3    H137785   5.959   4.754  17.122  0.4730  0.3107 -0.2946
 4530TIP3    H237786   6.106   4.726  17.099  0.8164  1.2158  0.7327
 4531TIP3   OH237787   3.328   2.263  16.454  0.0048 -0.0842  0.2604
 4531TIP3    H137788   3.264   2.334  16.458 -1.6535 -1.4251 -0.9458
 4531TIP3    H237789   3.366   2.269  16.367  2.4250  1.3305  1.2935
 4532TIP3   OH237790   1.448   2.374  15.960 -0.2943  0.6546 -0.1508
 4532TIP3    H137791   1.356   2.352  15.973  0.0834  0.4733  3.0108
 4532TIP3    H237792   1.459   2.458  16.006  0.9612  1.1352 -1.2552
 4533TIP3   OH237793   6.310   6.314  17.404 -0.4569 -0.6190  0.2136
 4533TIP3    H137794   6.323   6.225  17.435 -0.3454 -0.6044  0.2090
 4533TIP3    H237795   6.269   6.304  17.318  0.3536 -0.6874 -0.1761
 4534TIP3   OH237796   2.393   6.399  16.301 -0.1632  0.1865 -0.2133
 4534TIP3    H137797   2.408   6.466  16.234 -1.1724  0.2234 -0.4164
 4534TIP3    H237798   2.300   6.379  16.294 -0.5812  1.0631  1.9767
 4535TIP3   OH237799   7.239   4.881  17.011 -0.3023 -0.9937 -0.2871
 4535TIP3    H137800   7.258   4.954  16.951 -0.1828 -1.7704 -1.2097
 4535TIP3    H237801   7.324   4.860  17.051 -0.1047 -1.4257 -0.9331
 4536TIP3   OH237802   2.176   7.553  17.052  1.2291 -0.2408 -0.3243
 4536TIP3    H137803   2.218   7.467  17.058 -1.0385 -1.3664  0.6081
 4536TIP3    H237804   2.163   7.579  17.143  0.6756  0.4731 -0.6015
 4537TIP3   OH237805   4.633   4.909  16.755 -0.1444 -0.0610  0.2662
 4537TIP3    H137806   4.547   4.937  16.722 -0.6079  1.2522  2.3575
 4537TIP3    H237807   4.694   4.932  16.685 -1.4221 -0.5272 -1.0519
 4538TIP3   OH237808   2.932   6.261  16.470  0.0362  0.2592  0.2777
 4538TIP3    H137809   2.965   6.338  16.425 -0.0413  1.2705  1.8509
 4538TIP3    H237810   2.844   6.247  16.434  0.3277  0.4824 -0.5181
 4539TIP3   OH237811   3.437   1.860  16.796 -0.0531 -0.4355 -0.2483
 4539TIP3    H137812   3.514   1.840  16.850  0.4594  0.9914 -0.4065
 4539TIP3    H237813   3.363   1.855  16.858  0.3874  0.0233  0.3289
 4540TIP3   OH237814   8.044   0.291  16.734  0.1832 -0.6296 -0.0255
 4540TIP3    H137815   8.107   0.346  16.687 -0.6994 -0.3694 -0.9454
 4540TIP3    H237816   7.966   0.345  16.743  0.5407 -0.4316  2.4088
 4541TIP3   OH237817   1.923   7.071  16.698 -0.0826  0.1317  0.0264
 4541TIP3    H137818   1.860   7.138  16.724 -2.1129 -1.1359 -1.4002
 4541TIP3    H237819   1.962   7.104  16.617  1.6842  1.2236  1.2497
 4542TIP3   OH237820   0.442   6.191  17.230  0.7039 -0.3270 -0.5146
 4542TIP3    H137821   0.524   6.214  17.186  1.3151 -0.2574  0.6282
 4542TIP3    H237822   0.418   6.269  17.280  0.1464 -0.4825 -0.5251
 4543TIP3   OH237823   1.982   7.215  16.441 -0.8056 -0.1614  0.0156
 4543TIP3    H137824   1.909   7.262  16.482 -1.4341  0.1004 -1.3459
 4543TIP3    H237825   2.048   7.283  16.426 -0.8246 -0.1381  0.0367
 4544TIP3   OH237826   0.515   2.046  17.580  0.9249  0.3455 -0.4680
 4544TIP3    H137827   0.479   1.962  17.551  1.7385  0.5094 -2.0315
 4544TIP3    H237828   0.527   2.035  17.674 -2.7200  0.1218  0.1155
 4545TIP3   OH237829   3.005   3.318  17.998  0.3668 -0.7203  0.5845
 4545TIP3    H137830   2.980   3.314  18.090  1.4751 -3.5006  0.8830
 4545TIP3    H237831   2.923   3.327  17.950 -0.2221  0.6913  1.8257
 4546TIP3   OH237832   2.240   5.198  17.012 -0.4046 -0.3801 -0.6055
 4546TIP3    H137833   2.331   5.201  17.041 -0.6958  0.3734  0.2602
 4546TIP3    H237834   2.238   5.251  16.933 -0.5780  1.8713  0.8239
 4547TIP3   OH237835   7.172   7.020  15.890  0.4507  0.3103  0.3018
 4547TIP3    H137836   7.234   7.084  15.925 -0.2952  0.4936  1.3471
 4547TIP3    H237837   7.086   7.061  15.902  0.1082  0.0471 -1.0879
 4548TIP3   OH237838   0.558   3.487  17.775 -0.7143  0.2195 -0.3395
 4548TIP3    H137839   0.602   3.425  17.717 -1.5045  0.1948 -0.9231
 4548TIP3    H237840   0.623   3.555  17.792 -0.8774  0.9328 -2.3279
 4549TIP3   OH237841   1.057   7.697  17.470 -0.2096 -0.8811 -0.3597
 4549TIP3    H137842   1.003   7.649  17.532  0.2132  1.6113  2.1582
 4549TIP3    H237843   1.021   7.785  17.469  1.6929 -0.0396 -1.2787
 4550TIP3   OH237844   2.998   8.215  17.839  0.0128 -0.1830  0.1367
 4550TIP3    H137845   2.929   8.159  17.874 -0.8092  0.7943  0.1081
 4550TIP3    H237846   3.051   8.156  17.784 -0.5872 -1.0127  0.4253
 4551TIP3   OH237847   5.343   4.130  16.822  0.2906  0.6165 -0.0607
 4551TIP3    H137848   5.420   4.074  16.826 -0.6170 -0.8687 -1.9233
 4551TIP3    H237849   5.288   4.101  16.895  0.6128  0.3350  0.0716
 4552TIP3   OH237850   0.795   1.536  17.337  0.0145 -0.2518 -0.0950
 4552TIP3    H137851   0.826   1.499  17.254 -1.4531 -0.5080 -0.5591
 4552TIP3    H237852   0.867   1.591  17.367  1.4265 -1.8045 -0.4624
 4553TIP3   OH237853   2.213   6.064  16.230 -0.1855  0.9410  0.3651
 4553TIP3    H137854   2.134   6.089  16.182 -0.0203  1.3636  0.3000
 4553TIP3    H237855   2.261   6.147  16.239  1.1129  0.4056 -1.1830
 4554TIP3   OH237856   3.738   6.058  15.570 -0.6280  0.3133  0.2435
 4554TIP3    H137857   3.722   6.125  15.503  1.0486 -0.6127 -1.1468
 4554TIP3    H237858   3.833   6.050  15.574 -0.7475 -0.7190  1.6971
 4555TIP3   OH237859   4.466   7.234  16.931 -0.4487 -0.7000  0.0390
 4555TIP3    H137860   4.543   7.187  16.899 -0.8447 -0.7848 -0.8396
 4555TIP3    H237861   4.419   7.170  16.984 -0.9474 -1.2961 -1.0934
 4556TIP3   OH237862   5.996   1.490  16.854 -0.0598  0.7736  0.3473
 4556TIP3    H137863   5.973   1.411  16.805 -1.3262  1.7123 -0.6464
 4556TIP3    H237864   5.962   1.474  16.942 -0.4461  0.2818  0.1157
 4557TIP3   OH237865   2.371   5.309  16.733 -0.3019  0.4168  0.3577
 4557TIP3    H137866   2.353   5.307  16.639  0.3723  0.6636  0.2192
 4557TIP3    H237867   2.461   5.341  16.740 -0.0328 -0.4505  1.0511
 4558TIP3   OH237868   0.408   7.380  16.033 -0.3738 -0.3221 -0.2361
 4558TIP3    H137869   0.334   7.368  16.093 -0.3513 -0.0755 -0.1567
 4558TIP3    H237870   0.485   7.354  16.084 -0.2749  0.5489  0.0854
 4559TIP3   OH237871   8.206   6.130  17.337  0.3409 -0.0199 -0.2134
 4559TIP3    H137872   8.183   6.222  17.332 -1.5318 -0.4825 -1.4954
 4559TIP3    H237873   8.197   6.107  17.429  0.9566  1.1025  0.1303
 4560TIP3   OH237874   5.575   2.666  17.749 -0.1517 -0.7435  0.0319
 4560TIP3    H137875   5.582   2.758  17.777 -1.0334 -0.8446  0.6190
 4560TIP3    H237876   5.505   2.630  17.803  1.1746 -2.1822  0.8850
 4561TIP3   OH237877   7.582   6.530  16.423 -0.0507  0.0764  0.3867
 4561TIP3    H137878   7.658   6.550  16.368 -1.3669  2.0836 -0.8535
 4561TIP3    H237879   7.507   6.545  16.365 -1.4233 -0.5537  1.9440
 4562TIP3   OH237880   6.589   0.659  17.377  0.7160 -0.5022 -0.3181
 4562TIP3    H137881   6.609   0.620  17.292  2.3578 -2.8276  1.0063
 4562TIP3    H237882   6.558   0.586  17.431 -0.7328  0.9896  0.9775
 4563TIP3   OH237883   6.914   1.254  17.857  0.1102 -0.1154  0.8999
 4563TIP3    H137884   6.989   1.238  17.915  0.1498  2.0771  1.5257
 4563TIP3    H237885   6.919   1.347  17.837 -0.6519 -0.5711 -1.6609
 4564TIP3   OH237886   5.117   1.628  17.704 -0.7240  0.0365 -0.4855
 4564TIP3    H137887   5.084   1.541  17.726 -1.3029  0.2209 -0.6124
 4564TIP3    H237888   5.180   1.612  17.633 -0.7522 -0.2859 -0.4420
 4565TIP3   OH237889   1.027   1.959  16.291  0.0556 -0.4947  0.0162
 4565TIP3    H137890   1.114   1.966  16.330 -0.9316  1.7840  2.1388
 4565TIP3    H237891   1.036   1.998  16.204  1.3474 -1.2928 -0.2317
 4566TIP3   OH237892   0.399   7.945  15.892 -0.3080  0.2040 -0.6187
 4566TIP3    H137893   0.373   7.958  15.983  0.1443 -0.0405 -0.4498
 4566TIP3    H237894   0.357   7.863  15.866 -0.8013  0.5004 -0.7747
 4567TIP3   OH237895   2.955   8.350  17.041 -0.2506  0.1528  0.0109
 4567TIP3    H137896   2.939   8.397  16.960  0.6790 -0.2249 -0.4064
 4567TIP3    H237897   2.991   8.415  17.100 -0.3510  0.2878 -0.0758
 4568TIP3   OH237898   6.349   6.194  16.917 -0.1596 -0.6218 -0.4603
 4568TIP3    H137899   6.378   6.286  16.914 -0.0260 -0.6189  0.6920
 4568TIP3    H237900   6.340   6.170  16.825  1.1958  0.1176 -0.8262
 4569TIP3   OH237901   5.721   6.093  17.461  0.1047  0.3239  0.2598
 4569TIP3    H137902   5.795   6.076  17.403  0.3116 -0.4865  0.7436
 4569TIP3    H237903   5.720   6.018  17.521 -2.4863 -0.8694 -1.1332
 4570TIP3   OH237904   6.611   6.035  16.936 -0.3687  0.0702 -0.1041
 4570TIP3    H137905   6.562   6.116  16.923  0.4013  0.7380  1.0643
 4570TIP3    H237906   6.634   6.035  17.029 -1.5875 -2.1841  0.2926
 4571TIP3   OH237907   0.776   6.054  17.117  0.7271 -0.3670  0.0850
 4571TIP3    H137908   0.755   6.146  17.100  0.1123 -0.6732 -0.8917
 4571TIP3    H237909   0.800   6.052  17.210  0.7435  0.7742  0.1235
 4572TIP3   OH237910   3.703   0.539  16.199 -0.3963 -0.5567 -0.1291
 4572TIP3    H137911   3.790   0.579  16.209  0.0715 -1.7289  0.7404
 4572TIP3    H237912   3.642   0.608  16.226  0.2751  0.1640 -0.4025
 4573TIP3   OH237913   4.979   1.129  17.773 -0.1003  1.0451  0.5739
 4573TIP3    H137914   4.997   1.105  17.682  0.9478  2.3291  0.4229
 4573TIP3    H237915   4.970   1.045  17.818  2.2026  0.3089 -0.1758
 4574TIP3   OH237916   1.672   5.361  17.432 -0.0893 -0.2535 -0.0385
 4574TIP3    H137917   1.623   5.365  17.350 -1.1085 -2.1583  0.4107
 4574TIP3    H237918   1.759   5.395  17.409 -1.3231  2.5403 -1.0194
 4575TIP3   OH237919   7.429   6.185  16.762  0.4054  0.0872  0.1436
 4575TIP3    H137920   7.443   6.112  16.702 -1.9930  0.9133 -1.5767
 4575TIP3    H237921   7.429   6.262  16.705  0.2911  1.1728  1.5586
 4576TIP3   OH237922   6.330   7.343  15.830 -0.3540  0.1682 -0.2886
 4576TIP3    H137923   6.272   7.315  15.901  1.4006 -1.7039  0.5096
 4576TIP3    H237924   6.271   7.364  15.758 -2.0829 -0.1960  0.9479
 4577TIP3   OH237925   2.796   3.488  16.248 -0.0645 -0.1929  0.1450
 4577TIP3    H137926   2.718   3.543  16.243 -0.3839 -0.6817 -0.5280
 4577TIP3    H237927   2.806   3.453  16.159  3.0951  2.7838 -0.9198
 4578TIP3   OH237928   2.391   6.864  17.603  0.3718  0.5237  0.5817
 4578TIP3    H137929   2.356   6.797  17.545  0.7152  1.4899 -0.7880
 4578TIP3    H237930   2.392   6.823  17.689 -2.0759 -0.2667  0.3162
 4579TIP3   OH237931   3.487   0.684  16.871 -0.1068 -0.1237  0.1245
 4579TIP3    H137932   3.398   0.697  16.904 -0.5394 -0.6179 -0.8110
 4579TIP3    H237933   3.529   0.629  16.937 -0.8989 -0.9360 -0.0264
 4580TIP3   OH237934   2.413   5.063  15.829  0.3288  0.5505 -0.0364
 4580TIP3    H137935   2.469   5.016  15.768 -0.7711 -0.8185 -0.0635
 4580TIP3    H237936   2.470   5.086  15.902  1.0746 -0.1794 -0.3801
 4581TIP3   OH237937   6.353   5.719  16.831  0.4679 -0.3631  0.2052
 4581TIP3    H137938   6.310   5.727  16.916 -0.8191  0.1526 -0.4679
 4581TIP3    H237939   6.446   5.724  16.851  0.1720  0.2879  1.5279
 4582TIP3   OH237940   2.196   4.958  16.784 -0.5951  0.2393 -0.2174
 4582TIP3    H137941   2.228   4.884  16.834  1.3797  1.5036  0.5227
 4582TIP3    H237942   2.202   5.032  16.845  0.5922  1.5655 -1.8357
 4583TIP3   OH237943   2.728   6.157  16.058 -0.1195  0.1721 -0.1979
 4583TIP3    H137944   2.733   6.104  15.978  1.6227  1.8617 -1.2994
 4583TIP3    H237945   2.670   6.229  16.036  0.1674  0.5139  0.1613
 4584TIP3   OH237946   5.035   1.646  15.994  0.0728 -0.7016  0.6103
 4584TIP3    H137947   5.128   1.665  16.006 -0.3649  0.5776  2.1416
 4584TIP3    H237948   4.997   1.728  15.962 -1.0090 -0.3083  2.7622
 4585TIP3   OH237949   5.032   1.708  17.248  0.0945 -0.2659  0.3435
 4585TIP3    H137950   4.960   1.752  17.294  0.1417 -4.4001  5.2789
 4585TIP3    H237951   4.992   1.630  17.210  1.2987 -0.3774 -0.7307
 4586TIP3   OH237952   4.658   7.656  16.737  0.4574  0.2077  0.4962
 4586TIP3    H137953   4.664   7.731  16.677  3.4498 -0.3927 -0.1349
 4586TIP3    H237954   4.658   7.580  16.679 -2.0707 -0.3807  1.1523
 4587TIP3   OH237955   7.083   7.343  17.770 -0.0163  0.7032  0.2392
 4587TIP3    H137956   7.049   7.258  17.798 -1.4709  0.7435 -1.2770
 4587TIP3    H237957   7.052   7.404  17.837 -2.0087  0.5415 -0.4574
 4588TIP3   OH237958   1.076   3.734  16.207  0.1337  0.3857  0.2553
 4588TIP3    H137959   0.993   3.755  16.163 -0.1197 -0.2474  0.4110
 4588TIP3    H237960   1.094   3.644  16.181 -0.2163 -0.1380  1.7349
 4589TIP3   OH237961   0.946   3.659  17.174 -0.2319 -0.5310 -0.2324
 4589TIP3    H137962   0.882   3.723  17.145  0.3638  0.6425  0.9363
 4589TIP3    H237963   0.952   3.672  17.269  2.1352 -0.2068 -0.3755
 4590TIP3   OH237964   3.043   4.387  16.934  0.4395 -0.4031  0.1770
 4590TIP3    H137965   3.037   4.445  17.009  0.2234 -0.9480  0.5889
 4590TIP3    H237966   3.061   4.301  16.971 -0.0473 -0.7489 -0.3602
 4591TIP3   OH237967   0.243   6.813  15.590  0.1557 -0.5965 -0.2169
 4591TIP3    H137968   0.302   6.887  15.575  0.8877 -1.0151  0.4807
 4591TIP3    H237969   0.290   6.737  15.555  0.6465 -1.1415  1.5035
 4592TIP3   OH237970   4.067   2.484  17.353  0.1626 -0.5727 -0.3526
 4592TIP3    H137971   4.017   2.403  17.359 -1.0062  0.1872  0.6212
 4592TIP3    H237972   4.030   2.530  17.278 -1.0137  0.2280  0.6843
 4593TIP3   OH237973   5.386   7.460  16.321 -0.3571  0.0100  0.1619
 4593TIP3    H137974   5.352   7.534  16.372 -2.1612 -1.1627  0.7475
 4593TIP3    H237975   5.341   7.467  16.237  0.3302  0.1996 -0.2017
 4594TIP3   OH237976   7.982   7.003  16.402 -0.2741  0.0531 -0.3433
 4594TIP3    H137977   7.892   6.996  16.431 -0.1743 -2.1347 -0.3830
 4594TIP3    H237978   8.027   6.930  16.446  2.0708  2.5037  1.6469
 4595TIP3   OH237979   6.535   3.376  17.872 -0.1608 -0.2716  0.2433
 4595TIP3    H137980   6.450   3.362  17.915 -0.5493 -0.4956 -0.5911
 4595TIP3    H237981   6.550   3.296  17.821  1.1270 -0.7548  1.3106
 4596TIP3   OH237982   7.803   7.872  15.839 -0.1682  0.2302  0.4493
 4596TIP3    H137983   7.891   7.869  15.801  0.1607 -1.4595  1.2622
 4596TIP3    H237984   7.807   7.945  15.902  1.4285 -1.2426  2.1694
 4597TIP3   OH237985   7.203   1.561  17.620 -0.7114  0.4872 -0.2397
 4597TIP3    H137986   7.269   1.522  17.562 -0.6899 -0.4466  0.3828
 4597TIP3    H237987   7.243   1.558  17.707 -1.8209 -0.7417  0.2672
 4598TIP3   OH237988   8.066   1.364  17.831  0.7230 -0.1337 -0.4050
 4598TIP3    H137989   8.021   1.410  17.902 -0.2012  2.1565 -2.3126
 4598TIP3    H237990   8.050   1.272  17.848  0.0588  0.3656  2.0268
 4599TIP3   OH237991   4.009   2.960  17.202 -0.2570 -0.3883  0.3769
 4599TIP3    H137992   3.996   2.933  17.111 -0.7797 -0.9169  0.5980
 4599TIP3    H237993   3.926   2.939  17.245 -0.7387  1.6747  0.5512
 4600TIP3   OH237994   2.365   1.690  17.057  0.0259 -0.0360 -0.0783
 4600TIP3    H137995   2.445   1.640  17.038  0.6547  0.0772  1.9764
 4600TIP3    H237996   2.294   1.628  17.040  0.7297 -1.2077  1.0398
 4601TIP3   OH237997   4.382   2.357  15.682  0.0482 -0.2850  0.3896
 4601TIP3    H137998   4.477   2.347  15.676 -0.1224 -1.2058 -1.0999
 4601TIP3    H237999   4.356   2.399  15.600 -0.9646 -1.1560  0.2386
 4602TIP3   OH238000   8.046   6.596  15.749  0.2662  0.0444 -0.0744
 4602TIP3    H138001   8.023   6.550  15.668 -1.1494 -0.7385  0.7302
 4602TIP3    H238002   8.032   6.689  15.728 -0.4040 -0.1691 -0.6452
 4603TIP3   OH238003   5.813   5.128  16.131  0.3365 -0.3027 -0.1993
 4603TIP3    H138004   5.892   5.177  16.153 -0.8473  0.9506  1.5329
 4603TIP3    H238005   5.747   5.159  16.194 -0.9300 -2.9197 -0.1006
 4604TIP3   OH238006   1.050   6.877  16.635  0.5274  0.1621  0.5778
 4604TIP3    H138007   1.046   6.810  16.566  1.1096 -0.1222  0.8155
 4604TIP3    H238008   0.979   6.853  16.695 -0.5533  0.9094 -0.3495
 4605TIP3   OH238009   4.730   7.203  17.193  0.9288 -0.7605  0.1080
 4605TIP3    H138010   4.730   7.285  17.143  0.5344  1.2792  3.1876
 4605TIP3    H238011   4.810   7.158  17.167  1.5274  0.9593 -1.1506
 4606TIP3   OH238012   0.813   2.567  18.166  0.1302 -0.2128 -0.2736
 4606TIP3    H138013   0.899   2.596  18.196 -0.0999  0.7179 -0.4659
 4606TIP3    H238014   0.782   2.639  18.109 -1.5974  0.4030  1.3467
 4607TIP3   OH238015   2.452   2.700  16.358 -0.1782 -0.1728 -0.0423
 4607TIP3    H138016   2.504   2.761  16.410  0.8010 -0.2042 -0.9403
 4607TIP3    H238017   2.384   2.755  16.317 -0.8964 -0.1360  1.1495
 4608TIP3   OH238018   1.494   4.529  15.600 -0.3184 -0.3402  0.2983
 4608TIP3    H138019   1.481   4.607  15.547  0.0571 -0.6678 -0.2844
 4608TIP3    H238020   1.432   4.465  15.564  0.0746 -0.6256  0.1246
 4609TIP3   OH238021   0.101   6.915  16.882 -0.1677 -0.4721 -0.9586
 4609TIP3    H138022   0.106   6.850  16.952 -1.3759 -0.0873 -0.4883
 4609TIP3    H238023   0.073   6.996  16.926 -0.9722 -0.2267 -1.8796
 4610TIP3   OH238024   4.847   5.964  17.328 -0.0810  0.7327 -0.5040
 4610TIP3    H138025   4.831   5.870  17.336  1.6844  0.3184 -1.2859
 4610TIP3    H238026   4.837   5.997  17.417 -1.3253 -0.0812 -0.3271
 4611TIP3   OH238027   4.384   2.137  17.256 -0.6315 -0.1573 -0.0990
 4611TIP3    H138028   4.371   2.153  17.162 -0.0089  1.7618  0.0936
 4611TIP3    H238029   4.306   2.174  17.297 -0.2341  0.3400  0.2225
 4612TIP3   OH238030   2.852   1.345  17.245 -0.2650 -0.1897 -0.3312
 4612TIP3    H138031   2.908   1.421  17.261 -0.2964  0.2132 -1.9864
 4612TIP3    H238032   2.772   1.382  17.208 -0.7254 -0.9467 -0.1054
 4613TIP3   OH238033   1.957   5.005  17.318 -0.0581  0.6853 -0.3114
 4613TIP3    H138034   1.863   5.018  17.304  0.0918  0.6827 -1.4195
 4613TIP3    H238035   1.972   5.034  17.407 -0.6832  3.0878 -0.9132
 4614TIP3   OH238036   8.138   5.904  16.908 -0.5818 -0.0897  0.2820
 4614TIP3    H138037   8.167   5.869  16.993 -0.3274 -1.2047 -0.2492
 4614TIP3    H238038   8.193   5.982  16.895  0.4094 -0.7363  0.4710
 4615TIP3   OH238039   5.901   7.999  16.435 -0.8505 -0.8774 -0.9303
 4615TIP3    H138040   5.956   7.972  16.361  0.0905 -0.7675 -0.3005
 4615TIP3    H238041   5.963   8.038  16.497 -1.7626 -0.0299 -0.5213
 4616TIP3   OH238042   5.094   8.141  17.218 -0.0805 -0.5061 -0.4207
 4616TIP3    H138043   5.109   8.202  17.290 -1.0615 -2.1844  1.2875
 4616TIP3    H238044   5.030   8.185  17.162 -2.1737 -0.5928  1.7302
 4617TIP3   OH238045   6.889   0.949  16.941  0.5337  0.0382 -0.0883
 4617TIP3    H138046   6.811   0.895  16.956 -1.2924  1.7196 -2.7784
 4617TIP3    H238047   6.908   0.988  17.027 -2.2249  0.3501  0.4679
 4618TIP3   OH238048   1.204   1.818  16.580 -0.3896 -0.6785  0.5727
 4618TIP3    H138049   1.125   1.801  16.530  0.1299 -1.7059  0.0701
 4618TIP3    H238050   1.173   1.849  16.665 -1.3922 -2.2011  0.8111
 4619TIP3   OH238051   4.378   3.931  16.200  0.2892  0.4021 -0.2584
 4619TIP3    H138052   4.369   3.841  16.167 -1.1291  0.6180 -0.5102
 4619TIP3    H238053   4.456   3.928  16.255  1.6179 -0.4373 -2.0685
 4620TIP3   OH238054   7.737   4.862  16.572 -0.4080 -0.6866  0.9901
 4620TIP3    H138055   7.652   4.879  16.531  0.2369  0.9325  0.2008
 4620TIP3    H238056   7.763   4.776  16.539 -0.2399  0.2279 -1.5520
 4621TIP3   OH238057   7.640   0.889  17.061  0.2143 -0.1058 -0.8855
 4621TIP3    H138058   7.675   0.976  17.043  1.2376  0.0094  1.2720
 4621TIP3    H238059   7.635   0.885  17.157  1.7214 -2.9697 -0.8193
 4622TIP3   OH238060   8.159   0.831  17.913  0.0057 -0.0789 -0.3849
 4622TIP3    H138061   8.152   0.872  17.827  0.4461  1.1795  0.1493
 4622TIP3    H238062   8.240   0.779  17.908 -0.5662 -0.9346 -1.0741
 4623TIP3   OH238063   4.102   8.414  17.287 -0.0164 -0.6801 -0.1370
 4623TIP3    H138064   4.040   8.457  17.228 -1.9275 -1.4876  1.2029
 4623TIP3    H238065   4.118   8.479  17.356 -0.2533 -0.8881  0.1147
 4624TIP3   OH238066   2.076   3.521  16.493  0.5543  0.1173 -0.2998
 4624TIP3    H138067   2.152   3.540  16.548  1.1403 -0.0719 -1.0154
 4624TIP3    H238068   2.097   3.560  16.408  0.3437 -0.8794 -0.8276
 4625TIP3   OH238069   6.731   1.824  16.474 -0.1219  0.3481 -0.5420
 4625TIP3    H138070   6.690   1.906  16.446 -1.8282 -1.0628 -2.5064
 4625TIP3    H238071   6.693   1.806  16.560 -0.6434  1.0226 -0.6249
 4626TIP3   OH238072   1.648   0.355  17.365  0.1111 -0.6160  0.6408
 4626TIP3    H138073   1.647   0.288  17.297 -0.5173 -1.7709  1.7435
 4626TIP3    H238074   1.718   0.327  17.425  1.3225  0.9115 -0.0064
 4627TIP3   OH238075   1.540   5.777  16.295  0.6391 -0.1697  0.5560
 4627TIP3    H138076   1.534   5.816  16.382 -0.8963  0.1867  0.3205
 4627TIP3    H238077   1.459   5.728  16.285  0.3643  0.5467 -1.0205
 4628TIP3   OH238078   7.254   3.180  17.677  0.0681  0.0106  0.0372
 4628TIP3    H138079   7.248   3.087  17.702 -0.1938 -0.6049 -2.1159
 4628TIP3    H238080   7.331   3.184  17.620  0.7864  1.3866  1.0527
 4629TIP3   OH238081   1.345   7.538  16.805 -0.7649 -0.4017  0.6516
 4629TIP3    H138082   1.298   7.583  16.734  1.9222  1.4433 -0.1015
 4629TIP3    H238083   1.312   7.580  16.885  0.7860  2.2359  0.0327
 4630TIP3   OH238084   0.686   6.905  17.317  0.2411  0.2338 -0.3881
 4630TIP3    H138085   0.598   6.886  17.351  0.1657  0.6818 -0.3221
 4630TIP3    H238086   0.745   6.866  17.381  0.0969 -0.6983 -0.8010
 4631TIP3   OH238087   0.096   8.297  15.733  0.1930  0.6954 -0.4041
 4631TIP3    H138088   0.189   8.290  15.711 -0.0353  0.2223 -1.2781
 4631TIP3    H238089   0.094   8.299  15.828  1.0338 -0.2868 -0.3511
 4632TIP3   OH238090   3.350   5.374  15.722 -0.0134  0.0663  0.4548
 4632TIP3    H138091   3.398   5.291  15.713  1.5763  0.9852  0.2416
 4632TIP3    H238092   3.417   5.442  15.717 -1.6129  1.5918 -2.9688
 4633TIP3   OH238093   8.175   0.541  16.904 -0.4046  0.0642 -0.8334
 4633TIP3    H138094   8.140   0.609  16.847  1.9769  0.8092 -1.5140
 4633TIP3    H238095   8.189   0.466  16.847  0.2673  0.1989 -0.8532
 4634TIP3   OH238096   4.882   6.003  16.400 -0.2383  0.4961  0.3078
 4634TIP3    H138097   4.800   6.005  16.350 -0.1447 -0.1063  0.1161
 4634TIP3    H238098   4.925   6.085  16.377 -0.5217  0.5525 -0.0497
 4635TIP3   OH238099   6.771   5.652  17.965 -0.2330 -0.2329 -0.1973
 4635TIP3    H138100   6.836   5.699  17.913 -0.1423  0.9821  0.9469
 4635TIP3    H238101   6.821   5.615  18.038 -0.5939 -0.5598 -0.1107
 4636TIP3   OH238102   6.111   7.737  17.479  0.2988  0.5923  0.3503
 4636TIP3    H138103   6.089   7.645  17.486 -0.0084  0.5532 -0.9051
 4636TIP3    H238104   6.078   7.777  17.560 -1.5764 -0.0008 -0.0934
 4637TIP3   OH238105   2.524   1.626  16.416  0.6911 -0.2329  0.3437
 4637TIP3    H138106   2.598   1.574  16.449  0.6830 -1.4112 -1.3820
 4637TIP3    H238107   2.450   1.566  16.416  0.4919 -0.0052 -0.9304
 4638TIP3   OH238108   5.556   6.024  17.872  0.6856  0.4357 -0.1933
 4638TIP3    H138109   5.608   5.983  17.804 -0.2697  1.1302 -1.3878
 4638TIP3    H238110   5.591   6.113  17.879  0.5166  0.4934 -0.0799
 4639TIP3   OH238111   3.530   3.727  17.646 -0.6893  0.6460  0.2336
 4639TIP3    H138112   3.550   3.640  17.679  0.0902  0.8130  0.2268
 4639TIP3    H238113   3.477   3.767  17.714  1.8256  1.3879  1.8763
 4640TIP3   OH238114   4.605   5.933  17.542 -0.4471 -0.6823  0.5471
 4640TIP3    H138115   4.539   5.999  17.521 -0.0721  0.3469  2.4010
 4640TIP3    H238116   4.682   5.985  17.566  1.1622 -1.8369 -1.7392
 4641TIP3   OH238117   0.273   0.895  16.519  0.4321  0.2355  0.3021
 4641TIP3    H138118   0.289   0.849  16.437  1.9352 -0.3020  0.8603
 4641TIP3    H238119   0.185   0.933  16.509  0.8541  0.7739 -1.8131
 4642TIP3   OH238120   3.386   1.363  17.942  0.5540  0.0574 -0.2644
 4642TIP3    H138121   3.480   1.351  17.957  0.3236 -1.8958 -0.0780
 4642TIP3    H238122   3.348   1.364  18.030  0.3889  0.7659 -0.3418
 4643TIP3   OH238123   4.774   6.383  16.725  0.7698  0.2166  0.1558
 4643TIP3    H138124   4.763   6.420  16.637 -1.0189 -1.2190 -0.2852
 4643TIP3    H238125   4.719   6.438  16.781 -0.0986 -0.3705 -0.0983
 4644TIP3   OH238126   0.680   3.235  16.424  0.1147 -0.0901  0.0289
 4644TIP3    H138127   0.773   3.222  16.405  0.6207  0.2460  1.9950
 4644TIP3    H238128   0.666   3.189  16.507 -0.7273  2.2829  1.3238
 4645TIP3   OH238129   0.368   2.798  17.412 -0.3791 -0.0042 -0.2869
 4645TIP3    H138130   0.385   2.860  17.483 -1.5665 -0.7066  0.6299
 4645TIP3    H238131   0.280   2.819  17.382 -0.3058 -0.4327 -0.8090
 4646TIP3   OH238132   6.713   5.288  16.485  0.0155  0.3818 -0.2140
 4646TIP3    H138133   6.782   5.288  16.418 -0.6657 -0.2441 -0.9308
 4646TIP3    H238134   6.730   5.367  16.536 -0.0591  1.4542 -1.7734
 4647TIP3   OH238135   6.340   6.418  16.570 -0.2197 -0.2029  0.0832
 4647TIP3    H138136   6.344   6.419  16.475  0.2685 -1.6700  0.0546
 4647TIP3    H238137   6.399   6.488  16.597 -1.0415  0.8050 -0.6811
 4648TIP3   OH238138   1.275   3.101  17.842 -0.0516  0.7027 -0.3276
 4648TIP3    H138139   1.257   3.054  17.760 -3.4713 -0.1701  0.7668
 4648TIP3    H238140   1.368   3.124  17.836  0.3800 -1.2104 -3.4606
 4649TIP3   OH238141   4.536   3.894  17.245  0.4109 -0.1386  0.7175
 4649TIP3    H138142   4.499   3.961  17.188  1.1347 -0.3099  0.0304
 4649TIP3    H238143   4.467   3.876  17.309 -0.2414  0.3814  0.1722
 4650TIP3   OH238144   6.416   7.824  16.093  0.0808  0.0780  0.2110
 4650TIP3    H138145   6.345   7.861  16.145 -1.6741 -1.6437 -0.8148
 4650TIP3    H238146   6.377   7.806  16.007  1.3945 -1.9765 -0.0428
 4651TIP3   OH238147   2.429   5.694  17.176  0.6351  0.0644 -0.1823
 4651TIP3    H138148   2.340   5.662  17.189  0.6289  0.8619  2.1880
 4651TIP3    H238149   2.480   5.615  17.157 -0.3182 -0.6295  0.0777
 4652TIP3   OH238150   4.928   2.188  16.986 -0.0456  0.0444  0.1230
 4652TIP3    H138151   4.913   2.144  17.070  0.7975  0.1544  0.3319
 4652TIP3    H238152   4.939   2.280  17.008 -2.6332  0.5492 -0.3949
 4653TIP3   OH238153   1.446   3.973  17.254  0.7536  0.0842  0.5893
 4653TIP3    H138154   1.417   3.882  17.253 -0.7431  0.5417  0.3324
 4653TIP3    H238155   1.440   4.001  17.163  1.8010  0.2820  0.5634
 4654TIP3   OH238156   5.548   0.051  16.431 -0.0723  0.5328 -0.4207
 4654TIP3    H138157   5.594  -0.006  16.492 -2.0803 -0.8770 -0.1365
 4654TIP3    H238158   5.562   0.011  16.345 -1.5521 -0.5220 -0.2109
 4655TIP3   OH238159   4.848   0.498  16.688  0.1923 -0.1919  0.3223
 4655TIP3    H138160   4.781   0.442  16.650  0.3065 -0.5972  0.7013
 4655TIP3    H238161   4.897   0.440  16.747  1.0350  0.0272 -0.1405
 4656TIP3   OH238162   3.576   2.877  17.899  0.5576  0.2011  0.8501
 4656TIP3    H138163   3.525   2.953  17.871  1.6293  1.3790  1.9093
 4656TIP3    H238164   3.653   2.877  17.841  0.0470 -0.7419  0.1512
 4657TIP3   OH238165   6.651   7.164  16.557  0.2039  0.1614  0.7229
 4657TIP3    H138166   6.706   7.229  16.514  2.1172 -1.1558  1.0200
 4657TIP3    H238167   6.712   7.112  16.609 -1.3658 -1.2760  1.2272
 4658TIP3   OH238168   7.960   2.759  17.023 -0.0321 -0.1175 -0.3467
 4658TIP3    H138169   8.055   2.762  17.024 -0.0436  0.1730  0.2887
 4658TIP3    H238170   7.934   2.841  16.983 -0.0498  1.2697  2.2871
 4659TIP3   OH238171   1.926   5.405  16.000 -0.1464  0.3062  0.4268
 4659TIP3    H138172   1.952   5.363  16.082  1.0272 -4.7261 -2.1164
 4659TIP3    H238173   2.006   5.447  15.968  0.3414 -0.6280  0.3842
 4660TIP3   OH238174   1.709   6.689  17.338  0.2134  1.0646 -0.1596
 4660TIP3    H138175   1.722   6.742  17.259  0.4360  1.2964  0.0304
 4660TIP3    H238176   1.699   6.753  17.408 -1.1543  0.8891 -0.1676
 4661TIP3   OH238177   7.309   2.699  16.785  0.3659 -0.0529  0.2323
 4661TIP3    H138178   7.389   2.648  16.796  0.8866  0.8177  0.5984
 4661TIP3    H238179   7.288   2.728  16.874 -0.3301 -0.2311  0.1270
 4662TIP3   OH238180   5.840   2.599  17.402 -0.2507  0.2891  0.0313
 4662TIP3    H138181   5.815   2.512  17.431  0.4184 -0.2313 -0.9329
 4662TIP3    H238182   5.773   2.657  17.440 -0.4599 -0.5785  1.0153
 4663TIP3   OH238183   4.885   6.170  15.930 -0.3931 -0.2791 -0.2852
 4663TIP3    H138184   4.843   6.136  15.850  0.4627  0.6994 -1.1839
 4663TIP3    H238185   4.950   6.232  15.898  0.2982 -0.2162  1.1750
 4664TIP3   OH238186   3.101   0.839  16.467  0.1555 -0.2005 -0.1079
 4664TIP3    H138187   3.163   0.772  16.437  2.8256  1.3309  1.5553
 4664TIP3    H238188   3.155   0.916  16.483 -2.3665  1.5264  0.7389
 4665TIP3   OH238189   7.560   2.800  16.925 -0.8114  0.1706 -1.0559
 4665TIP3    H138190   7.603   2.816  16.841  0.3871  0.3866 -0.4320
 4665TIP3    H238191   7.537   2.888  16.957  1.0385  0.3245 -0.0218
 4666TIP3   OH238192   2.026   6.271  17.552 -0.3610 -0.3095  0.5354
 4666TIP3    H138193   2.031   6.347  17.610  0.4318 -0.8418  1.1875
 4666TIP3    H238194   1.958   6.293  17.489 -0.2933  0.8480  0.8496
 4667TIP3   OH238195   4.953   3.122  16.804 -0.5270 -0.0668  0.0270
 4667TIP3    H138196   5.048   3.134  16.800 -0.4084 -0.6378  0.9405
 4667TIP3    H238197   4.940   3.055  16.870 -1.4791 -1.2336 -1.2742
 4668TIP3   OH238198   4.115   2.606  16.149 -0.1577 -0.7812  0.0997
 4668TIP3    H138199   4.112   2.552  16.069 -0.3636 -0.1802 -0.3067
 4668TIP3    H238200   4.189   2.571  16.198  0.9082 -0.2245 -1.0465
 4669TIP3   OH238201   7.812   1.700  17.161  0.0294  0.1765 -0.2993
 4669TIP3    H138202   7.734   1.745  17.194  0.0972  0.6984 -0.8427
 4669TIP3    H238203   7.851   1.660  17.239 -0.3256  0.6127  0.1097
 4670TIP3   OH238204   5.071   7.934  16.159 -0.3743 -0.2997 -0.3460
 4670TIP3    H138205   4.978   7.954  16.162 -0.6703 -1.7591  1.7168
 4670TIP3    H238206   5.076   7.849  16.115 -0.1675 -0.8899  0.7909
 4671TIP3   OH238207   5.414   4.020  16.453  0.2691  0.1850  0.3444
 4671TIP3    H138208   5.456   4.091  16.406  1.2935 -0.1700  0.7009
 4671TIP3    H238209   5.478   3.949  16.453 -0.2609 -0.3135  1.0380
 4672TIP3   OH238210   0.102   4.903  15.653  0.0731 -0.0611  0.0775
 4672TIP3    H138211   0.136   4.834  15.596 -0.0296  0.7328 -0.9850
 4672TIP3    H238212   0.021   4.867  15.690 -1.2262  0.2740 -2.2489
 4673TIP3   OH238213   1.687   7.302  15.997 -0.0151  0.7040 -1.0564
 4673TIP3    H138214   1.657   7.376  15.944  2.2276  1.2236 -1.6867
 4673TIP3    H238215   1.750   7.340  16.058 -0.1381 -0.4234 -0.2018
 4674TIP3   OH238216   3.482   4.308  16.519  0.1121 -0.1113  0.1433
 4674TIP3    H138217   3.520   4.343  16.600  0.2609  0.2285 -0.0737
 4674TIP3    H238218   3.388   4.325  16.528  0.1134 -0.1828  0.2976
 4675TIP3   OH238219   2.908   8.198  17.284 -0.3068  0.3340 -0.1052
 4675TIP3    H138220   2.911   8.249  17.204  0.3709  0.9695  0.3079
 4675TIP3    H238221   2.891   8.263  17.353  0.1310 -0.0459  0.3745
 4676TIP3   OH238222   1.257   2.934  17.630  0.1525  0.0356 -0.2645
 4676TIP3    H138223   1.276   2.840  17.630  1.3242  0.2427  1.2584
 4676TIP3    H238224   1.246   2.956  17.537 -1.3482 -1.8117 -0.5888
 4677TIP3   OH238225   5.733   3.941  15.947  0.3809  0.4241 -0.7314
 4677TIP3    H138226   5.711   3.851  15.921 -1.2235  0.6870 -0.3489
 4677TIP3    H238227   5.779   3.977  15.871  1.0624 -0.7110 -0.8835
 4678TIP3   OH238228   0.632   2.569  16.872  0.5765 -0.2917 -0.1776
 4678TIP3    H138229   0.680   2.623  16.935  1.7178 -0.6643 -0.6960
 4678TIP3    H238230   0.611   2.489  16.920  0.7351 -0.2465 -0.0319
 4679TIP3   OH238231   5.728   0.437  17.335  0.0321  0.3090  0.5084
 4679TIP3    H138232   5.676   0.446  17.255  2.3213  0.7043 -1.0448
 4679TIP3    H238233   5.711   0.348  17.366 -1.3968  0.3753 -0.0424
 4680TIP3   OH238234   2.044   3.428  17.205  0.5074 -0.4542  0.3430
 4680TIP3    H138235   1.962   3.478  17.199  0.7259 -0.2095 -0.8512
 4680TIP3    H238236   2.111   3.488  17.171  0.8504 -1.3941 -0.6924
 4681TIP3   OH238237   0.929   1.797  17.648  0.2997  0.0825  0.4983
 4681TIP3    H138238   0.974   1.720  17.683 -0.6123 -2.2406 -2.9534
 4681TIP3    H238239   0.841   1.792  17.686  0.1881 -0.7089  0.1537
 4682TIP3   OH238240   1.812   0.738  16.981  0.6758 -0.0470 -0.2726
 4682TIP3    H138241   1.856   0.792  17.047  1.8228 -0.9160 -0.2932
 4682TIP3    H238242   1.812   0.650  17.019 -0.9700 -0.0999 -0.3391
 4683TIP3   OH238243   5.202   0.465  16.904  0.0898 -0.6103 -0.3460
 4683TIP3    H138244   5.264   0.465  16.977  0.0976 -0.0281 -0.3517
 4683TIP3    H238245   5.256   0.476  16.826 -0.0580  0.5080 -0.3082
 4684TIP3   OH238246   4.649   2.383  17.520  0.7101 -0.0443 -0.0625
 4684TIP3    H138247   4.645   2.420  17.432 -1.1713 -0.4165 -0.1916
 4684TIP3    H238248   4.567   2.411  17.561 -1.1311 -4.2422 -0.3163
 4685TIP3   OH238249   0.494   1.612  17.668 -0.0899 -0.3716 -0.2666
 4685TIP3    H138250   0.421   1.605  17.730  0.3912  0.6889  0.4523
 4685TIP3    H238251   0.542   1.531  17.679  0.7464  0.3234  1.7815
 4686TIP3   OH238252   7.219   0.516  17.487 -0.4614 -0.1753  0.4405
 4686TIP3    H138253   7.201   0.431  17.446 -1.1826 -0.7857  1.9423
 4686TIP3    H238254   7.190   0.580  17.423  0.4085 -1.0452 -0.8650
 4687TIP3   OH238255   6.880   7.914  17.843 -0.1879  0.2325 -0.4800
 4687TIP3    H138256   6.894   7.858  17.767  2.3670 -0.3371  0.3012
 4687TIP3    H238257   6.867   8.002  17.807 -0.0633 -0.1906 -1.5834
 4688TIP3   OH238258   0.554   3.703  16.880  0.3003  0.3736  0.3020
 4688TIP3    H138259   0.624   3.664  16.828  0.1604 -0.5513  0.7788
 4688TIP3    H238260   0.490   3.633  16.890  0.7004  0.2348  2.4087
 4689TIP3   OH238261   2.610   0.381  17.325 -0.4248 -0.2614  0.6665
 4689TIP3    H138262   2.634   0.342  17.409  0.7252 -1.3653 -0.1274
 4689TIP3    H238263   2.559   0.313  17.281  0.9526 -0.6283 -0.4325
 4690TIP3   OH238264   1.694   3.327  16.769 -0.0850  0.5863  0.3751
 4690TIP3    H138265   1.765   3.321  16.705  0.0217 -0.8028  0.5980
 4690TIP3    H238266   1.616   3.301  16.720 -0.0343 -0.2830  0.7296
 4691TIP3   OH238267   4.698   0.492  18.048  0.0211 -0.5167 -0.2458
 4691TIP3    H138268   4.621   0.468  17.998 -0.5133 -1.1701  0.8495
 4691TIP3    H238269   4.743   0.409  18.064  0.2867 -0.2929  0.1810
 4692TIP3   OH238270   1.323   5.001  16.091  0.1071 -0.2037  0.1425
 4692TIP3    H138271   1.351   4.979  16.179  0.6991 -1.9861 -0.4542
 4692TIP3    H238272   1.228   4.994  16.093 -0.0812  1.8185  1.1232
 4693TIP3   OH238273   7.157   1.383  16.387  0.3047 -0.2667 -0.4732
 4693TIP3    H138274   7.136   1.365  16.479  1.4717 -0.0862 -0.1637
 4693TIP3    H238275   7.131   1.474  16.374 -1.2956 -0.7199 -0.7749
 4694TIP3   OH238276   3.472   5.594  15.972  0.4554 -0.1514 -0.2879
 4694TIP3    H138277   3.520   5.515  15.946  0.8014  0.1930 -0.7177
 4694TIP3    H238278   3.430   5.570  16.054  2.5969 -0.0095  0.9259
 4695TIP3   OH238279   1.042   1.277  16.917 -0.0871 -0.0999 -0.1888
 4695TIP3    H138280   0.967   1.301  16.864  0.1076  0.6165 -0.1455
 4695TIP3    H238281   1.112   1.335  16.888  0.3176 -0.4317  0.1069
 4696TIP3   OH238282   8.266   6.172  15.701 -0.4472  0.3935 -0.2000
 4696TIP3    H138283   8.349   6.126  15.687  0.5896  2.5846 -1.7305
 4696TIP3    H238284   8.221   6.120  15.767  2.0017 -1.0314  0.4626
 4697TIP3   OH238285   1.622   0.874  16.772 -0.0916  1.2767 -0.6685
 4697TIP3    H138286   1.584   0.795  16.734  1.1713 -0.4980  1.4557
 4697TIP3    H238287   1.683   0.841  16.839  0.6792  4.0621  0.1424
 4698TIP3   OH238288   6.793   4.804  15.865  0.4241  0.3065 -0.4921
 4698TIP3    H138289   6.742   4.725  15.850 -0.4215  0.9127 -0.9679
 4698TIP3    H238290   6.742   4.854  15.929  0.4918  0.8434 -0.8452
 4699TIP3   OH238291   0.005   1.057  16.912  0.3191  0.1722 -0.0038
 4699TIP3    H138292  -0.048   0.986  16.949 -0.8065  0.8865 -0.2110
 4699TIP3    H238293  -0.053   1.101  16.850  0.8073  1.6395  0.5399
 4700TIP3   OH238294   0.813   6.724  17.088  0.0089 -0.6141 -0.2724
 4700TIP3    H138295   0.797   6.759  17.176 -1.0933 -0.5730 -0.4746
 4700TIP3    H238296   0.727   6.694  17.058  0.3889 -0.7118 -1.3057
 4701TIP3   OH238297   0.622   1.376  17.478  0.6655  0.1632  0.4902
 4701TIP3    H138298   0.609   1.369  17.573  1.0696 -0.7243  0.4966
 4701TIP3    H238299   0.678   1.453  17.467  0.5958  0.2877  0.9740
 4702TIP3   OH238300   5.797   1.832  15.987  0.0672 -0.2458  0.3871
 4702TIP3    H138301   5.852   1.859  16.061  0.0631 -0.4086  0.4511
 4702TIP3    H238302   5.813   1.898  15.920  1.7709 -1.2613 -0.2834
 4703TIP3   OH238303   1.618   1.199  15.757 -0.1178 -0.0621 -0.1954
 4703TIP3    H138304   1.592   1.290  15.742 -0.0827 -0.2704 -1.6359
 4703TIP3    H238305   1.620   1.190  15.853 -0.2282  1.4105 -0.0357
 4704TIP3   OH238306   7.920   0.348  17.232  0.0818 -0.5135  0.9958
 4704TIP3    H138307   7.948   0.429  17.190 -1.1547 -1.4900 -1.9241
 4704TIP3    H238308   7.965   0.279  17.184 -2.2740 -1.7616  0.4426
 4705TIP3   OH238309   3.581   0.973  16.853 -0.1977 -0.1149 -0.0666
 4705TIP3    H138310   3.596   0.950  16.761  2.6114  0.8785  0.0584
 4705TIP3    H238311   3.570   0.888  16.897  1.0840 -0.7667 -0.9328
 4706TIP3   OH238312   6.894   5.809  17.033  0.0355  0.3468  0.0833
 4706TIP3    H138313   6.958   5.747  17.071  0.0942 -0.2105 -0.8987
 4706TIP3    H238314   6.925   5.823  16.944 -0.6105  0.9386 -0.0492
 4707TIP3   OH238315   1.523   3.542  17.558 -0.8125 -0.7657  0.5524
 4707TIP3    H138316   1.548   3.450  17.551 -0.6127 -0.8163  1.6925
 4707TIP3    H238317   1.510   3.556  17.652 -0.1781  0.5283  0.4702
 4708TIP3   OH238318   0.725   4.442  17.205 -0.2946  0.0120  0.0646
 4708TIP3    H138319   0.706   4.448  17.299  0.0193 -1.6442  0.2594
 4708TIP3    H238320   0.810   4.484  17.195  0.4155 -1.2016  0.8037
 4709TIP3   OH238321   5.696   1.560  16.724  0.6151 -0.0741 -0.2694
 4709TIP3    H138322   5.657   1.646  16.740 -1.3490 -0.7720 -1.0127
 4709TIP3    H238323   5.673   1.541  16.633  1.0638 -1.3574 -0.1266
 4710TIP3   OH238324   6.940   3.879  15.898 -0.2871  0.1543 -0.0213
 4710TIP3    H138325   6.954   3.974  15.906 -3.2265  0.5824  2.0091
 4710TIP3    H238326   6.853   3.872  15.859  1.1626 -1.8985 -3.3056
 4711TIP3   OH238327   3.706   3.112  16.547 -0.1022 -0.4989  0.7807
 4711TIP3    H138328   3.783   3.089  16.494 -1.6387 -0.3250 -1.6792
 4711TIP3    H238329   3.665   3.028  16.567 -0.1692 -0.5011  0.6375
 4712TIP3   OH238330   7.871   5.752  16.094 -0.5533 -0.0741  0.1072
 4712TIP3    H138331   7.821   5.691  16.039  1.0097 -2.4870  1.1708
 4712TIP3    H238332   7.946   5.776  16.040 -0.8286  0.3821 -0.0731
 4713TIP3   OH238333   4.095   7.824  16.846 -0.3217 -0.1901 -0.3958
 4713TIP3    H138334   4.140   7.782  16.919  1.4525  0.1784 -1.2264
 4713TIP3    H238335   4.148   7.901  16.826 -2.8729  1.9373  0.3820
 4714TIP3   OH238336   6.851   6.427  17.714 -0.0400  0.7099  0.6776
 4714TIP3    H138337   6.901   6.358  17.756  0.3618  1.5016  1.5443
 4714TIP3    H238338   6.760   6.398  17.720  0.1670  0.0101  0.5259
 4715TIP3   OH238339   5.522   5.392  17.073  0.3429 -0.2059  0.1798
 4715TIP3    H138340   5.536   5.442  16.992 -1.0028 -2.0869 -1.2931
 4715TIP3    H238341   5.596   5.332  17.077 -1.2355 -2.4286 -1.5683
 4716TIP3   OH238342   5.951   0.624  16.124  0.2325  0.2451 -0.0567
 4716TIP3    H138343   5.910   0.639  16.039 -0.7984 -0.1459  0.3559
 4716TIP3    H238344   6.028   0.680  16.124  0.3424  0.1077 -1.3174
 4717TIP3   OH238345   2.283   3.347  17.645  0.0416  0.8179  0.0179
 4717TIP3    H138346   2.198   3.304  17.659  1.0136 -1.3127 -0.2096
 4717TIP3    H238347   2.306   3.383  17.731 -0.3240 -0.0937  0.5104
 4718TIP3   OH238348   2.024   2.239  15.882 -0.6159 -0.2496 -0.0603
 4718TIP3    H138349   2.030   2.276  15.794  0.1724 -2.4135 -0.9902
 4718TIP3    H238350   1.939   2.196  15.885 -0.0051 -1.5471 -0.3948
 4719TIP3   OH238351   3.059   7.735  17.659 -0.7599  0.2979  0.2646
 4719TIP3    H138352   3.058   7.829  17.677  0.1351  0.0273  1.9842
 4719TIP3    H238353   3.146   7.719  17.622 -1.3072  0.2820 -1.0829
 4720TIP3   OH238354   3.432   4.702  17.718 -0.3977 -0.1431  0.4485
 4720TIP3    H138355   3.371   4.768  17.687  0.3810 -0.2751 -1.4638
 4720TIP3    H238356   3.487   4.681  17.643 -0.4656 -2.8113  1.0185
 4721TIP3   OH238357   0.860   7.576  17.842  0.4178 -0.7452  0.1823
 4721TIP3    H138358   0.801   7.597  17.770  1.1989 -0.0178 -0.2570
 4721TIP3    H238359   0.897   7.491  17.818 -0.4788 -1.2384  0.4920
 4722TIP3   OH238360   4.141   5.919  17.316 -0.6554 -0.1360  0.1370
 4722TIP3    H138361   4.214   5.981  17.306 -0.0581 -1.1139 -2.0128
 4722TIP3    H238362   4.063   5.973  17.304 -0.1638  0.3192 -1.2222
 4723TIP3   OH238363   4.301   5.115  16.242  0.0157  0.1301 -0.3700
 4723TIP3    H138364   4.379   5.169  16.225 -0.6736  0.5891 -2.3760
 4723TIP3    H238365   4.252   5.118  16.160  0.0468 -3.7398 -0.6912
 4724TIP3   OH238366   6.614   5.152  16.723  0.4256  0.3618 -0.3983
 4724TIP3    H138367   6.614   5.198  16.639  0.0466  2.1101  0.5169
 4724TIP3    H238368   6.538   5.187  16.769  0.0024 -1.3659  0.2845
 4725TIP3   OH238369   3.528   4.858  17.175 -0.3766 -0.2991  0.2390
 4725TIP3    H138370   3.521   4.782  17.233 -1.2426 -0.7286 -0.4005
 4725TIP3    H238371   3.479   4.833  17.096 -0.7998  0.9612  0.0684
 4726TIP3   OH238372   1.488   4.426  16.221 -0.1719 -0.2629 -0.4995
 4726TIP3    H138373   1.412   4.449  16.169 -0.7982 -0.5061  0.2927
 4726TIP3    H238374   1.547   4.381  16.160 -0.3807  0.4839 -1.2579
 4727TIP3   OH238375   7.172   0.762  16.544  0.3376 -0.2689 -0.0805
 4727TIP3    H138376   7.107   0.824  16.510 -0.1891  0.5131  2.2174
 4727TIP3    H238377   7.249   0.775  16.488  0.2011  2.4261  0.2411
 4728TIP3   OH238378   7.857   4.412  16.605  0.3596 -0.4775 -0.5489
 4728TIP3    H138379   7.914   4.356  16.657  0.5142 -0.3387 -0.5669
 4728TIP3    H238380   7.911   4.437  16.530  0.0547 -0.8786 -0.9033
 4729TIP3   OH238381   8.109   0.076  17.955  0.4255  0.0216 -0.3254
 4729TIP3    H138382   8.026   0.041  17.924  1.4962 -0.9374 -2.3574
 4729TIP3    H238383   8.127   0.150  17.896  0.7348  0.6067  0.4857
 4730TIP3   OH238384   7.116   2.786  17.462  0.2074 -0.4103  0.0544
 4730TIP3    H138385   7.105   2.881  17.457  0.9716 -0.2902  0.5744
 4730TIP3    H238386   7.035   2.755  17.502 -0.1688 -0.0179 -0.3778
 4731TIP3   OH238387   4.517   0.439  17.843 -0.5971 -0.0221 -0.4193
 4731TIP3    H138388   4.530   0.344  17.836 -0.9869  0.0003 -1.8674
 4731TIP3    H238389   4.530   0.471  17.754  3.7491  1.9066  0.6377
 4732TIP3   OH238390   1.057   2.045  16.010  0.6488  0.1862  0.3121
 4732TIP3    H138391   1.046   2.118  15.950  1.9367  1.2447  1.2802
 4732TIP3    H238392   1.006   1.974  15.972 -0.3918  1.4899 -0.8241
 4733TIP3   OH238393   6.211   3.186  17.650  0.7042 -0.2359  0.2988
 4733TIP3    H138394   6.301   3.155  17.658  1.3951  1.2872 -1.0900
 4733TIP3    H238395   6.201   3.210  17.558 -0.3983  1.6566  0.8409
 4734TIP3   OH238396   1.075   0.928  17.236  0.1435 -0.7195 -0.4274
 4734TIP3    H138397   1.024   0.984  17.177 -1.3175  0.3052  1.6670
 4734TIP3    H238398   1.080   0.844  17.190 -0.7952  0.0680 -2.0710
 4735TIP3   OH238399   4.067   1.271  15.975 -0.1221 -0.1494 -0.1462
 4735TIP3    H138400   3.978   1.300  15.995  0.6150  0.6306  2.2728
 4735TIP3    H238401   4.069   1.180  16.003 -0.1039 -0.1310 -0.0888
 4736TIP3   OH238402   7.812   8.062  16.496  0.5722 -0.3940 -0.1790
 4736TIP3    H138403   7.787   8.155  16.493  1.4836 -0.0966  0.7292
 4736TIP3    H238404   7.796   8.037  16.587  1.5181 -0.7809 -0.1158
 4737TIP3   OH238405   5.561   4.119  16.232  0.2452  0.1877 -0.4283
 4737TIP3    H138406   5.590   4.033  16.202 -0.8496 -0.2952 -0.1376
 4737TIP3    H238407   5.485   4.139  16.178  0.4623  0.9610 -0.4620
 4738TIP3   OH238408   4.629   1.653  17.024 -0.5093  0.2564 -0.1018
 4738TIP3    H138409   4.590   1.587  17.081  1.6774 -0.1373  1.0313
 4738TIP3    H238410   4.625   1.615  16.936 -0.8441 -0.6242  0.2855
 4739TIP3   OH238411   2.800   7.330  15.974  0.5170  1.0243  0.0942
 4739TIP3    H138412   2.876   7.377  15.938 -0.4372  1.2234 -1.7535
 4739TIP3    H238413   2.737   7.327  15.902 -0.6932 -0.3698  1.1516
 4740TIP3   OH238414   0.896   5.711  17.371  0.1811  0.1576  0.6433
 4740TIP3    H138415   0.815   5.701  17.321  0.5841 -0.1328  0.0312
 4740TIP3    H238416   0.921   5.621  17.393  1.1318  0.1200 -0.4894
 4741TIP3   OH238417   1.671   2.076  17.492  0.1451  0.5079  0.5975
 4741TIP3    H138418   1.584   2.048  17.520  1.9160 -3.4885  2.8099
 4741TIP3    H238419   1.702   2.134  17.562  0.0629  0.2400  0.8554
 4742TIP3   OH238420   6.509   3.959  17.935 -0.3785  0.6412  0.0025
 4742TIP3    H138421   6.464   3.943  18.018 -0.5598  0.4633 -0.1287
 4742TIP3    H238422   6.504   3.875  17.889  0.7413  0.4096  0.2948
 4743TIP3   OH238423   7.777   3.272  18.089 -0.7948 -0.5914 -0.6077
 4743TIP3    H138424   7.841   3.262  18.160  1.7733  0.9102 -2.5483
 4743TIP3    H238425   7.797   3.200  18.029 -0.2962  0.3645 -1.6264
 4744TIP3   OH238426   0.941   4.861  16.739  0.0603  0.2854 -0.8099
 4744TIP3    H138427   1.016   4.853  16.681 -1.4418 -1.0749 -2.7345
 4744TIP3    H238428   0.916   4.953  16.734  1.7231  0.8219  0.0987
 4745TIP3   OH238429   6.448   6.111  16.436 -0.1847  0.1825 -0.7875
 4745TIP3    H138430   6.504   6.038  16.411  1.0246  1.3342 -1.5767
 4745TIP3    H238431   6.418   6.148  16.353 -0.2240  0.9797 -0.4294
 4746TIP3   OH238432   5.549   0.502  15.647 -0.6300  0.2630  0.3281
 4746TIP3    H138433   5.456   0.499  15.666 -0.6184  0.5413  0.4419
 4746TIP3    H238434   5.574   0.593  15.666 -0.0498 -0.1528  1.6607
 4747TIP3   OH238435   1.815   4.122  17.023  0.2115 -0.2067 -0.1124
 4747TIP3    H138436   1.879   4.055  16.999  0.7495  0.3543 -0.2533
 4747TIP3    H238437   1.844   4.201  16.977 -1.3812 -0.2790 -1.3613
 4748TIP3   OH238438   3.043   5.447  16.946  0.3533  0.4696 -0.0377
 4748TIP3    H138439   3.043   5.352  16.962  2.2137  0.4693  0.1786
 4748TIP3    H238440   3.103   5.458  16.872  0.2890  1.5009  0.0608
 4749TIP3   OH238441   6.364   0.625  16.894 -0.0118  0.4088 -0.1699
 4749TIP3    H138442   6.358   0.695  16.959 -2.1592  0.7494 -0.6639
 4749TIP3    H238443   6.280   0.626  16.849  0.4909 -1.4608 -1.2834
 4750TIP3   OH238444   2.934   4.054  17.623 -0.0987 -0.0225 -0.0242
 4750TIP3    H138445   2.970   4.077  17.709  2.2556 -0.1366 -0.8839
 4750TIP3    H238446   3.012   4.033  17.571 -1.3982  0.8726 -2.4286
 4751TIP3   OH238447   5.847   2.785  16.775  0.6421 -0.8620 -0.5442
 4751TIP3    H138448   5.771   2.730  16.795 -0.5248  0.6829 -0.5254
 4751TIP3    H238449   5.889   2.799  16.860 -1.7384  2.0021  0.3226
 4752TIP3   OH238450   1.963   1.989  15.611 -0.0933 -0.5647  0.1776
 4752TIP3    H138451   2.049   2.032  15.621 -1.0796  1.6136 -0.0245
 4752TIP3    H238452   1.922   1.999  15.697 -1.0865  0.6931 -0.4159
 4753TIP3   OH238453   6.153   8.066  16.546  0.0518 -0.6806  0.0472
 4753TIP3    H138454   6.186   7.977  16.559  1.1573 -0.2829  0.0710
 4753TIP3    H238455   6.209   8.103  16.478  0.0959  0.2374  0.5653
 4754TIP3   OH238456   8.122   3.016  16.356  0.5884  0.3526 -0.2477
 4754TIP3    H138457   8.030   3.035  16.337 -0.4384 -3.3755  0.0445
 4754TIP3    H238458   8.167   3.030  16.272 -0.3770  1.3797 -0.6264
 4755TIP3   OH238459   0.877   7.241  17.483 -0.0794  0.2512 -0.2889
 4755TIP3    H138460   0.888   7.194  17.400  0.5701  0.2311 -0.1934
 4755TIP3    H238461   0.783   7.261  17.486 -0.3355 -0.8159 -0.4595
 4756TIP3   OH238462   2.649   5.411  17.419  0.2995  0.0388 -0.7219
 4756TIP3    H138463   2.631   5.318  17.407 -0.4697 -0.0956  1.1233
 4756TIP3    H238464   2.575   5.455  17.377 -0.2789 -0.2601 -0.0354
 4757TIP3   OH238465   3.511   6.263  16.596 -0.1417  0.2123  0.0512
 4757TIP3    H138466   3.502   6.217  16.679 -0.6601  0.0370 -0.0985
 4757TIP3    H238467   3.573   6.210  16.546  1.8928  1.4586  1.1121
 4758TIP3   OH238468   7.905   7.752  17.701 -0.3086  0.3560  0.5437
 4758TIP3    H138469   7.908   7.670  17.651 -0.2211  1.4890 -1.4077
 4758TIP3    H238470   7.997   7.779  17.709 -0.2456 -0.2375  2.1145
 4759TIP3   OH238471   3.687   6.583  15.737  0.2258 -0.3151 -0.1853
 4759TIP3    H138472   3.658   6.501  15.776  0.5515 -0.4842 -0.2909
 4759TIP3    H238473   3.658   6.651  15.798  0.3936 -0.5472  0.1563
 4760TIP3   OH238474   5.713   4.034  17.561 -0.2588 -0.3211 -0.1508
 4760TIP3    H138475   5.769   4.112  17.558 -0.2658 -0.3354 -0.7239
 4760TIP3    H238476   5.625   4.067  17.548 -0.5922 -0.1269  2.1091
 4761TIP3   OH238477   1.251   5.320  16.549 -0.0808  0.1491 -0.5676
 4761TIP3    H138478   1.218   5.309  16.460  3.3496 -2.6578 -1.7455
 4761TIP3    H238479   1.287   5.409  16.550 -1.0054  0.5586 -1.6417
 4762TIP3   OH238480   3.201   2.583  16.529 -0.2791  0.3188 -0.4015
 4762TIP3    H138481   3.270   2.550  16.471 -0.0576 -0.3574  0.2344
 4762TIP3    H238482   3.124   2.531  16.508 -0.7886  1.4974 -1.5522
 4763TIP3   OH238483   3.127   0.315  15.568  0.0502 -0.1321 -0.0834
 4763TIP3    H138484   3.083   0.273  15.494 -0.1684 -1.1177  0.5867
 4763TIP3    H238485   3.057   0.332  15.631 -0.3759  3.7029 -1.3264
 4764TIP3   OH238486   7.116   6.649  16.293 -1.4127  0.0293  0.2647
 4764TIP3    H138487   7.031   6.686  16.269 -0.0402  1.9912 -1.9876
 4764TIP3    H238488   7.150   6.612  16.212  1.0275  1.7860  0.3775
 4765TIP3   OH238489   1.121   5.863  17.379 -0.1360  0.6879 -0.1333
 4765TIP3    H138490   1.100   5.944  17.333 -2.1627  0.0478 -0.4079
 4765TIP3    H238491   1.047   5.806  17.362  1.3095 -1.3113 -0.0728
 4766TIP3   OH238492   2.331   6.478  17.609  0.6829 -0.1119 -0.0835
 4766TIP3    H138493   2.324   6.525  17.692 -1.2777  0.4886 -0.5310
 4766TIP3    H238494   2.368   6.393  17.633 -1.0566 -0.4731  1.6669
 4767TIP3   OH238495   0.141   7.808  16.752 -0.3652  0.5541  0.0407
 4767TIP3    H138496   0.202   7.858  16.698 -1.1979  1.5477 -0.0224
 4767TIP3    H238497   0.060   7.859  16.749 -1.0730 -0.5144  0.4571
 4768TIP3   OH238498   5.502   0.040  17.901 -0.3352 -0.5419 -0.5109
 4768TIP3    H138499   5.583   0.089  17.914 -0.2672 -0.2538 -1.8974
 4768TIP3    H238500   5.527  -0.052  17.912 -0.0804 -0.3845  0.2522
 4769TIP3   OH238501   1.163   2.489  18.038 -0.1108 -0.1585 -0.4790
 4769TIP3    H138502   1.189   2.488  18.130 -0.0290 -2.2437 -0.4903
 4769TIP3    H238503   1.071   2.462  18.039  0.0924 -0.8992 -1.0433
 4770TIP3   OH238504   3.358   7.449  16.805  0.1046  0.7162 -0.2033
 4770TIP3    H138505   3.387   7.358  16.797  1.1006  0.7623  2.1269
 4770TIP3    H238506   3.427   7.500  16.762  2.0576  0.5941  2.4809
 4771TIP3   OH238507   8.107   8.200  17.636  0.1302  0.0598  0.2537
 4771TIP3    H138508   8.157   8.280  17.652  1.5322 -0.6912 -0.1773
 4771TIP3    H238509   8.044   8.225  17.569 -1.4505  1.5363  2.1637
 4772TIP3   OH238510   1.599   2.725  17.213 -0.1179  0.0410 -0.3566
 4772TIP3    H138511   1.680   2.691  17.174  0.0465  0.5297 -0.4414
 4772TIP3    H238512   1.530   2.686  17.160  0.0729 -0.0678 -0.5309
 4773TIP3   OH238513   5.847   3.514  17.605 -0.0342  0.5055 -0.2106
 4773TIP3    H138514   5.842   3.464  17.524  0.0950 -0.2538  0.2378
 4773TIP3    H238515   5.882   3.599  17.579 -2.0868  1.0746 -1.2838
 4774TIP3   OH238516   6.953   4.257  16.067 -0.0473  0.4231 -0.3578
 4774TIP3    H138517   7.045   4.244  16.090 -0.4288  0.4759  1.3353
 4774TIP3    H238518   6.910   4.275  16.150 -1.2303  2.6327 -1.3535
 4775TIP3   OH238519   0.676   1.837  17.737 -0.4206 -0.3412 -0.3914
 4775TIP3    H138520   0.624   1.898  17.790  1.5488 -0.9542  2.5300
 4775TIP3    H238521   0.611   1.784  17.692 -2.2115  2.8606 -1.9139
 4776TIP3   OH238522   4.639   0.931  17.697  0.5449  0.3112 -0.1176
 4776TIP3    H138523   4.587   0.882  17.633 -0.9051 -0.4862  1.6035
 4776TIP3    H238524   4.638   1.021  17.664 -1.6938  0.2729 -0.3244
 4777TIP3   OH238525   2.812   5.181  16.914  0.3216  0.4342  0.1294
 4777TIP3    H138526   2.748   5.119  16.880 -3.5216  3.6668  0.7480
 4777TIP3    H238527   2.825   5.154  17.005 -0.4764 -0.0550  0.1086
 4778TIP3   OH238528   2.526   6.970  17.368  0.0920 -0.2556 -0.0394
 4778TIP3    H138529   2.476   6.931  17.439  1.0057 -0.7330  0.3564
 4778TIP3    H238530   2.577   6.897  17.332  2.5169  0.6591  1.2955
 4779TIP3   OH238531   0.712   6.884  17.636  0.3020 -0.5693 -0.0838
 4779TIP3    H138532   0.807   6.892  17.637  0.3204 -0.7569 -0.2679
 4779TIP3    H238533   0.681   6.969  17.605  0.4654 -0.9368 -1.2931
 4780TIP3   OH238534   2.087   8.358  16.456  0.0925 -0.4037  0.3459
 4780TIP3    H138535   2.181   8.376  16.453 -0.0916  0.6911  0.7168
 4780TIP3    H238536   2.073   8.292  16.388  1.0146 -0.0343 -0.2218
 4781TIP3   OH238537   7.726   4.497  17.116 -0.1792 -0.4290 -0.3504
 4781TIP3    H138538   7.734   4.551  17.194 -0.4762 -1.6016  0.5154
 4781TIP3    H238539   7.816   4.489  17.083 -0.0313 -0.0834 -0.0296
 4782TIP3   OH238540   5.282   2.368  16.697 -0.0952 -0.3236 -0.0451
 4782TIP3    H138541   5.351   2.375  16.763  0.6088  0.1722 -0.8235
 4782TIP3    H238542   5.316   2.415  16.621 -1.5359  0.4489 -0.2417
 4783TIP3   OH238543   4.767   1.169  17.185 -0.4593 -0.5713  0.0395
 4783TIP3    H138544   4.856   1.187  17.157  0.0830  0.4023  2.1412
 4783TIP3    H238545   4.712   1.193  17.110  1.0410 -1.9581 -1.5780
 4784TIP3   OH238546   0.102   3.899  17.004  0.1949  0.1587  0.6922
 4784TIP3    H138547   0.019   3.852  16.990  0.5218 -0.6193  1.2902
 4784TIP3    H238548   0.086   3.986  16.967 -1.4295  0.5591  2.1810
 4785TIP3   OH238549   0.422   8.038  16.935  0.5707  0.0295  0.0362
 4785TIP3    H138550   0.350   8.051  16.873  0.4699 -0.5949  0.0180
 4785TIP3    H238551   0.444   8.127  16.965 -0.8677  0.1710  0.7997
 4786TIP3   OH238552   5.447   5.021  17.536  0.0002  0.1621 -0.2511
 4786TIP3    H138553   5.483   5.099  17.494  0.7949 -0.5881 -0.9984
 4786TIP3    H238554   5.361   5.010  17.497  0.2784  0.1167 -0.8616
 4787TIP3   OH238555   3.443   5.357  16.513  0.2066  0.1081  0.3743
 4787TIP3    H138556   3.478   5.276  16.551  1.1513  0.5544  0.4873
 4787TIP3    H238557   3.504   5.425  16.541 -0.0161  0.7062 -0.5453
 4788TIP3   OH238558   0.084   1.899  16.915 -0.4322 -0.2341  0.1174
 4788TIP3    H138559   0.107   1.952  16.839  0.9350 -0.8730  0.0576
 4788TIP3    H238560   0.050   1.817  16.878 -0.9505 -0.0728  0.2155
 4789TIP3   OH238561   1.449   3.976  16.371 -0.3405  0.1101  0.2495
 4789TIP3    H138562   1.415   4.018  16.450 -0.0710  0.0729  0.3866
 4789TIP3    H238563   1.511   3.910  16.404  0.8900  1.0898 -0.0351
 4790TIP3   OH238564   6.729   3.919  17.067  0.4728  0.6947 -0.2180
 4790TIP3    H138565   6.795   3.912  17.136  0.3467  0.1499 -0.1498
 4790TIP3    H238566   6.767   3.982  17.005  1.9413 -0.9620 -1.1220
 4791TIP3   OH238567   2.867   5.553  17.919 -0.7757  0.2424  0.3674
 4791TIP3    H138568   2.858   5.493  17.845 -1.0882  0.9350 -0.1617
 4791TIP3    H238569   2.857   5.497  17.996 -1.6498 -0.2950 -0.1196
 4792TIP3   OH238570   5.545   6.537  17.579  0.7808  0.5009 -0.1453
 4792TIP3    H138571   5.555   6.448  17.544 -0.7993  0.9787 -2.0107
 4792TIP3    H238572   5.576   6.531  17.669  2.5802 -1.4561 -0.8196
 4793TIP3   OH238573   2.920   7.469  15.587  0.0860  0.1004 -0.3347
 4793TIP3    H138574   3.015   7.464  15.578  0.1646  1.9713 -0.8946
 4793TIP3    H238575   2.906   7.492  15.678  0.2698  1.2100 -0.5666
 4794TIP3   OH238576   2.560   1.886  17.518 -0.1864  0.2838 -0.1215
 4794TIP3    H138577   2.619   1.906  17.590 -1.1491  1.4275  0.3918
 4794TIP3    H238578   2.478   1.932  17.540  0.1054  2.4619 -2.8822
 4795TIP3   OH238579   6.969   7.385  17.389 -0.0037  0.0185 -0.5049
 4795TIP3    H138580   6.876   7.380  17.412  0.0615 -0.6508 -0.3699
 4795TIP3    H238581   6.969   7.416  17.298 -0.2622  2.6609  0.3297
 4796TIP3   OH238582   8.297   3.529  17.782  0.1911 -0.4132  0.6159
 4796TIP3    H138583   8.246   3.476  17.843  1.3605 -0.7156  1.3617
 4796TIP3    H238584   8.383   3.486  17.779  0.7664  0.7192  0.2585
 4797TIP3   OH238585   2.199   2.956  17.777  0.2952 -0.7402 -0.1102
 4797TIP3    H138586   2.155   2.935  17.859  1.1985  0.7058  0.7739
 4797TIP3    H238587   2.131   2.949  17.710 -0.8258 -0.3268  0.9768
 4798TIP3   OH238588   3.326   8.429  17.611 -0.0150  0.3310 -0.1945
 4798TIP3    H138589   3.421   8.435  17.604 -0.0111  0.9309  0.2999
 4798TIP3    H238590   3.307   8.336  17.601  0.6407  0.1776 -0.0408
 4799TIP3   OH238591   0.796   1.221  15.965  0.0516  0.1231 -0.2748
 4799TIP3    H138592   0.872   1.276  15.949  1.5389 -1.7499  0.0493
 4799TIP3    H238593   0.749   1.220  15.882  1.0181  0.3548 -0.8387
 4800TIP3   OH238594   6.592   2.243  15.861  0.3231 -0.0684 -0.1575
 4800TIP3    H138595   6.507   2.213  15.828 -0.8489  0.1639  2.4269
 4800TIP3    H238596   6.636   2.163  15.889  0.6645 -0.1026 -0.7541
 4801TIP3   OH238597   3.113   2.965  16.720 -0.4240 -0.5245 -0.0919
 4801TIP3    H138598   3.118   2.974  16.815 -3.5907 -1.9217  0.3521
 4801TIP3    H238599   3.064   3.043  16.691 -1.6297 -1.3031 -0.2060
 4802TIP3   OH238600   3.364   0.939  17.173  0.3549 -0.0573  0.1528
 4802TIP3    H138601   3.270   0.932  17.186  0.4535  1.3963  2.1619
 4802TIP3    H238602   3.400   0.943  17.261  2.4043 -1.4599 -0.5667
 4803TIP3   OH238603   2.737   3.155  16.261  0.2161 -0.4128 -0.5695
 4803TIP3    H138604   2.752   3.134  16.169 -0.4390 -0.3649 -0.6933
 4803TIP3    H238605   2.693   3.240  16.259 -1.4015 -1.2046 -0.3172
 4804TIP3   OH238606   6.452   4.967  17.834  0.4233 -0.3706 -0.4741
 4804TIP3    H138607   6.425   5.055  17.807  0.9733 -0.2137 -0.5374
 4804TIP3    H238608   6.539   4.980  17.872 -0.1183 -0.6634  0.9217
 4805TIP3   OH238609   0.164   7.050  17.162  0.4030 -0.0525  0.0320
 4805TIP3    H138610   0.188   7.089  17.078  0.2650  0.7627  0.3569
 4805TIP3    H238611   0.155   6.957  17.144 -0.5368  0.2316 -1.0632
 4806TIP3   OH238612   7.105   3.531  16.533  0.2516 -0.5571 -0.3286
 4806TIP3    H138613   7.156   3.605  16.501  1.0067 -1.1642 -0.5599
 4806TIP3    H238614   7.037   3.518  16.467 -0.0588  0.0995 -0.1462
 4807TIP3   OH238615   0.808   4.005  16.487  0.2085 -0.3053  0.0829
 4807TIP3    H138616   0.903   4.003  16.479  0.2836 -1.3428  1.0842
 4807TIP3    H238617   0.790   4.082  16.542  0.6137 -1.1556  1.4541
 4808TIP3   OH238618   7.004   2.316  17.453  0.0885 -0.2313  0.1294
 4808TIP3    H138619   6.965   2.369  17.522 -1.2957  0.4539 -1.1166
 4808TIP3    H238620   6.957   2.233  17.457 -2.2043  0.8372 -1.8328
 4809TIP3   OH238621   2.598   0.251  16.771  0.4494  0.6389 -0.6670
 4809TIP3    H138622   2.665   0.228  16.706  0.6850 -0.4924 -0.0598
 4809TIP3    H238623   2.540   0.311  16.726  0.8913  0.2689 -1.7626
 4810TIP3   OH238624   5.743   2.725  17.171  0.1750 -0.5588 -0.1937
 4810TIP3    H138625   5.787   2.694  17.251  0.6423  1.1036  0.2393
 4810TIP3    H238626   5.695   2.649  17.139  0.2422 -1.3643  1.4944
 4811TIP3   OH238627   4.602   6.788  16.557 -0.1149  0.1893  0.2350
 4811TIP3    H138628   4.632   6.765  16.645  0.6909  0.0756 -0.0603
 4811TIP3    H238629   4.525   6.733  16.544  0.0953 -0.2187  0.6503
 4812TIP3   OH238630   1.516   7.789  16.502 -0.3188  0.2696 -0.0798
 4812TIP3    H138631   1.572   7.769  16.576  0.2458  1.1593 -0.2539
 4812TIP3    H238632   1.454   7.715  16.498  0.7794 -0.6925  0.1563
 4813TIP3   OH238633   6.101   4.142  17.240  0.1017  0.2131 -0.1952
 4813TIP3    H138634   6.171   4.205  17.225 -1.5739  1.9617 -1.1093
 4813TIP3    H238635   6.101   4.088  17.161  0.4146  0.2088 -0.1929
 4814TIP3   OH238636   3.358   2.996  17.244  0.4081 -0.5413 -0.0108
 4814TIP3    H138637   3.365   3.006  17.339  2.1426 -0.9742 -0.0520
 4814TIP3    H238638   3.265   2.979  17.228  0.1271 -0.7231  1.6250
 4815TIP3   OH238639   4.098   4.411  17.242 -0.1398 -0.2703  0.1422
 4815TIP3    H138640   4.133   4.393  17.330 -2.5287 -2.1503  0.8208
 4815TIP3    H238641   4.136   4.344  17.187 -0.2337 -0.3707  0.1988
 4816TIP3   OH238642   3.270   6.600  16.337  0.3000  0.0740  0.0293
 4816TIP3    H138643   3.251   6.522  16.387  1.8535 -0.1292  0.3547
 4816TIP3    H238644   3.250   6.576  16.246  0.0439 -0.4404  0.2200
 4817TIP3   OH238645   3.113   3.437  16.391 -0.4464  0.1490 -0.0719
 4817TIP3    H138646   3.059   3.385  16.450 -0.5800 -0.0547 -0.3692
 4817TIP3    H238647   3.072   3.426  16.305 -0.0397  0.1435 -0.2684
 4818TIP3   OH238648   5.547   1.786  16.726  0.2756  0.4299  0.1076
 4818TIP3    H138649   5.472   1.786  16.668  0.1532  2.3366  0.2230
 4818TIP3    H238650   5.529   1.855  16.790  1.2352 -0.3976  1.3419
 4819TIP3   OH238651   6.544   3.923  16.145 -0.2159 -0.2291  0.3482
 4819TIP3    H138652   6.496   3.997  16.183 -1.7929 -1.2295  0.4348
 4819TIP3    H238653   6.483   3.886  16.081  0.9963 -0.7556 -0.5333
 4820TIP3   OH238654   5.186   0.932  15.957 -0.3009  0.1488  0.5040
 4820TIP3    H138655   5.252   0.993  15.922 -0.7167  0.4962  0.3052
 4820TIP3    H238656   5.129   0.987  16.011  0.3291 -0.3902  1.7263
 4821TIP3   OH238657   8.368   7.447  15.667 -0.1148 -0.2262  0.0639
 4821TIP3    H138658   8.278   7.440  15.700  0.3451 -0.8372  1.2712
 4821TIP3    H238659   8.419   7.472  15.744  0.6116  1.1089 -0.8328
 4822TIP3   OH238660   1.725   4.329  16.092  0.7742 -0.1307 -0.5598
 4822TIP3    H138661   1.749   4.378  16.014  0.9044  0.2619 -0.2751
 4822TIP3    H238662   1.789   4.355  16.158  0.2194  0.1144 -0.1011
 4823TIP3   OH238663   7.798   8.275  17.544 -0.4074  0.2634 -0.1495
 4823TIP3    H138664   7.756   8.359  17.563 -0.7199 -0.0208  0.4259
 4823TIP3    H238665   7.740   8.209  17.581  0.9154 -0.0985  1.4465
 4824TIP3   OH238666   5.168   2.655  17.116 -0.2858 -0.2358 -0.8125
 4824TIP3    H138667   5.187   2.597  17.189  1.1664  0.8404 -0.2776
 4824TIP3    H238668   5.215   2.736  17.137 -0.6618  0.4549 -2.4600
 4825TIP3   OH238669   2.794   8.427  17.470  0.2933 -0.6576  0.1587
 4825TIP3    H138670   2.708   8.398  17.500  0.3234 -0.8126  0.0961
 4825TIP3    H238671   2.778   8.467  17.385  0.3726 -1.2623 -0.1472
 4826TIP3   OH238672   8.041   1.246  16.964  0.8630 -0.2330  0.3899
 4826TIP3    H138673   7.994   1.299  17.028 -0.9108  0.5941 -1.4713
 4826TIP3    H238674   8.044   1.300  16.885 -0.0821 -2.4617 -1.2847
 4827TIP3   OH238675   2.895   2.492  16.711  0.2022  0.0151 -0.1994
 4827TIP3    H138676   2.954   2.448  16.650 -0.0734  0.0237 -0.4723
 4827TIP3    H238677   2.862   2.567  16.663 -1.5593 -1.0629 -0.7552
 4828TIP3   OH238678   8.009   5.575  16.790 -0.4383  0.1872  0.7062
 4828TIP3    H138679   8.023   5.543  16.701 -1.2990 -0.3019  0.7320
 4828TIP3    H238680   8.041   5.665  16.789  0.2404 -0.0585  0.1065
 4829TIP3   OH238681   5.886   0.334  17.038  0.2551  0.1382  0.1410
 4829TIP3    H138682   5.927   0.372  16.960  2.9852  0.3111  1.5450
 4829TIP3    H238683   5.900   0.240  17.030 -2.3587 -0.2445 -1.0514
 4830TIP3   OH238684   1.496   2.116  17.773  0.4360 -0.2314  0.0089
 4830TIP3    H138685   1.522   2.024  17.760  0.5772 -0.3467  1.0350
 4830TIP3    H238686   1.524   2.136  17.862 -1.9977 -0.0240  0.8153
 4831TIP3   OH238687   1.960   2.120  17.941  0.2139  0.0588  0.1979
 4831TIP3    H138688   1.922   2.160  17.863 -0.9299 -0.0190  0.6875
 4831TIP3    H238689   1.962   2.190  18.006 -2.1166 -0.6793  1.1675
 4832TIP3   OH238690   1.849   5.068  17.932  0.0720 -0.9473  0.3563
 4832TIP3    H138691   1.821   5.110  18.014 -0.8314 -0.7561 -0.0416
 4832TIP3    H238692   1.817   5.126  17.863 -1.2268 -2.2864 -0.2136
 4833TIP3   OH238693   2.735   2.443  16.361 -0.5091 -0.4882  0.0511
 4833TIP3    H138694   2.676   2.493  16.418 -0.4693 -1.0480  0.5945
 4833TIP3    H238695   2.680   2.417  16.287 -0.5224  0.3718 -0.2615
 4834TIP3   OH238696   1.142   8.116  17.186 -0.5180 -0.1820 -0.8249
 4834TIP3    H138697   1.053   8.150  17.199 -0.0046  1.4083 -1.2689
 4834TIP3    H238698   1.199   8.191  17.204  0.6609 -0.7522 -2.0568
 4835TIP3   OH238699   4.961   1.911  16.039 -0.1388  0.3573 -0.1390
 4835TIP3    H138700   5.008   1.995  16.039  0.7219 -0.1035  0.9137
 4835TIP3    H238701   4.933   1.899  16.130 -1.1815 -0.0134 -0.4892
 4836TIP3   OH238702   0.439   5.512  17.873  0.0574  0.3460  0.1049
 4836TIP3    H138703   0.356   5.530  17.916  0.2006 -0.1573  0.6026
 4836TIP3    H238704   0.502   5.569  17.917 -0.0558  0.8818 -0.4133
 4837TIP3   OH238705   4.618   1.786  17.474  0.0525 -0.9963 -0.1117
 4837TIP3    H138706   4.602   1.814  17.564  1.5275 -0.8687  0.1415
 4837TIP3    H238707   4.536   1.804  17.428 -1.1421 -2.1953  1.4532
 4838TIP3   OH238708   2.441   2.139  16.691  0.7568 -0.0495  0.0540
 4838TIP3    H138709   2.452   2.047  16.667  0.2894 -0.3566  0.9901
 4838TIP3    H238710   2.347   2.149  16.703  0.7240  0.7496 -0.7714
 4839TIP3   OH238711   2.927   4.613  15.619  0.1609 -0.6471  0.1845
 4839TIP3    H138712   2.885   4.634  15.703  0.2223  1.6139 -0.2818
 4839TIP3    H238713   2.856   4.619  15.555  0.5079 -0.2115 -0.1683
 4840TIP3   OH238714   3.735   7.814  16.377 -0.0720  0.2251  0.4750
 4840TIP3    H138715   3.787   7.737  16.354 -1.9611 -1.0992  0.3727
 4840TIP3    H238716   3.788   7.861  16.441  2.1456  0.1134 -1.1562
 4841TIP3   OH238717   3.808   3.867  16.313 -0.0280  0.5568  0.1197
 4841TIP3    H138718   3.807   3.873  16.409 -0.6627  0.1426  0.1408
 4841TIP3    H238719   3.871   3.798  16.294 -1.5122 -0.9235  0.3401
 4842TIP3   OH238720   2.039   6.342  17.964 -0.2208  0.0841 -0.3314
 4842TIP3    H138721   1.980   6.365  17.893 -0.3001 -2.0581 -1.0498
 4842TIP3    H238722   1.989   6.280  18.018  1.0931 -1.2861 -0.6052
 4843TIP3   OH238723   2.772   4.463  16.809  0.3621  0.0252  0.0341
 4843TIP3    H138724   2.865   4.447  16.794  0.7065  1.8749  0.0311
 4843TIP3    H238725   2.769   4.529  16.878 -0.8555  1.7877 -1.5894
 4844TIP3   OH238726   5.289   6.976  16.888 -0.7544 -0.1213 -0.2072
 4844TIP3    H138727   5.338   7.051  16.921 -1.8646  0.5596 -0.0614
 4844TIP3    H238728   5.242   6.942  16.964 -2.2665  0.6302 -0.7610
 4845TIP3   OH238729   2.233   5.624  16.670  0.0542  0.6463  0.1219
 4845TIP3    H138730   2.172   5.695  16.690  0.6986  1.5524 -0.9992
 4845TIP3    H238731   2.305   5.667  16.624  0.4282 -0.7582 -0.6508
 4846TIP3   OH238732   0.099   2.046  16.643  0.1043 -0.2847  0.5209
 4846TIP3    H138733   0.023   2.091  16.608 -0.5321 -1.0878  0.8557
 4846TIP3    H238734   0.172   2.076  16.588 -0.3798  0.7391  0.4116
 4847TIP3   OH238735   2.493   6.236  16.488  0.0970  0.1084 -1.0038
 4847TIP3    H138736   2.467   6.307  16.430 -1.0275  0.0892 -0.5470
 4847TIP3    H238737   2.459   6.261  16.574 -1.6781 -1.6437 -1.1145
 4848TIP3   OH238738   5.311   1.482  16.516  0.3479 -0.5622  0.7594
 4848TIP3    H138739   5.380   1.548  16.523  1.7215 -2.0123  1.5073
 4848TIP3    H238740   5.309   1.458  16.423 -0.3694  0.6921  0.4228
 4849TIP3   OH238741   2.998   1.277  17.655  0.1283  0.3614  0.2752
 4849TIP3    H138742   3.081   1.231  17.656 -0.6199 -1.1032  2.2226
 4849TIP3    H238743   3.021   1.369  17.651  1.8348 -0.0322  0.5079
 4850TIP3   OH238744   1.788   7.845  17.538 -0.0898  0.3659  0.1239
 4850TIP3    H138745   1.827   7.770  17.493 -1.6519 -0.1802 -0.4172
 4850TIP3    H238746   1.707   7.811  17.575 -0.1846  1.4902  1.0012
 4851TIP3   OH238747   2.578   1.424  16.603  0.4283 -0.1772 -0.5966
 4851TIP3    H138748   2.538   1.481  16.668 -0.8140  0.5110 -1.9103
 4851TIP3    H238749   2.627   1.360  16.654 -1.3690 -0.3202  1.0589
 4852TIP3   OH238750   3.305   6.126  17.088 -0.1768 -0.1715 -0.3933
 4852TIP3    H138751   3.300   6.049  17.145  1.2171 -0.1587 -0.2215
 4852TIP3    H238752   3.314   6.200  17.149  1.5901 -0.1811 -0.5841
 4853TIP3   OH238753   8.140   7.559  16.077 -0.0548  0.3399 -0.0130
 4853TIP3    H138754   8.225   7.579  16.116 -0.5546 -1.3212  2.1136
 4853TIP3    H238755   8.155   7.563  15.983  2.3271  0.3079  0.3187
 4854TIP3   OH238756   3.349   6.328  17.265  0.5480  0.1580 -0.2618
 4854TIP3    H138757   3.309   6.402  17.220 -0.4948 -1.1365 -1.5828
 4854TIP3    H238758   3.330   6.342  17.358  0.0055  1.3248 -0.5365
 4855TIP3   OH238759   1.364   8.120  16.654  0.5517  0.1875 -0.5634
 4855TIP3    H138760   1.352   8.199  16.707  0.1502 -0.2328 -0.0151
 4855TIP3    H238761   1.361   8.048  16.718  2.1292 -0.2067 -0.8899
 4856TIP3   OH238762   8.294   7.191  17.629 -0.5743 -0.5643 -0.3670
 4856TIP3    H138763   8.221   7.243  17.662 -0.0597 -0.1344  0.1170
 4856TIP3    H238764   8.341   7.250  17.569 -0.8088 -0.9453 -0.9311
 4857TIP3   OH238765   1.316   5.009  17.187 -0.0875  0.0004  0.5853
 4857TIP3    H138766   1.349   4.938  17.131 -0.9154 -1.0647  1.4108
 4857TIP3    H238767   1.243   5.046  17.137  0.3998  0.3320  0.1129
 4858TIP3   OH238768   1.711   6.955  16.157 -0.3779 -0.0542  0.1934
 4858TIP3    H138769   1.618   6.970  16.139 -0.2890 -0.5337 -0.7297
 4858TIP3    H238770   1.756   6.980  16.076  0.0508 -2.2810 -0.3247
 4859TIP3   OH238771   2.329   5.817  16.150 -0.4470  0.3037  0.1997
 4859TIP3    H138772   2.244   5.774  16.140  0.1084 -1.4264  2.1107
 4859TIP3    H238773   2.309   5.901  16.191 -1.2194 -0.6412  1.8930
 4860TIP3   OH238774   1.260   5.944  16.548 -0.1937  0.4667  0.1261
 4860TIP3    H138775   1.212   6.011  16.597 -2.6518  0.1068 -1.5904
 4860TIP3    H238776   1.222   5.861  16.577  1.3455 -0.0736  0.6954
 4861TIP3   OH238777   6.130   2.084  16.073 -0.2141  0.7917 -0.5385
 4861TIP3    H138778   6.108   2.131  15.993 -1.5083  1.4148  0.1523
 4861TIP3    H238779   6.155   2.152  16.135  2.0456  0.2301 -0.7438
 4862TIP3   OH238780   0.923   5.328  17.741 -0.4868  0.5876 -0.3648
 4862TIP3    H138781   0.844   5.276  17.727 -1.0468  1.5158 -0.7567
 4862TIP3    H238782   0.995   5.268  17.723 -1.1171  0.4956 -3.0034
 4863TIP3   OH238783   5.149   3.373  17.845 -0.4946 -0.1129 -0.1208
 4863TIP3    H138784   5.081   3.336  17.788 -0.1544  1.5690 -1.7031
 4863TIP3    H238785   5.201   3.298  17.872 -0.2499 -0.9370 -2.6300
 4864TIP3   OH238786   1.838   4.475  17.097  0.4635 -0.2496  0.2630
 4864TIP3    H138787   1.862   4.565  17.074 -2.6155  0.6311  0.0983
 4864TIP3    H238788   1.868   4.465  17.188  0.7410  0.9805  0.3300
 4865TIP3   OH238789   7.110   2.206  16.884  0.5754  0.3205  0.1483
 4865TIP3    H138790   7.193   2.241  16.918 -0.7697  2.4797  1.4206
 4865TIP3    H238791   7.113   2.113  16.908  1.6445  0.8341  2.3614
 4866TIP3   OH238792   3.321   0.318  16.694  0.0561 -0.2865 -0.3140
 4866TIP3    H138793   3.275   0.241  16.662 -1.3927 -0.0394  1.0637
 4866TIP3    H238794   3.367   0.287  16.773  0.3013  0.0220 -0.3313
 4867TIP3   OH238795   5.409   7.615  16.704 -0.0182 -0.1355  0.0702
 4867TIP3    H138796   5.414   7.611  16.800  0.8432  2.8986  0.2776
 4867TIP3    H238797   5.493   7.652  16.678 -0.8003  0.4733 -1.7140
 4868TIP3   OH238798   0.984   5.446  16.693  0.3011  0.1765 -0.3838
 4868TIP3    H138799   0.894   5.477  16.681 -0.4541 -0.7229  2.1649
 4868TIP3    H238800   0.983   5.356  16.660  0.3423  0.2761 -0.6529
 4869TIP3   OH238801   5.328   0.145  16.224  0.0952  0.4785 -0.8441
 4869TIP3    H138802   5.251   0.185  16.182  0.2326  1.6260 -0.0788
 4869TIP3    H238803   5.340   0.062  16.179 -2.0951 -0.1195 -0.4613
 4870TIP3   OH238804   0.934   5.340  15.978 -0.3547 -0.5248 -0.0576
 4870TIP3    H138805   0.907   5.415  15.924 -1.0922  0.5992  1.7734
 4870TIP3    H238806   0.966   5.276  15.915 -1.8520  0.4258 -1.8999
 4871TIP3   OH238807   6.888   4.503  17.299  0.1685 -0.0412  0.0601
 4871TIP3    H138808   6.873   4.507  17.393 -0.5896 -1.5818  0.0393
 4871TIP3    H238809   6.885   4.594  17.270  0.6003  0.4639  1.5416
 4872TIP3   OH238810   0.701   0.952  17.272 -0.3937  0.2930 -0.3536
 4872TIP3    H138811   0.678   1.045  17.269 -1.5621  0.1425  2.1658
 4872TIP3    H238812   0.732   0.933  17.183  1.4577  3.4500 -0.5518
 4873TIP3   OH238813   6.467   8.411  17.374  0.1711  0.0666  0.0748
 4873TIP3    H138814   6.500   8.321  17.372  0.4005  0.1583 -1.3960
 4873TIP3    H238815   6.411   8.417  17.297 -0.2355  1.0574  0.4340
 4874TIP3   OH238816   0.152   7.533  17.537 -0.5055 -0.6429 -0.3154
 4874TIP3    H138817   0.066   7.514  17.501 -0.3355 -1.0383 -0.5151
 4874TIP3    H238818   0.213   7.510  17.467 -0.3103  1.3486 -0.8729
 4875TIP3   OH238819   4.477   8.296  15.976 -0.1984  0.2032 -0.0764
 4875TIP3    H138820   4.540   8.240  16.022 -0.1093 -0.6679 -1.2056
 4875TIP3    H238821   4.530   8.365  15.937  0.2525 -1.0900 -1.8752
 4876TIP3   OH238822   2.766   1.902  15.839  0.0772 -0.5481  0.0510
 4876TIP3    H138823   2.684   1.871  15.877  0.4109  0.0301  1.2759
 4876TIP3    H238824   2.789   1.979  15.891  0.4931  0.3602 -1.3914
 4877TIP3   OH238825   7.588   2.926  16.628 -0.6257  0.0396 -0.0859
 4877TIP3    H138826   7.512   2.964  16.584  0.7729  0.6019 -2.1826
 4877TIP3    H238827   7.619   2.995  16.687  0.5941  1.4696 -2.2559
 4878TIP3   OH238828   5.245   1.783  17.057  0.0002 -0.3903  0.3081
 4878TIP3    H138829   5.177   1.765  17.122  1.2273 -1.2725  1.3838
 4878TIP3    H238830   5.326   1.786  17.107  1.1378 -2.1973 -1.3068
 4879TIP3   OH238831   6.681   4.509  16.402 -0.3059  0.0156  0.4152
 4879TIP3    H138832   6.704   4.430  16.353 -1.1274 -0.5569  0.9228
 4879TIP3    H238833   6.598   4.537  16.365  0.6736  1.5192 -0.7601
 4880TIP3   OH238834   0.186   1.424  17.079  0.3105  0.4307 -0.4291
 4880TIP3    H138835   0.234   1.457  17.003  2.5957 -0.7484  0.3990
 4880TIP3    H238836   0.150   1.340  17.050 -0.7672  1.0313 -0.8645
 4881TIP3   OH238837   7.304   5.718  17.181 -0.4970 -0.7222 -0.0500
 4881TIP3    H138838   7.320   5.721  17.275 -0.9283 -0.4342  0.0165
 4881TIP3    H238839   7.387   5.688  17.144  0.1708  0.6241  0.2876
 4882TIP3   OH238840   8.300   8.383  17.534 -0.4914  0.4275  0.6389
 4882TIP3    H138841   8.367   8.331  17.490 -0.8475  0.4467  0.0594
 4882TIP3    H238842   8.338   8.405  17.618 -0.2943 -0.7034  0.8645
 4883TIP3   OH238843   6.940   4.199  16.529 -0.4941 -0.0497  0.2821
 4883TIP3    H138844   6.975   4.250  16.456 -0.1624  1.7380  1.6006
 4883TIP3    H238845   7.017   4.169  16.576 -0.6954  0.2792  0.8320
 4884TIP3   OH238846   1.866   7.430  15.775  0.0909  0.8510  0.0729
 4884TIP3    H138847   1.898   7.462  15.691  0.2823 -0.8631 -0.5462
 4884TIP3    H238848   1.814   7.352  15.754  1.7601 -0.8029  1.6464
 4885TIP3   OH238849   1.153   2.628  18.278 -0.1153  0.1318 -0.1858
 4885TIP3    H138850   1.194   2.689  18.217 -0.0207  0.5617  0.3031
 4885TIP3    H238851   1.201   2.639  18.360 -0.3309 -0.3389  0.0099
 4886TIP3   OH238852   4.354   1.181  17.923  0.2024 -0.6797  0.3440
 4886TIP3    H138853   4.414   1.111  17.947  1.4047 -0.2826 -1.2904
 4886TIP3    H238854   4.409   1.245  17.879 -0.8444  1.3245  1.7607
 4887TIP3   OH238855   3.873   7.454  17.476  0.3871  0.4988  0.3965
 4887TIP3    H138856   3.817   7.532  17.471  0.8444  0.8703  0.8894
 4887TIP3    H238857   3.920   7.464  17.559 -0.0586 -0.6608  0.8041
 4888TIP3   OH238858   4.434   0.381  17.305 -0.5023 -0.1690  0.2966
 4888TIP3    H138859   4.511   0.324  17.310 -1.0261 -1.0804 -1.2828
 4888TIP3    H238860   4.362   0.322  17.280 -1.7954  0.6046  1.9736
 4889TIP3   OH238861   4.391   1.855  17.357 -0.0354 -0.4127 -0.5350
 4889TIP3    H138862   4.304   1.831  17.388 -0.4983 -1.5049 -2.5070
 4889TIP3    H238863   4.381   1.945  17.325 -0.0756 -0.0482  0.4673
 4890TIP3   OH238864   8.072   4.933  17.522  1.1057 -0.0654  0.0311
 4890TIP3    H138865   8.123   4.920  17.443 -1.6787 -0.9450 -1.7595
 4890TIP3    H238866   8.078   4.849  17.568  0.8102 -0.3606 -0.4605
 4891TIP3   OH238867   0.257   2.006  15.961  0.2048  0.2909  0.0991
 4891TIP3    H138868   0.329   2.050  16.006  0.4715  0.6569 -0.6726
 4891TIP3    H238869   0.252   2.049  15.876 -2.3961  1.8712  0.9360
 4892TIP3   OH238870   4.752   3.469  16.084  0.3704 -0.0156  0.2400
 4892TIP3    H138871   4.755   3.503  16.174  0.3930  0.0265  0.2235
 4892TIP3    H238872   4.681   3.518  16.043 -2.0015 -2.3409  1.2011
 4893TIP3   OH238873   3.049   0.451  17.067  0.3028 -0.5589 -0.2833
 4893TIP3    H138874   3.135   0.417  17.094 -0.0388 -1.1710  0.0605
 4893TIP3    H238875   3.028   0.401  16.988  0.9743  0.7239 -1.3107
 4894TIP3   OH238876   7.936   7.925  17.468  0.3496 -0.0582 -0.2296
 4894TIP3    H138877   7.873   7.928  17.540  0.9714  0.9083  0.2865
 4894TIP3    H238878   7.888   7.882  17.397  0.0092 -1.9338  1.0273
 4895TIP3   OH238879   1.676   1.258  15.425  0.4336  0.1548  0.0737
 4895TIP3    H138880   1.596   1.213  15.399  0.2296 -0.3758  1.4855
 4895TIP3    H238881   1.646   1.340  15.464  0.5809  0.0401  0.4370
 4896TIP3   OH238882   2.034   0.765  16.810 -0.6089  0.9251 -0.3344
 4896TIP3    H138883   1.989   0.725  16.736  0.6772 -0.2118 -0.5423
 4896TIP3    H238884   1.967   0.774  16.878 -1.5573  1.0106 -1.2521
 4897TIP3   OH238885   0.433   1.460  15.779  0.4085  0.4081 -0.1283
 4897TIP3    H138886   0.414   1.377  15.735  0.8837 -0.2514  0.8505
 4897TIP3    H238887   0.524   1.478  15.756  0.4175  0.4636 -0.0488
 4898TIP3   OH238888   1.745   4.396  15.824  0.4554  0.1075 -0.4281
 4898TIP3    H138889   1.746   4.406  15.729 -1.7066  0.5953 -0.4418
 4898TIP3    H238890   1.663   4.350  15.843  1.2395 -0.7132  1.1574
 4899TIP3   OH238891   4.780   7.615  16.173 -0.6649 -0.4735 -0.5574
 4899TIP3    H138892   4.824   7.595  16.091  0.2048  2.0607 -0.8040
 4899TIP3    H238893   4.719   7.686  16.151 -0.7966 -0.1071  0.8645
 4900TIP3   OH238894   2.125   0.902  16.559  0.1811 -0.2052 -0.4438
 4900TIP3    H138895   2.103   0.809  16.555  2.2019 -0.7470  0.0353
 4900TIP3    H238896   2.214   0.907  16.525  0.3867  1.4594  0.2614
 4901TIP3   OH238897   4.777   2.183  16.743 -0.5374 -0.6320  0.3182
 4901TIP3    H138898   4.751   2.092  16.727 -3.1900 -0.1996  1.6107
 4901TIP3    H238899   4.796   2.185  16.837 -1.9724  0.4098  0.6167
 4902TIP3   OH238900   2.169   7.029  17.343 -0.5150 -0.5207 -0.0744
 4902TIP3    H138901   2.162   7.082  17.423  2.6444 -0.5457  0.3366
 4902TIP3    H238902   2.228   7.079  17.287 -0.9347 -1.5752 -1.5052
 4903TIP3   OH238903   3.585   4.081  17.772  0.2417 -0.3166 -0.3271
 4903TIP3    H138904   3.501   4.054  17.809  1.2756 -0.2427  2.2654
 4903TIP3    H238905   3.572   4.171  17.744 -0.1794  0.2092  1.4472
 4904TIP3   OH238906   7.681   1.866  16.843  0.0094 -0.1870  0.7521
 4904TIP3    H138907   7.767   1.907  16.847 -0.7041  1.4039  0.2878
 4904TIP3    H238908   7.651   1.866  16.934 -0.3227  1.0882  0.6504
 4905TIP3   OH238909   1.891   4.397  16.338  0.0858  0.4011 -0.2671
 4905TIP3    H138910   1.934   4.344  16.406 -0.9604  0.6477  0.6002
 4905TIP3    H238911   1.951   4.470  16.324  0.3284  0.3337  0.3616
 4906TIP3   OH238912   0.654   5.483  16.344 -0.5125  0.3030 -0.2648
 4906TIP3    H138913   0.698   5.564  16.318  1.7813 -0.6189  0.4894
 4906TIP3    H238914   0.676   5.421  16.275 -1.5921  0.0859 -0.4276
 4907TIP3   OH238915   3.670   0.091  15.866 -0.0142  0.2698 -0.3628
 4907TIP3    H138916   3.645   0.059  15.779 -2.9347  2.8455 -0.6507
 4907TIP3    H238917   3.591   0.080  15.919  1.0509  0.6739  1.3868
 4908TIP3   OH238918   7.773   0.675  16.563 -0.2961  0.1368 -0.6885
 4908TIP3    H138919   7.697   0.636  16.520 -0.2905  0.2731 -0.8236
 4908TIP3    H238920   7.848   0.625  16.531 -0.3958 -0.4538 -0.0219
 4909TIP3   OH238921   5.213   1.909  16.266 -0.1210 -0.2863  0.1092
 4909TIP3    H138922   5.247   1.995  16.241 -2.3265  0.7592  0.5445
 4909TIP3    H238923   5.291   1.859  16.291  1.4059  0.9614 -1.8735
 4910TIP3   OH238924   5.148   1.877  17.485 -0.1380 -0.0852 -0.3186
 4910TIP3    H138925   5.068   1.876  17.432 -0.5924  0.2741  0.3450
 4910TIP3    H238926   5.125   1.828  17.564  0.4901 -0.5056 -0.3924
 4911TIP3   OH238927   3.180   5.911  16.904  0.1671  0.3753 -0.1535
 4911TIP3    H138928   3.114   5.965  16.861  0.3887  1.2409  0.5558
 4911TIP3    H238929   3.213   5.966  16.976  0.9033 -0.4387  0.1528
 4912TIP3   OH238930   1.277   4.379  16.058 -0.0221  0.0864 -0.0546
 4912TIP3    H138931   1.191   4.344  16.083  0.6381  0.2610  2.8948
 4912TIP3    H238932   1.285   4.359  15.965 -2.0018 -2.6327  0.2274
 4913TIP3   OH238933   6.469   1.669  17.233  0.5697 -0.2857 -0.4581
 4913TIP3    H138934   6.522   1.599  17.271 -1.9587 -2.0557  0.0786
 4913TIP3    H238935   6.451   1.729  17.306  0.9800 -0.2262 -0.4065
 4914TIP3   OH238936   4.399   0.212  16.247  0.2068 -0.1464  0.6852
 4914TIP3    H138937   4.488   0.214  16.283  0.6984  0.9550 -0.5042
 4914TIP3    H238938   4.355   0.286  16.289  0.4576  0.4821 -0.1199
 4915TIP3   OH238939   3.793   4.240  16.617 -0.3003 -0.3159 -0.4640
 4915TIP3    H138940   3.745   4.225  16.698 -0.2612 -0.2158 -0.4224
 4915TIP3    H238941   3.840   4.322  16.631  1.2282 -1.2452  0.1446
 4916TIP3   OH238942   1.692   5.505  17.152 -0.6490  0.2098  0.3150
 4916TIP3    H138943   1.682   5.598  17.131  1.3549  0.2898 -0.5333
 4916TIP3    H238944   1.725   5.466  17.072 -3.3174 -1.6853  0.0116
 4917TIP3   OH238945   2.802   5.268  16.280  0.5145 -0.0164 -0.1169
 4917TIP3    H138946   2.797   5.213  16.358  2.8731 -1.3382 -0.8110
 4917TIP3    H238947   2.715   5.308  16.274  0.1489 -0.1113  2.9660
 4918TIP3   OH238948   6.875   4.028  17.266 -0.4244 -0.3028 -0.4323
 4918TIP3    H138949   6.934   4.011  17.340 -1.0137  2.6375  0.8747
 4918TIP3    H238950   6.929   4.077  17.204 -0.2438 -1.8018 -1.5112
 4919TIP3   OH238951   1.718   8.268  15.597  0.0455 -0.2883 -0.1269
 4919TIP3    H138952   1.778   8.194  15.605 -0.5415 -0.6860  0.6935
 4919TIP3    H238953   1.758   8.324  15.530  1.7108 -0.1588  0.9342
 4920TIP3   OH238954   4.736   1.897  16.802  0.0389 -0.1755  0.7943
 4920TIP3    H138955   4.712   1.883  16.893 -2.1353  0.4506  0.3870
 4920TIP3    H238956   4.799   1.827  16.782 -0.7623 -1.3817  2.2972
 4921TIP3   OH238957   7.562   7.981  15.791 -1.1725  0.4626  0.1373
 4921TIP3    H138958   7.504   7.906  15.779 -0.3540  0.0513 -1.4944
 4921TIP3    H238959   7.648   7.942  15.807 -0.5262  1.0093 -1.8137
 4922TIP3   OH238960   7.309   5.952  17.797 -0.2875 -0.0914  0.4290
 4922TIP3    H138961   7.367   5.880  17.820  0.2225 -0.0367 -0.6297
 4922TIP3    H238962   7.242   5.912  17.742  0.7362  0.4224 -1.2832
 4923TIP3   OH238963   5.904   7.900  17.202 -0.0752 -0.1643  0.2715
 4923TIP3    H138964   5.985   7.902  17.150 -0.5393 -0.0756 -0.4630
 4923TIP3    H238965   5.894   7.990  17.234 -0.6606  0.1968 -0.8767
 4924TIP3   OH238966   2.626   6.927  16.930  0.0316 -0.0766 -0.3789
 4924TIP3    H138967   2.683   6.987  16.882 -0.2933  0.0509 -0.6009
 4924TIP3    H238968   2.593   6.867  16.864 -1.2355  0.7257 -0.4911
 4925TIP3   OH238969   2.660   8.378  15.881 -0.5620  0.0231  0.3163
 4925TIP3    H138970   2.567   8.373  15.902 -0.6514  0.4489  0.0567
 4925TIP3    H238971   2.664   8.364  15.786 -0.4037  0.3495  0.2705
 4926TIP3   OH238972   3.499   3.078  16.991 -0.4928 -0.0288  0.3294
 4926TIP3    H138973   3.491   3.159  17.042  1.7215 -0.3024  1.2491
 4926TIP3    H238974   3.485   3.008  17.055 -1.3123 -0.3862 -0.2315
 4927TIP3   OH238975   3.296   3.759  17.843 -0.0424  0.3649 -0.1001
 4927TIP3    H138976   3.260   3.824  17.783 -0.9229 -0.0113  0.0039
 4927TIP3    H238977   3.313   3.807  17.924 -1.6706  0.2966  0.3317
 4928TIP3   OH238978   3.191   6.905  17.041 -1.2973 -0.0833 -0.3003
 4928TIP3    H138979   3.254   6.834  17.030  0.1659  1.3313 -1.5091
 4928TIP3    H238980   3.212   6.942  17.127 -0.3806  0.4519 -0.7455
 4929TIP3   OH238981   8.312   1.458  16.533 -0.1797  0.6474  0.1865
 4929TIP3    H138982   8.238   1.519  16.539 -0.6042  0.3340 -1.3741
 4929TIP3    H238983   8.273   1.372  16.544  0.0386  0.5218 -0.0080
 4930TIP3   OH238984   3.892   6.705  15.947 -0.3811  0.4297  0.3419
 4930TIP3    H138985   3.916   6.619  15.911 -0.7598  0.9739 -1.2946
 4930TIP3    H238986   3.809   6.725  15.905 -0.6000  1.3313  1.1969
 4931TIP3   OH238987   0.736   8.227  17.214  0.5613 -0.5314  0.1011
 4931TIP3    H138988   0.670   8.176  17.262 -0.6830  0.4071 -0.5636
 4931TIP3    H238989   0.798   8.255  17.281  0.7177 -2.0315  0.6348
 4932TIP3   OH238990   6.175   3.004  17.859 -0.0934 -0.9120 -0.1445
 4932TIP3    H138991   6.121   3.046  17.926  1.9562  1.5856  0.1289
 4932TIP3    H238992   6.159   3.056  17.780  1.6219 -0.2688 -0.1087
 4933TIP3   OH238993   0.856   1.538  17.918 -0.1309 -0.3048  0.3426
 4933TIP3    H138994   0.877   1.458  17.967 -0.9236 -0.3134  0.6775
 4933TIP3    H238995   0.842   1.605  17.985 -0.4727 -0.1292  0.1020
 4934TIP3   OH238996   1.462   6.012  17.711  0.0877  0.3550  0.4097
 4934TIP3    H138997   1.394   6.066  17.753 -1.5074 -0.3317 -1.1670
 4934TIP3    H238998   1.544   6.048  17.745 -0.9422  2.8862  0.5023
 4935TIP3   OH238999   8.013   4.440  16.192  0.5427 -0.0700 -0.0640
 4935TIP3    H139000   8.023   4.449  16.098  1.1224 -0.3091 -0.0351
 4935TIP3    H239001   8.073   4.505  16.229 -1.4414  1.7442  0.1724
 4936TIP3   OH239002   5.246   0.157  17.966 -0.4986  0.3849  0.0585
 4936TIP3    H139003   5.210   0.154  17.878 -0.5164  0.2027  0.0731
 4936TIP3    H239004   5.326   0.105  17.961 -0.2235  0.8061  0.0206
 4937TIP3   OH239005   8.027   3.504  18.266  0.3044  0.0445 -0.0627
 4937TIP3    H139006   8.028   3.547  18.352 -0.3765  2.5159 -1.1926
 4937TIP3    H239007   8.119   3.481  18.250  0.4426 -0.4347  1.2926
 4938TIP3   OH239008   8.220   1.666  17.980  0.1781 -0.0338  0.3304
 4938TIP3    H139009   8.161   1.607  18.028  0.4070  0.4363  1.1997
 4938TIP3    H239010   8.164   1.704  17.912  0.1640 -1.6974 -0.6671
 4939TIP3   OH239011   7.926   5.979  17.427  0.0456  0.1200  0.3000
 4939TIP3    H139012   7.933   6.069  17.459  0.2313 -0.0660  0.7906
 4939TIP3    H239013   7.915   5.926  17.506  0.9270 -0.3829  0.1039
 4940TIP3   OH239014   8.027   0.739  16.742 -0.4275 -0.1239 -0.1987
 4940TIP3    H139015   7.942   0.750  16.699  0.1450 -1.0554 -1.6623
 4940TIP3    H239016   8.020   0.790  16.823 -1.8368  1.0779 -1.0258
 4941TIP3   OH239017   5.819   4.855  16.233  0.0747 -0.3488  0.0453
 4941TIP3    H139018   5.811   4.951  16.228 -1.0625 -0.3467  1.2750
 4941TIP3    H239019   5.861   4.839  16.317 -0.8556 -0.9411  0.4170
 4942TIP3   OH239020   4.969   5.609  17.445  0.7768  0.2874 -0.0780
 4942TIP3    H139021   4.882   5.584  17.476  0.7227  0.7557  0.1561
 4942TIP3    H239022   5.030   5.569  17.507  0.6904  0.7260  0.2979
 4943TIP3   OH239023   4.885   6.631  16.894  0.3020 -0.0368 -0.4995
 4943TIP3    H139024   4.928   6.665  16.973  0.6049 -1.8091  0.1283
 4943TIP3    H239025   4.942   6.561  16.863 -0.5298 -0.2926 -1.4963
 4944TIP3   OH239026   7.970   1.513  18.033 -0.3153 -0.3833 -0.5672
 4944TIP3    H139027   7.965   1.480  18.122  1.4514  1.0009  0.1205
 4944TIP3    H239028   7.883   1.548  18.015 -1.4387 -2.8289 -0.3513
 4945TIP3   OH239029   2.662   3.873  17.965 -0.3424 -0.3466  0.0397
 4945TIP3    H139030   2.666   3.931  17.889 -2.3016  0.9095  0.8241
 4945TIP3    H239031   2.576   3.831  17.958 -0.6238 -0.0906  1.6073
 4946TIP3   OH239032   7.279   1.963  17.812  0.4713 -0.0214  0.1879
 4946TIP3    H139033   7.245   2.049  17.837 -0.9462 -0.7487  0.8756
 4946TIP3    H239034   7.226   1.936  17.737 -0.1114 -0.9063  0.8914
 4947TIP3   OH239035   2.910   4.311  16.001  0.2935 -0.5724  0.5633
 4947TIP3    H139036   2.955   4.297  15.918 -0.6625  0.8681 -0.2354
 4947TIP3    H239037   2.846   4.240  16.007 -2.2704  1.3369 -1.8432
 4948TIP3   OH239038   6.348   7.024  18.030  0.2527  0.0868 -0.2569
 4948TIP3    H139039   6.380   7.033  17.940  0.9337  0.9168  0.0490
 4948TIP3    H239040   6.421   6.982  18.076  1.1570  2.3848  0.5412
 4949TIP3   OH239041   0.807   1.299  16.776  0.1570  0.1866 -0.3231
 4949TIP3    H139042   0.711   1.297  16.773  0.0546  1.0360  1.1217
 4949TIP3    H239043   0.834   1.309  16.685 -1.0660 -1.4738 -0.9231
 4950TIP3   OH239044   2.888   6.693  15.467 -0.1075 -0.1554 -0.1560
 4950TIP3    H139045   2.834   6.772  15.469 -0.1498 -0.1794 -0.3946
 4950TIP3    H239046   2.826   6.622  15.452  0.0323 -0.1460 -0.7912
 4951TIP3   OH239047   7.234   6.085  16.563 -0.2855  0.3319 -0.0956
 4951TIP3    H139048   7.310   6.131  16.527 -1.3000  0.6594 -1.9268
 4951TIP3    H239049   7.252   5.992  16.546  0.2476  0.3013  0.5934
 4952TIP3   OH239050   8.208   5.690  17.767  0.7368  0.0085 -0.0095
 4952TIP3    H139051   8.158   5.623  17.814  3.0463 -1.6433  0.2661
 4952TIP3    H239052   8.287   5.703  17.820  2.1627  0.0259 -2.0178
 4953TIP3   OH239053   7.766   4.649  16.432  0.1812  0.3488 -0.0973
 4953TIP3    H139054   7.775   4.690  16.346 -0.3871 -0.3404 -0.4987
 4953TIP3    H239055   7.746   4.557  16.413  1.1526 -0.0665  0.7785
 4954TIP3   OH239056   5.085   0.967  16.795 -0.8183  0.1350  0.2218
 4954TIP3    H139057   5.082   0.877  16.764 -1.1696 -0.0869  0.8808
 4954TIP3    H239058   5.173   0.977  16.831 -0.2357  0.5452 -1.2477
 4955TIP3   OH239059   1.252   6.749  15.776 -0.6282  1.0838 -0.0673
 4955TIP3    H139060   1.347   6.755  15.781 -0.6467  1.1003  0.2449
 4955TIP3    H239061   1.236   6.687  15.704 -0.3622 -0.1709  0.9216
 4956TIP3   OH239062   6.240   4.050  16.510  0.2124  0.1587  0.2501
 4956TIP3    H139063   6.214   3.959  16.497 -0.3253  0.2240  0.8054
 4956TIP3    H239064   6.160   4.100  16.495  0.9015  0.7338 -1.9242
 4957TIP3   OH239065   1.017   7.563  15.432  0.4042 -0.5184 -0.0798
 4957TIP3    H139066   1.100   7.542  15.474  0.1320  1.2472  1.4889
 4957TIP3    H239067   0.982   7.478  15.405  0.9826 -1.7248  2.6195
 4958TIP3   OH239068   6.095   6.389  17.953 -0.0369 -0.6875  0.3492
 4958TIP3    H139069   6.149   6.376  17.875 -2.4204  1.4144 -1.8051
 4958TIP3    H239070   6.122   6.474  17.987 -2.5387  0.9317 -1.4064
 4959TIP3   OH239071   1.845   5.767  18.010  0.3053  0.0412  0.6134
 4959TIP3    H139072   1.881   5.691  17.964 -1.0849  1.2329 -2.8000
 4959TIP3    H239073   1.750   5.751  18.010 -0.1754  2.2053 -1.3916
 4960TIP3   OH239074   2.352   5.876  17.947 -0.3810  0.8714  0.1931
 4960TIP3    H139075   2.315   5.960  17.919  1.9952  1.8466 -0.2208
 4960TIP3    H239076   2.441   5.875  17.912  0.1643 -1.1894  1.4222
 4961TIP3   OH239077   6.174   2.985  17.183 -1.2267  0.0065 -0.0877
 4961TIP3    H139078   6.250   3.043  17.187 -1.3420  0.2202 -0.7876
 4961TIP3    H239079   6.210   2.897  17.200 -0.5626 -0.0971 -1.7617
 4962TIP3   OH239080   0.739   2.536  17.576  0.0789 -0.2560  0.0420
 4962TIP3    H139081   0.729   2.464  17.514 -0.4337 -0.7021  0.6381
 4962TIP3    H239082   0.834   2.542  17.590  0.0309 -2.1499  1.5287
 4963TIP3   OH239083   4.877   7.561  15.927 -0.6217  0.2707 -0.6188
 4963TIP3    H139084   4.934   7.484  15.926 -1.4142 -0.4204  1.5237
 4963TIP3    H239085   4.813   7.544  15.857 -0.1622 -0.4979 -0.8647
 4964TIP3   OH239086   0.449   8.277  17.061  0.2899 -0.1175 -0.4800
 4964TIP3    H139087   0.525   8.325  17.028 -0.2054  0.5840 -0.6256
 4964TIP3    H239088   0.375   8.336  17.046 -0.4383 -1.2050 -1.3190
 4965TIP3   OH239089   1.349   7.505  16.202  0.4178 -0.1241 -0.1645
 4965TIP3    H139090   1.310   7.573  16.147  1.0964  1.5939  1.3707
 4965TIP3    H239091   1.283   7.488  16.269  0.5174 -0.5267 -0.1634
 4966TIP3   OH239092   5.015   1.727  16.325 -0.1457 -0.0618  0.0753
 4966TIP3    H139093   5.092   1.780  16.303 -0.3621 -0.0429 -0.6543
 4966TIP3    H239094   4.944   1.790  16.335  0.1848  0.0466  2.0213
 4967TIP3   OH239095   8.092   5.427  17.541 -0.5745  0.3151 -0.0716
 4967TIP3    H139096   8.039   5.350  17.565  0.6005  0.0047  1.7277
 4967TIP3    H239097   8.068   5.493  17.606  1.9680 -0.2109  1.5742
 4968TIP3   OH239098   6.522   0.928  16.214  0.2273  0.0533 -0.4247
 4968TIP3    H139099   6.598   0.954  16.162  0.9679 -1.6269 -0.2339
 4968TIP3    H239100   6.454   0.990  16.188  1.1791  0.5612 -1.8401
 4969TIP3   OH239101   1.967   1.901  16.668  0.5464  0.0351 -0.4514
 4969TIP3    H139102   2.001   1.833  16.726  2.1091 -0.6265 -2.0315
 4969TIP3    H239103   1.891   1.861  16.625  0.3004 -0.0062  0.0164
 4970TIP3   OH239104   6.784   7.992  16.033  0.1340 -0.4000  0.4597
 4970TIP3    H139105   6.817   7.979  16.122 -0.2633  0.6370  0.7823
 4970TIP3    H239106   6.803   7.911  15.988 -0.3543 -1.2466  1.7139
 4971TIP3   OH239107   2.729   1.963  17.310 -0.2811  0.3899  0.2732
 4971TIP3    H139108   2.651   1.915  17.339 -0.7747  1.0052 -0.0076
 4971TIP3    H239109   2.774   1.986  17.391 -1.4522  1.7675  0.5744
 4972TIP3   OH239110   3.045   0.446  16.484 -0.0011 -0.2874  0.1493
 4972TIP3    H139111   3.008   0.464  16.571 -0.9417  1.3463 -0.5566
 4972TIP3    H239112   3.113   0.511  16.473 -0.9509  0.5560 -0.9567
 4973TIP3   OH239113   0.408   8.174  16.543 -0.1162 -0.1857  0.3870
 4973TIP3    H139114   0.360   8.198  16.465  1.9765 -0.9372 -1.2212
 4973TIP3    H239115   0.419   8.256  16.591 -2.2173  0.1322  0.4239
 4974TIP3   OH239116   4.816   0.474  17.523  0.0967  0.5837  0.1652
 4974TIP3    H139117   4.726   0.463  17.556  0.3418 -0.3488  0.5415
 4974TIP3    H239118   4.837   0.566  17.541 -0.6519  0.7156  0.4025
 4975TIP3   OH239119   1.073   1.087  16.231 -0.3587  0.6733 -0.3990
 4975TIP3    H139120   1.153   1.105  16.280 -0.2383 -1.1742  0.1590
 4975TIP3    H239121   1.103   1.043  16.151 -0.8130 -2.8703  1.1526
 4976TIP3   OH239122   1.768   8.404  15.974 -0.7258  0.4160 -0.3522
 4976TIP3    H139123   1.810   8.451  15.901  3.4095 -1.5344  0.5005
 4976TIP3    H239124   1.760   8.314  15.943 -0.3721 -0.1163  1.0396
 4977TIP3   OH239125   4.671   3.239  16.702 -0.4292 -0.5540  0.3136
 4977TIP3    H139126   4.754   3.197  16.725  0.6757  0.5464 -1.4441
 4977TIP3    H239127   4.685   3.273  16.614 -2.1377  1.2725  0.6815
 4978TIP3   OH239128   7.718   7.240  15.616  0.2327 -0.1421  0.0495
 4978TIP3    H139129   7.745   7.175  15.551 -0.0750  0.8136 -1.0652
 4978TIP3    H239130   7.799   7.285  15.640  0.0800  0.7576 -1.0899
 4979TIP3   OH239131   2.346   4.670  16.533 -0.4058  0.3664  0.3293
 4979TIP3    H139132   2.272   4.634  16.486  0.3906  0.9059 -1.4419
 4979TIP3    H239133   2.390   4.594  16.571  0.3455 -0.4391 -1.9746
 4980TIP3   OH239134   8.004   0.630  17.802 -0.0861  0.5528  0.0300
 4980TIP3    H139135   7.912   0.607  17.788 -0.0856  2.2550 -4.0655
 4980TIP3    H239136   8.002   0.722  17.830  0.3961  0.6292 -0.1788
 4981TIP3   OH239137   1.979   7.155  16.098 -0.0458 -0.1073 -0.0011
 4981TIP3    H139138   2.071   7.135  16.081 -0.6426 -2.4541 -0.8004
 4981TIP3    H239139   1.932   7.121  16.022 -1.6021  1.1441  0.3345
 4982TIP3   OH239140   4.556   1.819  15.667 -0.3186  0.4559 -0.2044
 4982TIP3    H139141   4.638   1.860  15.695 -0.3171 -0.0853  0.6328
 4982TIP3    H239142   4.521   1.878  15.600 -0.2037  1.7174  0.8061
 4983TIP3   OH239143   4.574   3.604  16.569 -0.4064 -0.3266  0.6627
 4983TIP3    H139144   4.556   3.574  16.659 -2.5817 -0.0249  0.3669
 4983TIP3    H239145   4.488   3.613  16.529  0.4791  0.6584 -1.1239
 4984TIP3   OH239146   1.853   0.266  17.517 -0.3581  1.0980 -0.9039
 4984TIP3    H139147   1.939   0.237  17.547 -1.2075  0.0732  0.7501
 4984TIP3    H239148   1.850   0.359  17.538 -0.0658  0.8898  0.1344
 4985TIP3   OH239149   2.221   3.822  16.626  0.1216  0.0059 -0.5552
 4985TIP3    H139150   2.241   3.731  16.648 -0.7052 -0.0567 -0.0478
 4985TIP3    H239151   2.126   3.824  16.614  0.2964  0.4624 -2.1737
 4986TIP3   OH239152   8.284   1.168  16.730  0.2437  0.1779 -0.3957
 4986TIP3    H139153   8.204   1.213  16.757 -0.6614 -1.1228 -0.7658
 4986TIP3    H239154   8.261   1.127  16.647  0.7323 -1.5922  0.2901
 4987TIP3   OH239155   2.864   7.089  17.052 -0.1527  0.1360  0.0353
 4987TIP3    H139156   2.848   7.002  17.088 -0.2401 -0.2097 -0.8161
 4987TIP3    H239157   2.833   7.084  16.962 -0.2742  1.0904  0.0152
 4988TIP3   OH239158   0.959   7.150  17.006  0.2799 -0.3375  0.2700
 4988TIP3    H139159   0.945   7.116  17.094  2.1865 -1.4645  0.1857
 4988TIP3    H239160   0.938   7.076  16.948  0.4742 -0.0855 -0.1281
 4989TIP3   OH239161   8.339   3.279  18.068  0.3543 -0.3750 -0.2492
 4989TIP3    H139162   8.251   3.290  18.031  0.1023 -1.4896 -0.0008
 4989TIP3    H239163   8.395   3.264  17.993 -0.3128 -3.6842 -0.2265
 4990TIP3   OH239164   5.167   6.550  17.517 -0.5286  0.1625 -0.0675
 4990TIP3    H139165   5.220   6.477  17.485  0.1311  0.8684 -0.6070
 4990TIP3    H239166   5.227   6.601  17.572 -0.7854  0.6853 -0.2653
 4991TIP3   OH239167   5.121   6.055  16.886  0.4161  0.3412 -0.0391
 4991TIP3    H139168   5.130   6.142  16.846 -1.1529  0.0897 -1.0626
 4991TIP3    H239169   5.027   6.047  16.903  0.6745 -0.7776  0.9323
 4992TIP3   OH239170   7.123   4.363  16.404 -0.1542  0.0307 -0.3635
 4992TIP3    H139171   7.141   4.414  16.325  0.5478  0.0250 -0.2082
 4992TIP3    H239172   7.135   4.425  16.476 -0.8775  0.0583 -0.2592
 4993TIP3   OH239173   2.368   2.713  16.950  0.4728 -0.4260  0.0210
 4993TIP3    H139174   2.362   2.792  16.897  1.2419 -0.6454 -0.4233
 4993TIP3    H239175   2.289   2.713  17.004  0.2122  0.3673 -0.3498
 4994TIP3   OH239176   8.380   0.603  17.518  0.3480 -0.2410 -0.0498
 4994TIP3    H139177   8.435   0.525  17.516  0.4090 -0.2426  1.0908
 4994TIP3    H239178   8.308   0.581  17.577 -0.5932 -0.0376 -1.0775
 4995TIP3   OH239179   3.575   7.565  16.708 -0.5034 -0.2842 -0.3763
 4995TIP3    H139180   3.582   7.521  16.624 -1.0317  0.3804 -0.7752
 4995TIP3    H239181   3.666   7.588  16.731 -0.3280 -0.7369 -0.6085
 4996TIP3   OH239182   7.648   6.571  17.452  0.2611  0.0198 -0.2534
 4996TIP3    H139183   7.631   6.505  17.385 -0.7231  1.1769 -1.1908
 4996TIP3    H239184   7.674   6.649  17.404  4.3928 -0.3872  0.9345
 4997TIP3   OH239185   2.467   2.544  17.208  0.8136  0.1287 -0.4413
 4997TIP3    H139186   2.390   2.529  17.262  0.3413  1.9647 -0.5437
 4997TIP3    H239187   2.436   2.601  17.137  2.2314  0.8240 -0.5342
 4998TIP3   OH239188   3.450   5.804  17.138  0.3927  0.5546 -0.2389
 4998TIP3    H139189   3.360   5.823  17.164  0.3172 -0.5937  0.3980
 4998TIP3    H239190   3.448   5.713  17.108  1.1449  0.8355 -1.2082
 4999TIP3   OH239191   8.261   2.671  17.608  0.0085 -0.2066  0.4216
 4999TIP3    H139192   8.238   2.762  17.587 -0.0474 -0.0897  0.9869
 4999TIP3    H239193   8.351   2.662  17.576  0.0315  0.0580  0.4052
 5000TIP3   OH239194   2.716   3.307  17.985  0.5706  0.2008 -0.0011
 5000TIP3    H139195   2.650   3.282  17.921  2.0753 -0.8009 -1.2236
 5000TIP3    H239196   2.718   3.403  17.982  0.2665  0.1848 -1.0826
 5001TIP3   OH239197   7.246   2.488  17.486  0.3118 -0.5545 -0.2596
 5001TIP3    H139198   7.211   2.548  17.420 -0.4824 -1.2811 -0.5136
 5001TIP3    H239199   7.181   2.488  17.556  1.4821  0.7663  0.8934
 5002TIP3   OH239200   8.273   1.400  17.620  0.4130 -0.0476 -0.8818
 5002TIP3    H139201   8.350   1.452  17.643  1.6822 -1.1802 -2.3626
 5002TIP3    H239202   8.224   1.392  17.702  2.1568  0.2296  0.2306
 5003TIP3   OH239203   8.148   7.928  17.634  0.1135  0.2729  0.3821
 5003TIP3    H139204   8.166   8.020  17.654  0.7292 -0.0994  1.6640
 5003TIP3    H239205   8.081   7.931  17.566 -0.4220  1.6655  0.9279
 5004TIP3   OH239206   3.900   6.332  17.714  0.6228  0.6246  0.2327
 5004TIP3    H139207   3.938   6.260  17.664  0.4749  0.6619  0.0664
 5004TIP3    H239208   3.975   6.388  17.735  0.8355  0.0809  0.9428
 5005TIP3   OH239209   4.791   8.334  15.991 -0.1208  0.4296 -0.2372
 5005TIP3    H139210   4.742   8.412  15.962 -0.6823  0.4619  0.7517
 5005TIP3    H239211   4.883   8.359  15.982 -0.2939  1.4543  0.6803
 5006TIP3   OH239212   7.265   8.351  17.603  0.6029 -0.3904 -0.4691
 5006TIP3    H139213   7.306   8.413  17.663 -0.5331 -0.6994  0.6559
 5006TIP3    H239214   7.331   8.283  17.591  0.6934 -0.5377  0.7706
 5007TIP3   OH239215   3.994   6.931  16.070 -0.3780 -0.0605 -0.2153
 5007TIP3    H139216   3.920   6.989  16.089 -0.2989  0.2957 -0.9794
 5007TIP3    H239217   3.954   6.846  16.051 -0.6801  0.3900 -1.6990
 5008TIP3   OH239218   5.476   1.963  16.925 -0.4203  0.3082 -0.4976
 5008TIP3    H139219   5.386   1.980  16.952 -0.5636  0.9088 -1.3460
 5008TIP3    H239220   5.528   2.028  16.971 -0.5761  0.8178 -1.0295
 5009TIP3   OH239221   3.196   4.850  17.595  0.5400 -0.0503 -0.3292
 5009TIP3    H139222   3.233   4.889  17.516  0.7791  1.1153  0.3324
 5009TIP3    H239223   3.101   4.862  17.585  0.4156 -1.5124 -1.2367
 5010TIP3   OH239224   8.369   0.287  17.787 -0.3253 -0.0736 -0.2948
 5010TIP3    H139225   8.295   0.343  17.810 -2.4165 -2.7904  0.0293
 5010TIP3    H239226   8.420   0.280  17.868  0.4248  1.8384 -0.5297
 5011TIP3   OH239227   7.641   7.733  17.852 -0.0120  0.2510  0.0285
 5011TIP3    H139228   7.721   7.735  17.800 -0.0587  1.0570 -0.0149
 5011TIP3    H239229   7.664   7.777  17.934 -0.8693  2.0702 -0.6681
 5012TIP3   OH239230   3.992   3.130  17.698  0.5681 -0.1976  0.5725
 5012TIP3    H139231   3.985   3.186  17.620  2.4417 -0.2350  0.3322
 5012TIP3    H239232   3.939   3.174  17.764  0.9002  1.1457 -0.0264
 5013TIP3   OH239233   8.403   2.211  16.429 -0.0028  0.2142  0.2397
 5013TIP3    H139234   8.362   2.151  16.366 -2.3728 -0.0000  1.8490
 5013TIP3    H239235   8.358   2.295  16.414  0.3061  0.4831  0.8099
 5014TIP3   OH239236   3.822   1.295  16.378  0.0178 -0.1274  0.2834
 5014TIP3    H139237   3.904   1.246  16.389 -0.6068 -1.6382 -1.3927
 5014TIP3    H239238   3.848   1.373  16.329  0.3649 -1.0272 -1.0279
 5015TIP3   OH239239   7.158   3.869  17.385 -0.5102 -0.3747  0.2026
 5015TIP3    H139240   7.168   3.960  17.357  1.2512 -0.3235  0.8516
 5015TIP3    H239241   7.242   3.828  17.364 -0.1938 -1.0950  2.5317
 5016TIP3   OH239242   3.053   6.090  17.712  0.3967 -0.2096  0.4122
 5016TIP3    H139243   2.958   6.089  17.712  0.3972 -0.3851  0.4446
 5016TIP3    H239244   3.077   6.171  17.757  0.2629  1.0064 -1.5793
 5017TIP3   OH239245   6.264   1.017  15.870  0.0531  0.2475 -0.1639
 5017TIP3    H139246   6.320   0.994  15.797 -0.0351  1.0701 -0.4994
 5017TIP3    H239247   6.236   0.933  15.906  0.4744 -0.1633 -0.7778
 5018TIP3   OH239248   3.922   5.954  17.635 -0.0329  0.4913  0.3279
 5018TIP3    H139249   3.973   5.874  17.625 -1.3932 -0.5089  0.9074
 5018TIP3    H239250   3.866   5.936  17.711 -3.3092  0.3128 -1.9123
 5019TIP3   OH239251   5.705   6.423  16.828 -0.4208  0.5156 -0.3145
 5019TIP3    H139252   5.697   6.452  16.919  0.8579 -0.5106  0.1527
 5019TIP3    H239253   5.785   6.464  16.797 -0.4326  0.2296 -0.7323
 5020TIP3   OH239254   1.924   1.981  16.157 -0.6068 -0.1149 -0.3750
 5020TIP3    H139255   1.850   1.970  16.217 -1.2363 -0.4368 -1.1836
 5020TIP3    H239256   2.000   1.950  16.206 -1.2426 -1.1892 -0.0521
 5021TIP3   OH239257   4.955   0.341  16.872  0.5721  0.5129 -0.4393
 5021TIP3    H139258   4.911   0.306  16.950  0.2411  2.7614  0.4892
 5021TIP3    H239259   5.046   0.353  16.899  0.2608  2.2088  0.0197
 5022TIP3   OH239260   2.033   5.796  15.919  0.2607  0.4662 -0.0292
 5022TIP3    H139261   1.983   5.845  15.854  0.7463  2.3702  0.9699
 5022TIP3    H239262   2.123   5.800  15.888  0.3507  0.4786  0.2362
 5023TIP3   OH239263   8.414   0.001  17.776 -0.2906 -0.8340  0.1254
 5023TIP3    H139264   8.480  -0.021  17.842  0.2602 -0.7991 -0.4038
 5023TIP3    H239265   8.377   0.084  17.806 -0.8057 -1.3575  0.9520
 5024TIP3   OH239266   1.771   5.249  17.686  0.1929  0.6752 -0.3091
 5024TIP3    H139267   1.729   5.330  17.656 -2.6398  0.5135  2.6683
 5024TIP3    H239268   1.715   5.179  17.652  0.7379  0.1687 -0.1755
 5025TIP3   OH239269   3.427   3.794  16.892  0.5248  0.0407 -0.0587
 5025TIP3    H139270   3.484   3.826  16.962 -1.2510  1.3735  0.8447
 5025TIP3    H239271   3.363   3.738  16.936 -0.2190  0.3713 -0.7036
 5026TIP3   OH239272   3.165   3.312  16.632  0.1279 -0.0230 -0.7820
 5026TIP3    H139273   3.208   3.398  16.624 -0.3784  0.2116 -1.0330
 5026TIP3    H239274   3.110   3.320  16.710 -0.1208 -0.0301 -0.9562
 5027TIP3   OH239275   3.426   0.302  16.981 -0.2493 -0.4655 -0.3639
 5027TIP3    H139276   3.362   0.349  17.036 -0.2359  1.2643 -1.7492
 5027TIP3    H239277   3.510   0.343  17.002  0.5301 -2.7821  1.5110
 5028TIP3   OH239278   1.709   7.210  16.891 -0.0914 -0.4133 -0.1909
 5028TIP3    H139279   1.722   7.183  16.982 -1.1128  1.3902  0.5345
 5028TIP3    H239280   1.624   7.174  16.866 -2.3902  3.3860  1.4129
 5029TIP3   OH239281   1.923   2.713  17.687 -0.2633  0.2903  0.4223
 5029TIP3    H139282   1.905   2.800  17.724 -1.6485  0.2406 -0.0582
 5029TIP3    H239283   1.909   2.653  17.761 -1.1919  0.3437  0.3098
 5030TIP3   OH239284   1.025   6.706  17.627 -0.6023 -0.1370 -0.0080
 5030TIP3    H139285   1.014   6.800  17.642  1.1148  0.6774 -2.9742
 5030TIP3    H239286   1.116   6.688  17.650  0.0800 -0.2634 -2.5450
 5031TIP3   OH239287   2.629   6.727  17.835 -0.2164  0.3881 -0.0632
 5031TIP3    H139288   2.665   6.813  17.855  0.3205  0.4322 -1.1455
 5031TIP3    H239289   2.547   6.723  17.885  0.1154  1.2173  0.5811
 5032TIP3   OH239290   1.874   0.177  16.276  0.4400 -0.1136 -0.0031
 5032TIP3    H139291   1.834   0.124  16.345 -1.8694  0.0920 -1.0581
 5032TIP3    H239292   1.843   0.266  16.293  0.7069  0.1159 -0.6686
 5033TIP3   OH239293   1.424   4.826  17.020  0.3279  0.4531 -0.1126
 5033TIP3    H139294   1.442   4.804  16.929  1.4022  0.3624  0.1117
 5033TIP3    H239295   1.382   4.748  17.056  0.3427  0.3141 -0.3989
 5034TIP3   OH239296   3.266   0.607  16.382  0.4657  0.0640  0.1042
 5034TIP3    H139297   3.280   0.519  16.349 -0.9845  0.1329 -0.7381
 5034TIP3    H239298   3.350   0.652  16.367  0.5942 -0.6047 -1.2433
 5035TIP3   OH239299   0.633   8.356  16.132 -0.5239 -0.1495  0.0836
 5035TIP3    H139300   0.683   8.275  16.122 -1.2679 -0.6581  0.3976
 5035TIP3    H239301   0.585   8.365  16.049 -0.9570 -0.3946  0.3045
 5036TIP3   OH239302   0.330   7.425  16.926 -0.2499  0.0097 -0.2003
 5036TIP3    H139303   0.318   7.479  16.848 -1.4710  2.3009  1.4531
 5036TIP3    H239304   0.401   7.468  16.974 -1.2891  0.2464  1.1889
 5037TIP3   OH239305   6.768   2.299  17.275 -0.4390 -0.6654 -0.0749
 5037TIP3    H139306   6.732   2.298  17.187 -2.1126  1.0760  0.5117
 5037TIP3    H239307   6.862   2.286  17.263 -0.8943 -3.0944 -1.8673
 5038TIP3   OH239308   2.497   5.065  16.393 -0.3248  0.2451  0.4787
 5038TIP3    H139309   2.568   5.044  16.454  1.1991  0.4194 -1.1411
 5038TIP3    H239310   2.502   5.160  16.384 -0.8409  0.2674  0.4413
 5039TIP3   OH239311   4.371   5.492  16.287 -0.1051 -0.2297 -0.1430
 5039TIP3    H139312   4.346   5.500  16.379 -0.1255 -0.8620 -0.0898
 5039TIP3    H239313   4.288   5.501  16.239  0.1706  2.3140 -0.2470
 5040TIP3   OH239314   1.230   0.736  17.095  0.0434  0.8719  0.0321
 5040TIP3    H139315   1.230   0.641  17.109 -1.6577  0.8007 -0.2415
 5040TIP3    H239316   1.312   0.766  17.135  2.1890 -1.0399 -2.5726
 5041TIP3   OH239317   4.664   4.464  17.045  0.0196  0.5643  0.2636
 5041TIP3    H139318   4.661   4.507  16.959  0.4528  0.6192  0.2749
 5041TIP3    H239319   4.749   4.420  17.048 -1.8972 -3.7866 -1.3925
 5042TIP3   OH239320   1.924   2.400  16.832 -0.0677  0.1751  0.1116
 5042TIP3    H139321   2.006   2.415  16.879 -0.5608  2.4458  0.3463
 5042TIP3    H239322   1.861   2.381  16.901  0.0984 -1.0021 -0.0306
 5043TIP3   OH239323   8.236   3.205  16.568  0.0606 -0.3433 -0.0150
 5043TIP3    H139324   8.190   3.177  16.648 -0.4133 -0.2816 -0.2632
 5043TIP3    H239325   8.329   3.195  16.589 -0.0614 -0.3233  0.5472
 5044TIP3   OH239326   3.318   1.004  16.460  0.1368  0.5002  0.0910
 5044TIP3    H139327   3.405   1.039  16.479 -0.1927  1.5655 -0.3053
 5044TIP3    H239328   3.311   1.007  16.365 -0.0268 -0.3590  0.0660
 5045TIP3   OH239329   7.485   2.282  16.351 -0.0711  0.0756  0.8052
 5045TIP3    H139330   7.442   2.341  16.289  1.3133  0.2164 -0.0730
 5045TIP3    H239331   7.456   2.313  16.437  1.2489  2.6461  0.4477
 5046TIP3   OH239332   2.604   0.545  16.620  0.4252 -0.6216  0.2312
 5046TIP3    H139333   2.636   0.556  16.709 -0.7450  1.3273  0.4584
 5046TIP3    H239334   2.524   0.494  16.629  0.1642 -0.1975  0.3340
 5047TIP3   OH239335   1.174   7.070  17.857  0.2707 -0.2673 -0.2226
 5047TIP3    H139336   1.219   7.108  17.933 -1.6286  2.1386 -0.1624
 5047TIP3    H239337   1.208   7.120  17.782 -0.6258  0.0403 -0.4341
 5048TIP3   OH239338   7.611   6.405  16.694  0.2028 -0.1645 -0.1338
 5048TIP3    H139339   7.560   6.482  16.670 -0.6989 -0.5914  0.3514
 5048TIP3    H239340   7.591   6.390  16.786  1.1975 -0.3588  0.0596
 5049TIP3   OH239341   6.789   5.819  16.592 -0.0984  0.2440 -0.3870
 5049TIP3    H139342   6.752   5.743  16.636 -0.5070  0.7361  0.1297
 5049TIP3    H239343   6.873   5.833  16.634  0.3722 -0.4374 -1.0718
 5050TIP3   OH239344   4.527   3.248  16.150  0.3376 -0.3446 -0.5474
 5050TIP3    H139345   4.479   3.282  16.225 -0.3598 -1.3135 -0.5339
 5050TIP3    H239346   4.619   3.257  16.174  0.1647  0.9287 -0.2941
 5051TIP3   OH239347   8.233   7.686  17.027  0.3354 -0.1486 -0.0312
 5051TIP3    H139348   8.288   7.612  17.001  0.7959  0.3856 -0.6151
 5051TIP3    H239349   8.144   7.657  17.011  0.5233 -0.5125 -0.4278
 5052TIP3   OH239350   6.496   5.623  16.374 -0.1751 -0.2235  0.0441
 5052TIP3    H139351   6.472   5.563  16.304 -1.4546  1.2829 -0.8647
 5052TIP3    H239352   6.498   5.568  16.453  1.3008 -1.9516 -1.1159
 5053TIP3   OH239353   3.413   1.391  16.538  0.1801 -0.0246  0.0502
 5053TIP3    H139354   3.383   1.482  16.534 -1.1487 -0.4845 -0.9544
 5053TIP3    H239355   3.459   1.385  16.622  0.0983  1.5102  0.2322
 5054TIP3   OH239356   7.303   2.669  17.862  0.0023 -1.5137 -0.4939
 5054TIP3    H139357   7.389   2.626  17.858  0.0559 -1.4554  0.0022
 5054TIP3    H239358   7.254   2.619  17.927  0.2085 -0.5893  0.4012
 5055TIP3   OH239359   3.595   4.580  17.526 -0.1381  0.0300 -0.1085
 5055TIP3    H139360   3.586   4.572  17.431 -1.0875 -2.7074  0.1263
 5055TIP3    H239361   3.689   4.575  17.542 -0.0300 -0.4588 -0.8453
 5056TIP3   OH239362   5.019   3.213  16.017 -0.5275  0.4766  0.9319
 5056TIP3    H139363   5.100   3.231  15.969 -1.0717 -0.6745 -0.5206
 5056TIP3    H239364   5.027   3.122  16.045 -2.1354 -0.4172 -1.1502
 5057TIP3   OH239365   6.108   1.914  17.349 -0.2943  0.0214 -0.2032
 5057TIP3    H139366   6.138   1.869  17.428  1.6464 -0.7444 -1.3002
 5057TIP3    H239367   6.067   1.846  17.296  2.4485 -0.5768 -1.7701
 5058TIP3   OH239368   1.526   4.379  17.157  0.1236 -0.2198 -0.1885
 5058TIP3    H139369   1.569   4.296  17.134 -0.1000 -0.5328  0.4924
 5058TIP3    H239370   1.586   4.447  17.124  1.6191 -0.6358  1.4881
 5059TIP3   OH239371   6.039   4.083  17.753 -0.3765 -0.0438 -0.1140
 5059TIP3    H139372   6.127   4.121  17.764  0.9510 -2.8859 -0.0391
 5059TIP3    H239373   6.054   4.004  17.701 -2.7299 -1.2749  0.9721
 5060TIP3   OH239374   5.654   2.925  17.732 -0.4039  0.1655  0.2066
 5060TIP3    H139375   5.639   3.018  17.750 -1.2337 -0.3085  2.2055
 5060TIP3    H239376   5.747   2.912  17.753 -0.4582  0.4037  0.6134
 5061TIP3   OH239377   3.145   4.512  17.973  0.5449  0.1068 -0.1605
 5061TIP3    H139378   3.213   4.507  18.040  0.6796 -0.4242 -0.3342
 5061TIP3    H239379   3.141   4.605  17.950  0.4347  0.3042  0.6443
 5062TIP3   OH239380   8.270   3.634  16.975  0.0284 -0.1908  0.0431
 5062TIP3    H139381   8.251   3.540  16.970 -0.7709  0.0046 -1.2927
 5062TIP3    H239382   8.351   3.644  16.926  0.7665 -0.3309  1.2191
 5063TIP3   OH239383   5.580   2.056  17.686  0.0789 -0.4137 -0.2353
 5063TIP3    H139384   5.630   2.134  17.713 -0.4237 -0.6724  1.5765
 5063TIP3    H239385   5.638   1.983  17.705  0.2335 -0.5493 -1.1794
 5064TIP3   OH239386   1.011   6.044  16.032 -0.5553  0.0341  0.0715
 5064TIP3    H139387   1.069   5.986  15.982  0.9191 -0.1531  1.9105
 5064TIP3    H239388   0.928   5.997  16.037 -0.6842 -0.0558 -1.9108
 5065TIP3   OH239389   7.846   0.846  17.769 -0.4976 -0.0299 -0.2061
 5065TIP3    H139390   7.814   0.852  17.859  1.8548  0.9141  0.6647
 5065TIP3    H239391   7.768   0.831  17.716 -2.2210  1.4896  1.7571
 5066TIP3   OH239392   7.934   3.339  17.417  0.0054  0.2361 -0.1487
 5066TIP3    H139393   7.930   3.334  17.321  0.6621  0.9344 -0.2238
 5066TIP3    H239394   7.855   3.387  17.442  0.8141  1.8574 -0.5231
 5067TIP3   OH239395   6.692   2.529  17.442 -0.7437  0.5679  0.3518
 5067TIP3    H139396   6.597   2.513  17.441 -0.6288 -0.1473  0.2655
 5067TIP3    H239397   6.722   2.503  17.355 -0.4842  0.9390  0.3251
 5068TIP3   OH239398   3.363   4.024  16.258 -0.0649 -0.3912 -0.2587
 5068TIP3    H139399   3.328   4.112  16.272 -0.4927 -0.9289  2.7977
 5068TIP3    H239400   3.285   3.970  16.244 -0.0030 -0.6331  0.3001
 5069TIP3   OH239401   0.162   7.457  16.647 -0.1363 -0.0593 -0.3047
 5069TIP3    H139402   0.254   7.431  16.645 -0.4085 -0.9884 -1.1799
 5069TIP3    H239403   0.140   7.476  16.556 -1.0915 -0.8735 -0.2576
 5070TIP3   OH239404   2.086   4.913  17.866 -0.1009  0.2140  0.8144
 5070TIP3    H139405   2.162   4.971  17.866 -0.3916  0.6788  2.8993
 5070TIP3    H239406   2.012   4.970  17.887 -0.9746 -0.3383 -0.5854
 5071TIP3   OH239407   7.341   7.007  15.652  0.4477 -0.2082 -0.4065
 5071TIP3    H139408   7.370   7.080  15.598  2.1570 -0.0583  0.6529
 5071TIP3    H239409   7.253   7.031  15.680  0.5968  0.9681 -0.9011
 5072TIP3   OH239410   2.145   0.475  16.734  0.3292  0.1563  0.8049
 5072TIP3    H139411   2.094   0.521  16.800 -1.6409 -0.9378  0.1314
 5072TIP3    H239412   2.121   0.517  16.651  1.4411  0.3753  0.5760
 5073TIP3   OH239413   6.658   0.792  16.900  0.1165 -0.7716 -0.5546
 5073TIP3    H139414   6.702   0.773  16.818  0.4290  1.0491 -0.8508
 5073TIP3    H239415   6.673   0.715  16.954  0.8679 -1.5240 -1.8031
 5074TIP3   OH239416   6.608   0.109  16.632 -0.2157 -0.0907  0.7108
 5074TIP3    H139417   6.579   0.020  16.613  0.1634 -0.2015  0.6422
 5074TIP3    H239418   6.669   0.099  16.705  0.6190 -0.0066  0.0322
 5075TIP3   OH239419   7.068   7.635  15.623 -0.2508  0.2500  0.3821
 5075TIP3    H139420   7.025   7.616  15.539  0.8467  1.0096 -0.3860
 5075TIP3    H239421   7.111   7.553  15.647 -1.2477 -0.2155  0.6426
 5076TIP3   OH239422   0.795   7.626  17.580  0.4883  0.2374  0.1949
 5076TIP3    H139423   0.786   7.671  17.496 -0.1190  0.4108  0.3511
 5076TIP3    H239424   0.706   7.619  17.614  0.5336 -1.3064  0.0669
 5077TIP3   OH239425   6.610   2.923  16.306 -0.1745  0.2191 -0.0537
 5077TIP3    H139426   6.698   2.899  16.276 -0.1827 -0.1393  0.2041
 5077TIP3    H239427   6.591   3.005  16.260 -0.1589 -0.2858 -0.9884
 5078TIP3   OH239428   5.440   0.213  17.279 -0.2258 -0.0460  0.8559
 5078TIP3    H139429   5.496   0.136  17.265  0.9658  0.8376  0.6015
 5078TIP3    H239430   5.467   0.248  17.363 -0.6204  0.2188  0.8753
 5079TIP3   OH239431   4.651   5.321  17.274 -0.0150  0.0817  0.4335
 5079TIP3    H139432   4.586   5.295  17.209  0.9962  0.2039 -0.6710
 5079TIP3    H239433   4.734   5.286  17.240  0.5912  0.4539  1.4865
 5080TIP3   OH239434   2.151   3.698  17.285 -0.2361 -0.1532 -0.3140
 5080TIP3    H139435   2.222   3.711  17.348 -2.3235  0.6456  2.0346
 5080TIP3    H239436   2.119   3.786  17.266 -1.9261 -0.5797  0.3636
 5081TIP3   OH239437   8.080   8.055  16.707 -0.4477 -0.3287  0.3104
 5081TIP3    H139438   8.040   7.968  16.706  0.7676 -0.9017  0.5657
 5081TIP3    H239439   8.044   8.099  16.630 -1.0638 -1.0569  0.1720
 5082TIP3   OH239440   1.784   1.702  15.219  1.2608  0.4259 -0.0206
 5082TIP3    H139441   1.811   1.777  15.271  1.3312  0.5334 -0.2100
 5082TIP3    H239442   1.692   1.690  15.240  1.3488  0.3222  0.3064
 5083TIP3   OH239443   8.040   3.212  17.707 -0.3563 -0.4141  0.0329
 5083TIP3    H139444   7.975   3.274  17.674 -0.1730  0.6259  1.5097
 5083TIP3    H239445   8.097   3.196  17.633 -0.9364  0.4941 -0.6400
 5084TIP3   OH239446   0.527   7.050  15.766 -0.2725 -0.6712  0.1518
 5084TIP3    H139447   0.618   7.059  15.795 -0.8523 -2.7457  3.0833
 5084TIP3    H239448   0.492   7.139  15.769  1.4690  0.0822 -0.4646
 5085TIP3   OH239449   8.314   5.528  17.266  0.2502  0.0857  0.2581
 5085TIP3    H139450   8.314   5.519  17.170 -0.0457  1.4011  0.1104
 5085TIP3    H239451   8.405   5.513  17.291  1.2449  3.5159 -0.7078
 5086TIP3   OH239452   3.608   3.801  17.079  0.5138  0.3163  0.6051
 5086TIP3    H139453   3.589   3.724  17.133  0.1496 -0.4287 -0.5549
 5086TIP3    H239454   3.664   3.856  17.135 -0.9835  0.2451  2.2711
 5087TIP3   OH239455   0.024   1.251  17.488  0.3952  0.7350 -0.1937
 5087TIP3    H139456   0.055   1.325  17.435  0.2274 -0.4466 -2.0289
 5087TIP3    H239457  -0.049   1.287  17.538  0.6755  1.9606 -0.6109
 5088TIP3   OH239458   4.978   3.310  17.634  0.4581 -0.2243  0.2737
 5088TIP3    H139459   5.060   3.296  17.588 -0.3148 -0.2478 -1.1433
 5088TIP3    H239460   4.960   3.403  17.624 -0.7303 -0.5785 -1.2989
 5089TIP3   OH239461   8.356   4.884  17.340  0.1253 -0.3453 -0.0644
 5089TIP3    H139462   8.344   4.790  17.355 -1.2007 -0.2193 -0.2329
 5089TIP3    H239463   8.450   4.898  17.348  0.4153 -1.7983 -0.6551
 5090TIP3   OH239464   7.484   4.884  16.824 -0.1161 -0.2819  0.6197
 5090TIP3    H139465   7.432   4.826  16.769 -0.2899  1.7964 -1.5795
 5090TIP3    H239466   7.573   4.878  16.788 -0.2389  1.1463  0.0176
 5091TIP3   OH239467   6.212   5.536  17.454  0.2415 -0.4082 -0.4599
 5091TIP3    H139468   6.121   5.533  17.484  0.3687  1.6491  0.2445
 5091TIP3    H239469   6.246   5.449  17.474 -0.7638 -0.3257  1.9955
 5092TIP3   OH239470   5.957   1.256  15.756 -0.4194  0.1280 -0.0623
 5092TIP3    H139471   5.963   1.267  15.661 -1.6729  2.6247  0.0587
 5092TIP3    H239472   5.939   1.163  15.768 -2.5572  0.1305 -2.4400
 5093TIP3   OH239473   7.343   4.361  17.271 -0.4737 -0.5949  0.1588
 5093TIP3    H139474   7.318   4.418  17.198 -0.8060 -2.9365 -1.6877
 5093TIP3    H239475   7.320   4.411  17.349 -0.7517  1.7645 -1.3241
 5094TIP3   OH239476   1.260   5.442  16.021 -0.1092 -0.1510 -0.3978
 5094TIP3    H139477   1.254   5.421  15.928 -1.6600 -1.4676 -0.0451
 5094TIP3    H239478   1.196   5.512  16.035 -0.0190 -0.0905 -0.2758
 5095TIP3   OH239479   0.483   4.743  16.479 -0.4960  0.2351  0.0603
 5095TIP3    H139480   0.551   4.723  16.542 -0.2532  2.7855  0.7090
 5095TIP3    H239481   0.527   4.793  16.410 -1.0401 -1.2424 -1.4318
 5096TIP3   OH239482   3.320   2.213  17.419 -0.4911  0.0670 -0.1030
 5096TIP3    H139483   3.287   2.162  17.345 -1.7591 -2.9957  2.3174
 5096TIP3    H239484   3.415   2.212  17.410 -0.6229 -0.1171 -1.7018
 5097TIP3   OH239485   7.208   7.305  16.442 -0.1713  0.4279  0.3444
 5097TIP3    H139486   7.268   7.348  16.381  0.7037 -1.3189 -0.0949
 5097TIP3    H239487   7.143   7.262  16.387  0.7448 -1.3350  0.5578
 5098TIP3   OH239488   6.698   6.112  17.235 -0.1646 -0.0598 -0.2364
 5098TIP3    H139489   6.634   6.181  17.222 -0.9760 -0.2464  2.2127
 5098TIP3    H239490   6.727   6.123  17.326 -0.4405 -2.9961  0.2988
 5099TIP3   OH239491   2.254   6.168  17.418 -0.5446  0.2740 -0.2922
 5099TIP3    H139492   2.196   6.175  17.494  0.2812  0.9247  0.2947
 5099TIP3    H239493   2.241   6.249  17.370  0.8380  1.0481  0.5654
 5100TIP3   OH239494   4.787   6.566  17.807 -0.3658  0.0462 -0.5678
 5100TIP3    H139495   4.698   6.586  17.836 -0.6790  0.7672 -1.9427
 5100TIP3    H239496   4.819   6.649  17.771  0.5986 -0.3904 -0.7414
 5101TIP3   OH239497   4.058   6.166  15.994 -0.4490 -0.2417 -0.4493
 5101TIP3    H139498   4.124   6.104  15.963  0.2727  0.1783  0.2127
 5101TIP3    H239499   3.974   6.125  15.971 -0.1139 -2.7642  2.1694
 5102TIP3   OH239500   0.087   3.687  17.268  0.1558 -0.4024  0.3736
 5102TIP3    H139501   0.043   3.769  17.291  0.1290 -0.4775  0.5986
 5102TIP3    H239502   0.162   3.714  17.216  0.1667 -0.2312  0.4750
 5103TIP3   OH239503   2.385   3.090  17.987  0.7043  0.4459 -0.0550
 5103TIP3    H139504   2.460   3.042  18.021 -0.8927 -0.6912  2.0917
 5103TIP3    H239505   2.354   3.039  17.913  1.8801  0.8163 -0.8280
 5104TIP3   OH239506   1.387   5.187  17.789 -0.3316  0.4384  0.1784
 5104TIP3    H139507   1.415   5.270  17.749 -2.3986  0.5206 -1.2737
 5104TIP3    H239508   1.410   5.120  17.724  1.4458 -0.1933  1.4039
 5105TIP3   OH239509   7.156   3.340  16.722  0.0010  0.1196  0.0623
 5105TIP3    H139510   7.070   3.300  16.712 -0.1147  0.4002 -0.0837
 5105TIP3    H239511   7.148   3.425  16.680  0.8980 -0.6092 -1.7076
 5106TIP3   OH239512   5.937   1.329  15.481 -0.6142 -0.0683 -0.5496
 5106TIP3    H139513   5.893   1.413  15.488 -2.0061 -0.8717  1.2915
 5106TIP3    H239514   6.019   1.348  15.436 -0.2658  2.4977  0.9958
 5107TIP3   OH239515   4.310   1.329  15.867  0.0867  0.0352  0.4809
 5107TIP3    H139516   4.373   1.257  15.874 -0.0961 -0.1854 -0.1215
 5107TIP3    H239517   4.233   1.299  15.915 -0.1318 -0.3303 -0.0936
 5108TIP3   OH239518   6.266   0.659  17.313  0.7734 -0.4007 -0.4679
 5108TIP3    H139519   6.351   0.701  17.325  1.0713 -1.6633  2.8291
 5108TIP3    H239520   6.284   0.566  17.322 -1.0352 -0.6518  1.2136
 5109TIP3   OH239521   4.010   6.324  18.426 -0.3642  0.0268 -0.1905
 5109TIP3    H139522   3.997   6.408  18.382  2.7138  0.1364 -1.0618
 5109TIP3    H239523   3.946   6.266  18.385  0.1994  0.9607 -2.5417
 5110TIP3   OH239524   2.740   4.754  16.494  0.3627  0.6470  0.4287
 5110TIP3    H139525   2.701   4.820  16.551 -0.2660 -0.3368  1.1680
 5110TIP3    H239526   2.677   4.742  16.424 -0.1374 -0.0869  0.9896
 5111TIP3   OH239527   3.444   5.627  15.656 -0.3215 -0.5124 -0.2516
 5111TIP3    H139528   3.389   5.656  15.584 -0.3096 -2.7678 -1.2689
 5111TIP3    H239529   3.523   5.681  15.649 -1.1014  0.5826 -0.7579
 5112TIP3   OH239530   4.747   2.266  18.110 -0.3023 -0.9013  1.0731
 5112TIP3    H139531   4.762   2.206  18.037 -1.1890 -0.9862  0.9379
 5112TIP3    H239532   4.655   2.291  18.100  0.2562  1.1445  0.6361
 5113TIP3   OH239533   0.461   6.081  16.677 -0.5147  0.7262 -0.1876
 5113TIP3    H139534   0.388   6.062  16.735 -0.0100 -0.0096  0.2202
 5113TIP3    H239535   0.535   6.099  16.736 -0.0378  0.1323 -0.5888
 5114TIP3   OH239536   4.624   4.251  16.737  0.1642  0.2253  0.3332
 5114TIP3    H139537   4.667   4.307  16.672 -1.1623 -0.2584 -1.0260
 5114TIP3    H239538   4.685   4.249  16.811  1.5134  1.1901 -0.6946
 5115TIP3   OH239539   1.712   5.645  17.648 -0.1938  0.4014  0.7204
 5115TIP3    H139540   1.738   5.735  17.629 -1.3511  0.6988  0.4843
 5115TIP3    H239541   1.789   5.592  17.625 -0.2869  1.1012 -1.4023
 5116TIP3   OH239542   2.351   6.708  17.385  0.0099  0.7957 -0.2277
 5116TIP3    H139543   2.447   6.707  17.380  0.0332  1.8393 -0.2346
 5116TIP3    H239544   2.328   6.624  17.423  0.9489  0.6541  0.0532
 5117TIP3   OH239545   0.814   6.958  15.772  0.4681  0.0488 -0.2152
 5117TIP3    H139546   0.883   6.907  15.814  2.1213  1.9733 -0.4570
 5117TIP3    H239547   0.798   6.915  15.689 -0.0725 -1.5483  0.6718
 5118TIP3   OH239548   6.053   7.888  16.228 -0.3830 -0.3828 -0.3795
 5118TIP3    H139549   6.099   7.828  16.286  0.4539  0.7187  0.1398
 5118TIP3    H239550   6.097   7.879  16.144 -0.7431 -1.0308 -0.5015
 5119TIP3   OH239551   8.069   0.187  17.000  0.1105 -0.4871 -0.2134
 5119TIP3    H139552   8.065   0.212  16.908  0.0298  0.6982  0.1050
 5119TIP3    H239553   8.008   0.114  17.007  0.5377 -0.9683 -1.2040
 5120TIP3   OH239554   6.241   6.871  16.228  0.2278  0.3595 -0.6662
 5120TIP3    H139555   6.305   6.934  16.194 -1.5018  1.9453 -1.1490
 5120TIP3    H239556   6.156   6.908  16.204 -0.8824 -2.1749 -0.9389
 5121TIP3   OH239557   4.671   0.933  17.297 -0.1650  0.5773  0.0687
 5121TIP3    H139558   4.758   0.929  17.339 -0.9866 -2.0573  1.7878
 5121TIP3    H239559   4.678   1.004  17.234  3.2289  0.5234  0.1960
 5122TIP3   OH239560   0.647   4.837  17.186  0.1454 -0.2424  0.6452
 5122TIP3    H139561   0.661   4.929  17.164  0.6254 -0.1259  1.4145
 5122TIP3    H239562   0.556   4.833  17.216 -0.4054 -0.3362 -0.9237
 5123TIP3   OH239563   2.394   4.480  16.049  0.2724  0.0927 -0.0392
 5123TIP3    H139564   2.343   4.553  16.015 -0.7444 -1.2840 -1.6721
 5123TIP3    H239565   2.332   4.429  16.101  0.5738 -0.3932 -0.1476
 5124TIP3   OH239566   2.582   3.885  16.909 -0.4394  0.3085  0.0033
 5124TIP3    H139567   2.600   3.809  16.964  3.8890  0.4868 -0.8785
 5124TIP3    H239568   2.575   3.958  16.971  2.1510  0.1553  0.5917
 5125TIP3   OH239569   3.631   2.997  17.507  0.1251 -0.5117  0.0770
 5125TIP3    H139570   3.655   3.087  17.528  1.8410 -0.4622 -1.7273
 5125TIP3    H239571   3.536   2.995  17.514  0.0241  1.5172 -0.0683
 5126TIP3   OH239572   4.002   4.897  16.592 -0.6464 -0.0709  0.0626
 5126TIP3    H139573   4.059   4.868  16.663 -1.4991 -0.5643  0.5599
 5126TIP3    H239574   4.062   4.918  16.520  0.3634  1.6345  1.3020
 5127TIP3   OH239575   1.441   2.374  17.128  0.3547  0.1244 -0.0027
 5127TIP3    H139576   1.419   2.466  17.112  0.2241 -0.0110 -0.6119
 5127TIP3    H239577   1.522   2.360  17.079 -0.1947 -0.3644 -0.7902
 5128TIP3   OH239578   1.577   6.117  17.984 -0.3019  0.0928 -0.0895
 5128TIP3    H139579   1.517   6.044  18.001 -0.5900 -0.1423 -1.9267
 5128TIP3    H239580   1.520   6.193  17.974 -0.0010  0.6174  1.8372
 5129TIP3   OH239581   7.338   0.908  17.851  0.1975 -0.0656 -0.0736
 5129TIP3    H139582   7.280   0.925  17.776  0.8627 -0.2554 -0.6369
 5129TIP3    H239583   7.289   0.846  17.905 -0.3928  0.2642 -0.2203
 5130TIP3   OH239584   3.910   2.566  17.142  0.3229  0.3204 -0.1385
 5130TIP3    H139585   3.870   2.652  17.128  2.2179  1.4381  0.8395
 5130TIP3    H239586   3.973   2.557  17.070 -0.3165 -0.5628 -0.6027
 5131TIP3   OH239587   5.232   6.804  17.292  0.4291 -0.4098 -1.2669
 5131TIP3    H139588   5.226   6.829  17.384  0.4565 -3.7919 -0.2144
 5131TIP3    H239589   5.227   6.887  17.244 -1.8141  1.3037  1.6320
 5132TIP3   OH239590   6.865   6.455  17.000  0.5783 -0.5494 -0.3094
 5132TIP3    H139591   6.910   6.490  16.923 -0.0600 -0.7055 -0.7580
 5132TIP3    H239592   6.777   6.434  16.969 -0.0185  0.3578  0.7079
 5133TIP3   OH239593   8.193   3.615  17.528 -0.4460  0.3662  0.5724
 5133TIP3    H139594   8.183   3.542  17.467 -1.1926 -1.0190  2.2680
 5133TIP3    H239595   8.222   3.574  17.609 -1.0642  1.9447  1.6304
 5134TIP3   OH239596   0.267   1.584  15.946 -0.0793 -0.6820  0.2687
 5134TIP3    H139597   0.203   1.650  15.915 -0.7847 -0.8155  1.3831
 5134TIP3    H239598   0.333   1.581  15.877 -0.0957  1.1052  0.1130
 5135TIP3   OH239599   3.921   3.526  17.268  1.1324  0.3250  0.1502
 5135TIP3    H139600   4.015   3.520  17.252  0.9105  0.2241 -1.2378
 5135TIP3    H239601   3.881   3.499  17.185 -0.1287 -0.3695  0.9605
 5136TIP3   OH239602   2.331   7.721  16.428  0.0063 -0.0662 -0.7001
 5136TIP3    H139603   2.377   7.644  16.460 -0.6126 -0.0580  0.2461
 5136TIP3    H239604   2.255   7.730  16.486  0.6605  1.8892 -0.0610
 5137TIP3   OH239605   7.182   7.015  16.732  0.0013 -0.3231 -0.3497
 5137TIP3    H139606   7.251   7.030  16.797  0.0353  0.1566 -0.4961
 5137TIP3    H239607   7.153   6.926  16.749 -1.1196  0.3349  1.4196
 5138TIP3   OH239608   6.192   6.748  17.645 -0.1711  0.0516 -0.0673
 5138TIP3    H139609   6.169   6.750  17.552  1.8443  0.8605 -0.5886
 5138TIP3    H239610   6.183   6.839  17.673 -1.3103 -0.2774  0.7087
 5139TIP3   OH239611   5.226   3.852  17.417 -0.1401 -0.3487  0.6948
 5139TIP3    H139612   5.254   3.872  17.506  0.6313  0.6363  0.2487
 5139TIP3    H239613   5.273   3.772  17.394  0.5443  0.0311  0.7650
 5140TIP3   OH239614   6.137   5.035  16.421  0.2467 -0.0821  0.7664
 5140TIP3    H139615   6.197   5.005  16.353  0.7781  1.2301  0.6354
 5140TIP3    H239616   6.103   4.954  16.460 -3.0845 -1.1468 -3.5339
 5141TIP3   OH239617   8.027   1.201  17.466  0.2741  0.0813  0.1173
 5141TIP3    H139618   8.050   1.188  17.558 -0.3199 -1.6287  0.0683
 5141TIP3    H239619   8.067   1.126  17.421 -2.4704 -1.1787 -0.4386
 5142TIP3   OH239620   4.157   7.438  16.768  0.4773  0.1260  0.2986
 5142TIP3    H139621   4.245   7.474  16.783  0.8780 -0.8908  0.4657
 5142TIP3    H239622   4.148   7.369  16.833 -0.1969 -0.2035 -0.1383
 5143TIP3   OH239623   5.477   4.138  17.520  0.3207  1.1344 -0.1221
 5143TIP3    H139624   5.457   4.232  17.526  0.0312  1.0484  0.2723
 5143TIP3    H239625   5.396   4.098  17.488 -0.3193  0.7355  1.8558
 5144TIP3   OH239626   2.327   7.329  17.082 -0.1751  0.6565  0.1460
 5144TIP3    H139627   2.335   7.243  17.122  0.4661  0.5490 -0.2085
 5144TIP3    H239628   2.416   7.351  17.053 -0.2011  1.7154  0.8153
 5145TIP3   OH239629   1.378   0.644  17.584  0.0433  0.3285  0.3519
 5145TIP3    H139630   1.414   0.732  17.583  0.6384  0.0971  0.7088
 5145TIP3    H239631   1.287   0.654  17.556 -0.1324  1.1636  1.1688
 5146TIP3   OH239632   2.622   4.862  15.738 -0.1986 -0.3361 -0.0995
 5146TIP3    H139633   2.655   4.815  15.815  3.3173  1.6906 -0.1474
 5146TIP3    H239634   2.634   4.801  15.666  0.7356 -0.7247  0.3615
 5147TIP3   OH239635   0.128   7.863  17.446  0.1918 -0.1438  0.1764
 5147TIP3    H139636   0.115   7.772  17.421 -0.3144  0.2767 -1.2137
 5147TIP3    H239637   0.069   7.877  17.520  0.1094 -0.8825  0.2527
 5148TIP3   OH239638   5.873   4.301  15.879 -0.1926  0.1005 -0.0863
 5148TIP3    H139639   5.881   4.322  15.786  0.0596 -0.6289 -0.2352
 5148TIP3    H239640   5.779   4.303  15.895 -0.5999 -3.2878 -1.2377
 5149TIP3   OH239641   5.856   8.372  16.442  0.0204  0.6416  0.0864
 5149TIP3    H139642   5.807   8.355  16.523 -0.0971 -0.6412 -0.2400
 5149TIP3    H239643   5.820   8.310  16.378  2.3038 -0.6083 -0.0772
 5150TIP3   OH239644   5.670   7.162  16.003  0.2978  0.3602  1.2142
 5150TIP3    H139645   5.616   7.094  16.043  0.6712 -0.3835  0.4829
 5150TIP3    H239646   5.659   7.238  16.060  0.4875 -0.5317  2.4834
 5151TIP3   OH239647   1.057   1.361  16.300  0.3042  0.2208  0.8837
 5151TIP3    H139648   1.143   1.357  16.343  0.3144  0.3781  0.8764
 5151TIP3    H239649   1.034   1.269  16.286  0.7502  0.1842  0.3244
 5152TIP3   OH239650   6.059   5.637  16.874 -0.5349  0.2986  0.3162
 5152TIP3    H139651   6.080   5.718  16.828  1.3197  0.9931  2.2091
 5152TIP3    H239652   6.072   5.657  16.966  1.2720 -2.4587  0.7924
 5153TIP3   OH239653   1.955   5.483  17.752  0.1342 -0.2174  0.2191
 5153TIP3    H139654   2.006   5.453  17.677  0.4686  1.1696 -0.1381
 5153TIP3    H239655   1.885   5.418  17.760  0.6785 -0.9473 -0.6473
 5154TIP3   OH239656   4.405   0.088  16.528  0.1433 -0.2269  0.0351
 5154TIP3    H139657   4.468   0.158  16.548 -0.3956  0.5325 -0.8196
 5154TIP3    H239658   4.459   0.010  16.518  0.6382 -0.2216  2.2428
 5155TIP3   OH239659   7.811   6.947  17.783  0.0865 -0.0821 -0.4320
 5155TIP3    H139660   7.777   7.022  17.832  0.8983  0.1908 -0.2788
 5155TIP3    H239661   7.747   6.878  17.798 -0.2120  0.3140  0.1516
 5156TIP3   OH239662   7.599   1.192  16.063  0.6790  0.7362  0.1592
 5156TIP3    H139663   7.692   1.172  16.062  0.6694  0.6287 -1.5145
 5156TIP3    H239664   7.576   1.205  15.971 -0.9668  0.7266  0.5332
 5157TIP3   OH239665   6.164   1.436  17.202  0.0444  0.2128 -0.0555
 5157TIP3    H139666   6.233   1.395  17.151  0.7301 -0.7350  1.5639
 5157TIP3    H239667   6.083   1.410  17.157  0.6048 -0.7104 -0.5724
 5158TIP3   OH239668   6.157   3.548  17.495  0.0382 -0.4840  0.0627
 5158TIP3    H139669   6.117   3.628  17.529 -0.1250 -0.2262 -0.7241
 5158TIP3    H239670   6.166   3.492  17.572  0.7712  0.5352  0.7462
 5159TIP3   OH239671   0.708   6.155  16.785  0.9047  0.1036 -0.2599
 5159TIP3    H139672   0.711   6.193  16.873 -0.8239 -1.1020  0.3675
 5159TIP3    H239673   0.711   6.060  16.800  0.4573 -0.1154 -1.4896
 5160TIP3   OH239674   7.235   2.513  16.399 -0.0895 -1.0376  0.1970
 5160TIP3    H139675   7.150   2.518  16.356  0.3302  0.7958 -0.5117
 5160TIP3    H239676   7.296   2.554  16.337  1.1603 -1.5093  1.0628
 5161TIP3   OH239677   4.859   2.214  15.531  0.2197  0.2483 -0.2725
 5161TIP3    H139678   4.887   2.297  15.493  1.3528  0.2427  0.5051
 5161TIP3    H239679   4.936   2.157  15.525 -0.6632 -0.9119 -1.1982
 5162TIP3   OH239680   4.344   1.458  16.978  0.2937  0.3385  0.6550
 5162TIP3    H139681   4.396   1.514  17.036  0.6648  0.1765  0.4812
 5162TIP3    H239682   4.317   1.517  16.907 -2.2316  1.1788  2.1910
 5163TIP3   OH239683   0.438   0.042  16.280 -0.3621  0.2561  0.2553
 5163TIP3    H139684   0.496   0.089  16.340 -0.5005 -1.6233  1.9822
 5163TIP3    H239685   0.496  -0.017  16.232 -0.7610 -2.2201  2.5616
 5164TIP3   OH239686   2.159   4.313  16.901  0.2572  0.3993 -0.0414
 5164TIP3    H139687   2.193   4.402  16.912 -0.3748  0.6198  0.2015
 5164TIP3    H239688   2.064   4.325  16.892  0.1832 -0.2390 -0.1538
 5165TIP3   OH239689   2.817   3.674  15.942  0.1694 -0.3310  0.1786
 5165TIP3    H139690   2.807   3.580  15.957 -0.0335 -0.3501 -0.0647
 5165TIP3    H239691   2.898   3.698  15.988  1.5922 -1.1093 -1.8008
 5166TIP3   OH239692   1.550   5.963  16.076  0.3126  0.0273  0.0000
 5166TIP3    H139693   1.541   5.959  16.171 -2.2232 -0.2218 -0.2011
 5166TIP3    H239694   1.484   6.027  16.048  0.0724 -0.8964 -1.6935
 5167TIP3   OH239695   8.183   6.953  17.531 -0.4176  0.1889  0.4498
 5167TIP3    H139696   8.227   7.031  17.565 -0.6900  0.4391  0.2276
 5167TIP3    H239697   8.141   6.914  17.608 -0.6527  0.5047  0.4838
 5168TIP3   OH239698   5.811   5.565  16.889  0.0022  0.1477 -0.1704
 5168TIP3    H139699   5.763   5.576  16.807 -0.0458 -0.2344 -0.1987
 5168TIP3    H239700   5.898   5.602  16.872  0.2441 -0.6163 -0.6462
 5169TIP3   OH239701   7.509   0.567  16.464  0.6082 -0.4724 -0.3517
 5169TIP3    H139702   7.533   0.579  16.372  0.8177 -1.4219 -0.4373
 5169TIP3    H239703   7.414   0.572  16.465  0.6641  1.1713 -0.3509
 5170TIP3   OH239704   3.094   0.803  16.799 -0.1479  0.9385  0.1911
 5170TIP3    H139705   3.163   0.777  16.860 -0.6539 -0.3654  0.2421
 5170TIP3    H239706   3.121   0.765  16.715 -0.7164  0.5343  0.1832
 5171TIP3   OH239707   2.892   7.381  16.357  0.5132 -0.4738 -0.0374
 5171TIP3    H139708   2.876   7.287  16.349  0.4779 -0.3501 -1.8543
 5171TIP3    H239709   2.971   7.396  16.305 -0.1704  0.6694 -0.7896
 5172TIP3   OH239710   6.477   0.422  17.280  0.4790  0.2722 -0.5785
 5172TIP3    H139711   6.504   0.357  17.345  0.1160 -0.7987 -1.4661
 5172TIP3    H239712   6.395   0.389  17.245  1.1459  0.2994 -2.2663
 5173TIP3   OH239713   2.053   3.809  17.759  0.2708  0.1118  0.4174
 5173TIP3    H139714   2.002   3.732  17.737  1.5794 -0.3970 -1.0126
 5173TIP3    H239715   1.997   3.883  17.736 -1.0228 -0.3664  1.8756
 5174TIP3   OH239716   5.366   2.737  16.246  0.6239  0.0061  0.1177
 5174TIP3    H139717   5.308   2.674  16.203  0.1213  0.3724  0.2412
 5174TIP3    H239718   5.387   2.801  16.178 -0.7472  0.9826  0.5613
 5175TIP3   OH239719   1.472   0.912  15.819  0.3234  0.3654  0.0022
 5175TIP3    H139720   1.528   0.947  15.750 -1.0444 -0.6051 -1.7022
 5175TIP3    H239721   1.383   0.933  15.790 -0.3518 -1.3142  0.7081
 5176TIP3   OH239722   4.224   2.809  15.746 -0.0040  0.4483  0.1889
 5176TIP3    H139723   4.175   2.888  15.721 -0.3145  0.5948  1.2013
 5176TIP3    H239724   4.298   2.842  15.798  0.5848  0.1557 -0.4529
 5177TIP3   OH239725   5.838   1.573  15.538  0.1173  0.0057 -0.0858
 5177TIP3    H139726   5.818   1.573  15.631  1.6330  0.6212  0.2618
 5177TIP3    H239727   5.872   1.660  15.520 -0.4270 -0.0032 -1.2921
 5178TIP3   OH239728   2.300   3.801  17.645 -0.1742 -0.1908 -0.3089
 5178TIP3    H139729   2.300   3.896  17.652 -1.2606 -0.2718  1.1097
 5178TIP3    H239730   2.208   3.776  17.657  0.4116 -1.5575  1.6575
 5179TIP3   OH239731   6.690   6.261  16.413  0.5656  0.1967 -0.0956
 5179TIP3    H139732   6.760   6.310  16.456  1.1665  0.5704 -1.4328
 5179TIP3    H239733   6.626   6.244  16.482  1.2037  1.2786  0.7948
 5180TIP3   OH239734   3.791   4.353  17.817 -0.2456  0.5698  0.9927
 5180TIP3    H139735   3.883   4.379  17.821 -0.0540  0.5634 -1.7478
 5180TIP3    H239736   3.780   4.292  17.890  1.7195  1.0940  1.7914
 5181TIP3   OH239737   2.249   7.433  17.451  0.3353 -0.0127 -0.3390
 5181TIP3    H139738   2.296   7.355  17.423 -1.1576 -0.1693 -2.7202
 5181TIP3    H239739   2.308   7.477  17.512  1.3267 -2.8114  0.8449
 5182TIP3   OH239740   1.827   4.385  17.510  0.3368  0.3399 -1.0069
 5182TIP3    H139741   1.806   4.432  17.590  1.1063  0.9335 -1.1373
 5182TIP3    H239742   1.776   4.304  17.515 -0.3371  0.7890 -0.3649
 5183TIP3   OH239743   4.252   7.018  16.498 -0.3210 -0.0253 -0.0009
 5183TIP3    H139744   4.252   7.037  16.404 -2.2118  3.4014  0.5272
 5183TIP3    H239745   4.321   7.073  16.534 -0.2284 -0.6173  0.7613
 5184TIP3   OH239746   7.391   4.882  15.979  0.2063 -0.0391  0.3068
 5184TIP3    H139747   7.336   4.906  15.904  1.2635 -0.2887 -0.5892
 5184TIP3    H239748   7.339   4.819  16.029 -0.8036  0.6830  0.1882
 5185TIP3   OH239749   3.612   6.256  17.175  0.3358  0.0699  0.1756
 5185TIP3    H139750   3.532   6.280  17.223  0.2709  0.6596 -0.2094
 5185TIP3    H239751   3.611   6.161  17.172 -0.1266  0.0604  0.5620
 5186TIP3   OH239752   6.557   6.604  17.117  0.4555  0.5856  0.2609
 5186TIP3    H139753   6.606   6.557  17.184  0.7588  0.3605 -0.1134
 5186TIP3    H239754   6.624   6.655  17.070  0.5136 -0.5220 -0.9248
 5187TIP3   OH239755   2.583   4.081  17.091 -0.0320 -0.0027 -0.0882
 5187TIP3    H139756   2.522   4.114  17.157 -1.9492  0.2314 -1.8694
 5187TIP3    H239757   2.585   4.149  17.024 -2.4673 -2.3104 -2.8606
 5188TIP3   OH239758   1.087   5.556  16.999  0.6535 -1.0383  0.3043
 5188TIP3    H139759   1.098   5.650  17.018  0.1701 -0.7537 -0.7304
 5188TIP3    H239760   1.171   5.517  17.023  1.0307 -0.2546  0.3035
 5189TIP3   OH239761   0.434   6.053  15.648 -0.1545  0.1402 -0.4516
 5189TIP3    H139762   0.407   5.970  15.688 -0.2206  0.0191 -0.7478
 5189TIP3    H239763   0.482   6.028  15.569  0.0136  0.3789 -0.4261
 5190TIP3   OH239764   2.155   8.245  16.975 -0.3839 -0.1763  0.2906
 5190TIP3    H139765   2.244   8.212  16.986 -0.6203 -1.5761 -1.5984
 5190TIP3    H239766   2.167   8.339  16.961  0.8857 -0.4497 -0.6635
 5191TIP3   OH239767   2.865   5.360  15.768 -0.0960  0.5059  0.3021
 5191TIP3    H139768   2.829   5.293  15.710 -0.1271  0.1979  0.6706
 5191TIP3    H239769   2.959   5.360  15.749 -0.2079  0.9216 -0.2658
 5192TIP3   OH239770   7.565   3.776  17.581  0.2519 -0.0856 -0.4527
 5192TIP3    H139771   7.620   3.848  17.610 -2.2541  1.2668  1.4138
 5192TIP3    H239772   7.600   3.699  17.628  0.0094  0.9251  1.4908
 5193TIP3   OH239773   1.704   6.541  16.344 -0.1714 -0.3049  0.1556
 5193TIP3    H139774   1.753   6.509  16.269  0.2388  0.0806  0.2547
 5193TIP3    H239775   1.622   6.573  16.307  1.1984  2.6717 -0.5928
 5194TIP3   OH239776   5.682   2.824  17.478  0.3771 -0.1265 -0.2342
 5194TIP3    H139777   5.693   2.892  17.412 -2.0930 -0.1449 -0.7791
 5194TIP3    H239778   5.657   2.872  17.557  0.0400 -0.2863 -0.2407
 5195TIP3   OH239779   5.219   1.207  16.177 -0.4960  1.0036  0.1860
 5195TIP3    H139780   5.146   1.147  16.185  0.0239  0.2946 -0.2702
 5195TIP3    H239781   5.255   1.191  16.089 -0.2429  1.8539  0.1175
 5196TIP3   OH239782   2.857   6.503  17.304 -0.5419 -0.2205  0.1127
 5196TIP3    H139783   2.770   6.468  17.285 -0.6914  0.0063  0.3711
 5196TIP3    H239784   2.873   6.478  17.395 -0.8475  0.7732  0.4536
 5197TIP3   OH239785   7.172   3.290  17.402 -0.3523  0.0169  0.0609
 5197TIP3    H139786   7.205   3.260  17.486 -0.7894 -1.3132 -0.2035
 5197TIP3    H239787   7.245   3.277  17.341 -0.2788  0.2653  0.0950
 5198TIP3   OH239788   5.368   1.354  17.821  0.1763 -0.4204 -0.4057
 5198TIP3    H139789   5.377   1.259  17.825  0.0007 -0.3985  1.9194
 5198TIP3    H239790   5.384   1.376  17.729 -1.5234 -2.8390 -1.3696
 5199TIP3   OH239791   5.047   6.660  16.603  0.4090 -0.0825  0.1633
 5199TIP3    H139792   5.122   6.718  16.621 -0.0727  0.5486  0.1825
 5199TIP3    H239793   5.055   6.590  16.668  1.2698 -0.3064 -0.1627
 5200TIP3   OH239794   4.413   2.889  16.284  0.2501  0.2031 -0.3006
 5200TIP3    H139795   4.489   2.859  16.235 -0.2034 -0.4629 -0.6091
 5200TIP3    H239796   4.448   2.954  16.345  1.1991 -0.6932  0.1301
 5201TIP3   OH239797   7.459   2.276  17.203  0.4439  0.3671 -0.1307
 5201TIP3    H139798   7.528   2.332  17.240  1.0896  0.1196 -0.9132
 5201TIP3    H239799   7.423   2.229  17.278  0.3288  1.3491  0.4545
 5202TIP3   OH239800   0.146   3.435  17.367 -0.2356 -0.3969  0.0402
 5202TIP3    H139801   0.157   3.527  17.342 -0.2548 -0.2037  0.7334
 5202TIP3    H239802   0.132   3.437  17.461 -2.1762 -0.9593 -0.2015
 5203TIP3   OH239803   1.027   3.837  16.887 -0.0287 -0.2353  0.0117
 5203TIP3    H139804   0.991   3.754  16.856  1.0221 -0.4490 -0.6890
 5203TIP3    H239805   0.953   3.898  16.881 -0.0193 -0.3381 -2.6669
 5204TIP3   OH239806   3.449   3.107  17.794  0.4099 -0.0168  0.5243
 5204TIP3    H139807   3.497   3.179  17.835 -0.1468  1.3946 -1.1936
 5204TIP3    H239808   3.361   3.113  17.832  0.4860 -0.0891  0.7137
 5205TIP3   OH239809   4.077   7.033  17.353  0.5668  0.5373 -0.5243
 5205TIP3    H139810   4.036   7.118  17.335  0.5719  0.4040 -1.1848
 5205TIP3    H239811   4.039   6.974  17.288  2.0998  0.5014 -1.4262
 5206TIP3   OH239812   3.559   5.846  15.933 -0.1284  0.3238 -0.1507
 5206TIP3    H139813   3.519   5.760  15.945  0.7835 -0.2098 -0.7444
 5206TIP3    H239814   3.555   5.861  15.839  1.7860 -0.1611 -0.3635
 5207TIP3   OH239815   6.181   7.006  17.734  0.2420 -0.1781  0.3757
 5207TIP3    H139816   6.277   7.000  17.733  0.3950 -0.1796  3.7914
 5207TIP3    H239817   6.163   7.099  17.749 -0.3715  0.0097 -1.3673
 5208TIP3   OH239818   5.892   7.245  17.331  0.5024 -0.4143  0.3722
 5208TIP3    H139819   5.837   7.261  17.254  1.2208  1.7951  0.2763
 5208TIP3    H239820   5.939   7.164  17.310  1.6701  0.8137 -2.1618
 5209TIP3   OH239821   4.667   5.551  16.949  0.3982  0.1436 -0.8172
 5209TIP3    H139822   4.732   5.592  17.007  1.7201 -1.7288 -0.8957
 5209TIP3    H239823   4.680   5.457  16.962 -0.9878 -0.2850 -2.3197
 5210TIP3   OH239824   2.669   7.930  16.666 -0.5347  0.2274  0.0564
 5210TIP3    H139825   2.738   7.894  16.722 -1.0998 -1.9816 -0.5950
 5210TIP3    H239826   2.686   8.024  16.666  2.8030 -0.2596 -0.4962
 5211TIP3   OH239827   5.870   3.827  17.510 -0.2505 -0.6927  0.4857
 5211TIP3    H139828   5.817   3.906  17.522  0.6586 -0.1492  1.0713
 5211TIP3    H239829   5.926   3.825  17.588  1.2583 -0.7091 -0.5748
 5212TIP3   OH239830   5.494   3.817  15.708  0.5920 -0.1681  0.1721
 5212TIP3    H139831   5.567   3.770  15.746 -0.7162 -2.8137 -0.3431
 5212TIP3    H239832   5.469   3.765  15.631 -1.1765  1.1968 -0.2577
 5213TIP3   OH239833   0.773   3.974  15.499  0.3661  0.0849 -0.0403
 5213TIP3    H139834   0.790   4.067  15.516 -1.2370  0.0983  1.9360
 5213TIP3    H239835   0.678   3.966  15.505  0.5012 -1.7295  0.0684
 5214TIP3   OH239836   7.953   1.161  18.075 -0.0215  0.4598 -0.4010
 5214TIP3    H139837   8.027   1.103  18.096 -0.2109  0.9633  1.9031
 5214TIP3    H239838   7.884   1.101  18.046  0.6467 -0.2094 -0.6653
 5215TIP3   OH239839   3.897   0.217  15.739  0.0407  0.4835  0.3485
 5215TIP3    H139840   3.897   0.186  15.830  2.3168  1.4899  0.7746
 5215TIP3    H239841   3.989   0.238  15.721 -0.5748  1.7626 -1.6851
 5216TIP3   OH239842   7.844   8.209  18.053  0.1307 -0.4544  0.2995
 5216TIP3    H139843   7.887   8.171  17.976 -0.0186 -0.8757  0.4196
 5216TIP3    H239844   7.916   8.243  18.106  0.3054 -0.9607  0.3928
 5217TIP3   OH239845   1.849   6.669  17.621  0.0266  0.8606 -0.3150
 5217TIP3    H139846   1.825   6.753  17.583  0.6650  1.2621  0.1558
 5217TIP3    H239847   1.940   6.656  17.595  0.2609  0.8208  0.5089
 5218TIP3   OH239848   6.492   4.089  16.390 -0.2517  0.7825 -0.2134
 5218TIP3    H139849   6.452   4.138  16.319  0.0717 -1.0951 -1.7791
 5218TIP3    H239850   6.420   4.070  16.451 -0.5184  2.4425  0.0237
 5219TIP3   OH239851   7.768   4.156  17.137 -0.4104 -0.1165  0.1740
 5219TIP3    H139852   7.743   4.202  17.057 -1.3127  0.2130  0.6343
 5219TIP3    H239853   7.693   4.166  17.196  0.3294 -0.1474  1.1558
 5220TIP3   OH239854   1.390   2.409  16.316 -0.0313 -0.1341 -0.0512
 5220TIP3    H139855   1.425   2.483  16.265  1.1519  0.2079  1.1830
 5220TIP3    H239856   1.372   2.342  16.251  1.3157  0.3251 -0.9556
 5221TIP3   OH239857   4.130   2.857  16.273  0.2665 -0.1275 -0.2705
 5221TIP3    H139858   4.110   2.783  16.216  1.9306 -0.3133 -0.6436
 5221TIP3    H239859   4.224   2.872  16.262 -0.0939  2.3321 -0.5338
 5222TIP3   OH239860   2.272   2.505  16.672  0.0266 -0.0228  0.2521
 5222TIP3    H139861   2.230   2.426  16.640 -0.6493  0.7659 -0.8468
 5222TIP3    H239862   2.263   2.499  16.767 -1.6866 -0.3576  0.0968
 5223TIP3   OH239863   6.329   4.505  17.193  0.0787 -0.2697 -0.1105
 5223TIP3    H139864   6.403   4.564  17.175 -2.1723  2.5872 -0.7430
 5223TIP3    H239865   6.312   4.462  17.109 -0.1970  0.5589 -0.4833
 5224TIP3   OH239866   0.552   5.030  16.540  0.3591  0.4524 -0.3684
 5224TIP3    H139867   0.481   4.977  16.574  0.6153  0.5493  0.3428
 5224TIP3    H239868   0.594   4.975  16.474  0.8062 -0.3595  0.5652
 5225TIP3   OH239869   0.181   0.131  16.538 -0.1110  0.2608 -0.4696
 5225TIP3    H139870   0.273   0.151  16.521 -0.8096  2.4016 -2.2412
 5225TIP3    H239871   0.157   0.190  16.609 -0.4902  0.8181 -1.0573
 5226TIP3   OH239872   8.185   5.485  15.758 -0.2311 -0.0123  0.3917
 5226TIP3    H139873   8.166   5.419  15.692 -0.9262  2.2413 -1.8170
 5226TIP3    H239874   8.271   5.461  15.793  1.1190 -0.2747 -2.7932
 5227TIP3   OH239875   5.394   1.735  16.350  0.3256 -0.0351  0.0280
 5227TIP3    H139876   5.487   1.750  16.365  0.4082 -0.6872  0.1748
 5227TIP3    H239877   5.390   1.678  16.274  0.1094 -1.2251  0.9061
 5228TIP3   OH239878   4.705   7.872  16.556  0.0914 -0.3705 -0.2454
 5228TIP3    H139879   4.791   7.859  16.515 -0.9865 -2.6330 -2.0423
 5228TIP3    H239880   4.675   7.957  16.523  1.5645  0.4239  0.3678
 5229TIP3   OH239881   6.043   7.223  15.745 -0.0440 -0.3404  0.3064
 5229TIP3    H139882   5.973   7.286  15.761 -2.4441 -2.5157 -0.8246
 5229TIP3    H239883   6.037   7.162  15.818  0.3764 -0.8090 -0.0449
 5230TIP3   OH239884   3.005   6.201  15.214 -0.2068 -0.5079 -0.3677
 5230TIP3    H139885   2.951   6.281  15.221  1.9054  0.8442  3.2446
 5230TIP3    H239886   3.021   6.176  15.305  2.9107 -2.4635 -1.3223
 5231TIP3   OH239887   4.314   7.058  17.091 -0.3842 -0.1391 -0.1554
 5231TIP3    H139888   4.405   7.029  17.097 -0.4474 -0.4985 -0.7449
 5231TIP3    H239889   4.276   7.039  17.176  0.1391  0.1725  0.1491
 5232TIP3   OH239890   5.647   7.339  16.801 -0.1682  0.0249 -0.4929
 5232TIP3    H139891   5.709   7.286  16.750 -1.4540 -1.7248 -0.3301
 5232TIP3    H239892   5.703   7.390  16.860  1.1595 -1.0109 -0.7916
 5233TIP3   OH239893   3.522   1.007  17.389 -0.0600 -0.6306 -0.0489
 5233TIP3    H139894   3.561   1.040  17.308  0.2571  0.5531  0.5679
 5233TIP3    H239895   3.565   1.057  17.458 -0.9967 -0.9764  0.7995
 5234TIP3   OH239896   5.650   7.813  15.921 -0.5847  0.2996  0.6510
 5234TIP3    H139897   5.720   7.848  15.867 -1.2459 -1.0057 -1.1325
 5234TIP3    H239898   5.591   7.888  15.935  0.4091  1.0405  0.9595
 5235TIP3   OH239899   5.174   4.051  17.638 -0.0065  0.2535  0.0691
 5235TIP3    H139900   5.196   3.966  17.676 -1.4347 -1.1317 -2.0082
 5235TIP3    H239901   5.094   4.078  17.682  0.8464  0.9319  1.2561
 5236TIP3   OH239902   4.014   0.488  15.949 -0.4392  0.1245 -0.8418
 5236TIP3    H139903   4.078   0.431  15.991 -2.5282 -1.9054 -0.2043
 5236TIP3    H239904   3.932   0.439  15.952 -2.1521  2.7383 -1.2724
 5237TIP3   OH239905   7.610   6.388  16.985  0.4351  0.4073  0.3769
 5237TIP3    H139906   7.567   6.455  17.039 -0.5410  0.7858 -0.8404
 5237TIP3    H239907   7.701   6.417  16.980  0.5102  0.4615  1.6537
 5238TIP3   OH239908   2.470   2.850  17.244  0.5096 -0.4460  0.4585
 5238TIP3    H139909   2.507   2.762  17.238  1.8719  0.1296  0.0363
 5238TIP3    H239910   2.529   2.896  17.304  0.7215  0.6258 -0.5562
 5239TIP3   OH239911   3.811   7.097  15.843  0.1944 -0.0316 -0.1799
 5239TIP3    H139912   3.745   7.037  15.808  1.4623 -1.9189  0.5227
 5239TIP3    H239913   3.895   7.059  15.816  1.0654  1.1343  0.7631
 5240TIP3   OH239914   5.459   5.755  17.212 -0.2225  0.0483  0.5385
 5240TIP3    H139915   5.436   5.766  17.304 -3.5788 -2.0479  0.1497
 5240TIP3    H239916   5.376   5.768  17.165  1.2670  0.5968 -2.1765
 5241TIP3   OH239917   6.107   3.506  16.798 -0.2150 -0.0313  0.0431
 5241TIP3    H139918   6.107   3.452  16.877 -2.4321  0.0139  0.1308
 5241TIP3    H239919   6.085   3.594  16.828  0.8923  0.4164 -0.4108
 5242TIP3   OH239920   1.251   2.279  16.534 -0.3237  0.1673 -0.5690
 5242TIP3    H139921   1.273   2.356  16.482 -0.7335  0.9715  0.4241
 5242TIP3    H239922   1.271   2.304  16.624 -1.7796 -0.3689 -0.0646
 5243TIP3   OH239923   3.850   1.174  17.340  0.2950  1.1095  0.4754
 5243TIP3    H139924   3.932   1.128  17.323  0.0899  0.2668  1.6221
 5243TIP3    H239925   3.786   1.132  17.283  0.2733  0.4756  0.9548
 5244TIP3   OH239926   1.279   5.717  16.330 -0.4471 -0.2558 -0.6589
 5244TIP3    H139927   1.260   5.714  16.424  0.9508 -1.6889 -0.3831
 5244TIP3    H239928   1.281   5.811  16.309 -0.0305  0.1139  0.9021
 5245TIP3   OH239929   4.488   3.148  16.476  0.0130  0.5237  0.5397
 5245TIP3    H139930   4.562   3.102  16.436 -0.1941  1.0492 -0.4667
 5245TIP3    H239931   4.476   3.104  16.560 -1.2901 -2.4675 -1.0588
 5246TIP3   OH239932   6.439   0.096  17.992 -0.0144 -0.0956  0.5480
 5246TIP3    H139933   6.362   0.103  17.936  0.9244  0.6489 -0.7281
 5246TIP3    H239934   6.429   0.167  18.055  0.7526  1.6162 -1.1411
 5247TIP3   OH239935   0.007   3.126  17.642 -0.4695 -0.2845  0.4866
 5247TIP3    H139936   0.085   3.136  17.587  0.4640  0.4880  1.9165
 5247TIP3    H239937  -0.012   3.033  17.639  1.7470 -0.8388  1.7344
 5248TIP3   OH239938   5.956   1.827  15.632 -0.0264 -0.2627 -0.8720
 5248TIP3    H139939   5.900   1.900  15.657  0.0585 -0.0094 -1.3954
 5248TIP3    H239940   6.044   1.852  15.661 -0.5549 -1.9493  2.6691
 5249TIP3   OH239941   1.912   5.485  17.365 -1.0020 -0.2798 -0.8220
 5249TIP3    H139942   1.874   5.507  17.281 -0.2561 -0.7330 -1.2891
 5249TIP3    H239943   2.002   5.516  17.360 -1.0163 -0.1094 -0.1099
 5250TIP3   OH239944   8.170   3.192  16.081 -0.3132 -0.1898 -0.4292
 5250TIP3    H139945   8.205   3.260  16.023 -0.3617 -0.5272 -0.8579
 5250TIP3    H239946   8.168   3.233  16.167  0.8012 -0.0454 -0.4609
 5251TIP3   OH239947   5.553   1.416  17.548  0.5174  0.4451 -0.4333
 5251TIP3    H139948   5.635   1.464  17.542  1.1549 -0.5525 -0.0401
 5251TIP3    H239949   5.580   1.325  17.560 -0.6491  0.1549  0.0832
 5252TIP3   OH239950   7.141   2.972  16.698  0.6398 -0.4123 -0.2021
 5252TIP3    H139951   7.183   2.929  16.773  0.6852  2.3815  1.4995
 5252TIP3    H239952   7.072   3.026  16.737 -3.1702 -2.9603 -2.6708
 5253TIP3   OH239953   7.220   6.457  17.201 -0.3085  0.1995 -0.5416
 5253TIP3    H139954   7.166   6.407  17.140 -1.4267 -0.3248  0.8363
 5253TIP3    H239955   7.165   6.530  17.227  0.9095  1.6032 -1.6775
 5254TIP3   OH239956   2.271   6.413  16.615 -0.4722  0.0889 -0.4937
 5254TIP3    H139957   2.222   6.331  16.623 -1.3166  0.7064  1.1193
 5254TIP3    H239958   2.333   6.411  16.687 -1.6510  1.5779  0.6310
 5255TIP3   OH239959   5.145   6.351  17.089 -0.2342 -0.1625 -0.0207
 5255TIP3    H139960   5.127   6.290  17.160 -0.9302  0.4232  0.3238
 5255TIP3    H239961   5.218   6.311  17.041  0.5340 -0.3757  1.2590
 5256TIP3   OH239962   4.021   6.570  17.301  1.0572 -0.6877  0.5872
 5256TIP3    H139963   3.936   6.526  17.303  0.3186  0.6739  0.4736
 5256TIP3    H239964   4.081   6.503  17.268  0.3082 -2.1033  1.9595
 5257TIP3   OH239965   5.082   1.395  17.805 -0.0492  0.1490 -0.4081
 5257TIP3    H139966   5.174   1.375  17.820 -0.0202  1.1800  1.0210
 5257TIP3    H239967   5.042   1.312  17.780  1.0932 -0.4806 -0.1916
 5258TIP3   OH239968   5.373   1.156  17.365  0.4121  0.0609 -0.3843
 5258TIP3    H139969   5.324   1.233  17.393  2.6856  1.0401  1.2757
 5258TIP3    H239970   5.402   1.176  17.276 -0.2613  0.4547 -0.5164
 5259TIP3   OH239971   1.498   6.647  16.211 -0.1194  0.3080 -0.1389
 5259TIP3    H139972   1.449   6.694  16.278 -0.8092  1.2177 -1.2513
 5259TIP3    H239973   1.432   6.619  16.148  0.5412 -0.3695 -0.5463
 5260TIP3   OH239974   6.578   4.468  17.592 -0.2271 -0.0598 -0.2245
 5260TIP3    H139975   6.572   4.546  17.647 -0.1195 -0.5967  0.5491
 5260TIP3    H239976   6.499   4.472  17.538  0.0420  0.8704 -0.5860
 5261TIP3   OH239977   1.877   7.369  16.656  0.4791 -0.0503  0.0543
 5261TIP3    H139978   1.790   7.384  16.694  0.3720 -0.3901 -0.0478
 5261TIP3    H239979   1.937   7.378  16.729  0.0146 -4.3507  1.2584
 5262TIP3   OH239980   1.832   6.827  16.782 -0.4587  0.0453  0.1338
 5262TIP3    H139981   1.860   6.918  16.773 -2.4804  0.8850  1.6827
 5262TIP3    H239982   1.808   6.800  16.694 -0.4649  1.2410 -0.2431
 5263TIP3   OH239983   7.276   0.554  16.259  0.0462  0.1450 -0.4955
 5263TIP3    H139984   7.202   0.614  16.248  0.5723  0.7375 -0.8230
 5263TIP3    H239985   7.236   0.467  16.257 -0.4213  0.3574 -2.8099
 5264TIP3   OH239986   8.091   4.230  17.208  0.1406  0.3177  0.8044
 5264TIP3    H139987   8.076   4.143  17.172  0.8398  0.3997  0.2887
 5264TIP3    H239988   8.175   4.223  17.253  0.5435  0.8990  0.1606
 5265TIP3   OH239989   6.697   8.083  15.660 -0.8122 -0.1300  0.8229
 5265TIP3    H139990   6.765   8.024  15.691 -1.1983 -1.3979 -0.6174
 5265TIP3    H239991   6.627   8.076  15.726  0.3072  1.0178  2.1910
 5266TIP3   OH239992   8.426   3.108  17.327  0.3947 -0.0040  0.3396
 5266TIP3    H139993   8.418   3.178  17.263 -0.7287  1.9645  2.4579
 5266TIP3    H239994   8.506   3.130  17.376  1.3248 -1.5575 -0.4266
 5267TIP3   OH239995   6.956   4.796  17.956 -0.0909 -0.6218 -0.7126
 5267TIP3    H139996   6.871   4.796  17.912 -0.3346 -0.7084 -0.2476
 5267TIP3    H239997   6.935   4.811  18.048  0.4286 -0.2681 -0.6523
 5268TIP3   OH239998   5.017   4.404  16.457  0.1355 -0.2301 -0.3964
 5268TIP3    H139999   5.095   4.410  16.511  0.7377  1.5213 -1.3626
 5268TIP3    H240000   5.024   4.478  16.397 -3.4492  1.5264  1.0354
 5269TIP3   OH240001   6.895   0.789  15.658 -0.2346 -0.4833 -0.1349
 5269TIP3    H140002   6.842   0.853  15.705  1.3807  0.7293  0.1384
 5269TIP3    H240003   6.908   0.826  15.571  0.5842 -0.4853 -0.0282
 5270TIP3   OH240004   3.137   1.684  15.907  0.2984  0.2740 -0.1915
 5270TIP3    H140005   3.123   1.773  15.873 -0.2238  0.3875  0.2902
 5270TIP3    H240006   3.049   1.646  15.909  0.4918 -0.1727 -0.1747
 5271TIP3   OH240007   6.583   4.336  17.013  0.2721  0.2851  0.2368
 5271TIP3    H140008   6.636   4.306  17.087  1.0838  1.0421 -0.0184
 5271TIP3    H240009   6.549   4.422  17.041 -1.3625 -0.4511  0.6451
 5272TIP3   OH240010   4.809   7.241  16.307 -0.1661 -0.2920 -0.4288
 5272TIP3    H140011   4.755   7.202  16.376 -0.9209  0.1307 -0.7629
 5272TIP3    H240012   4.768   7.211  16.225 -0.5547  0.9006 -0.6873
 5273TIP3   OH240013   1.489   3.001  17.294  0.2800 -0.1921  0.1883
 5273TIP3    H140014   1.482   3.053  17.214  1.6568  0.4201  0.4387
 5273TIP3    H240015   1.475   2.911  17.265 -0.0961  0.1066 -0.5966
 5274TIP3   OH240016   1.442   7.032  16.824  0.0114  0.2105 -0.1351
 5274TIP3    H140017   1.402   7.100  16.770  0.7383  2.0231  1.4852
 5274TIP3    H240018   1.369   6.988  16.867 -0.4098  1.1374  0.1119
 5275TIP3   OH240019   5.892   6.813  17.928 -0.6302 -0.1068 -0.2573
 5275TIP3    H140020   5.959   6.866  17.971  0.7790 -2.8273  1.1747
 5275TIP3    H240021   5.855   6.760  17.999 -2.6063 -0.4412 -1.4522
 5276TIP3   OH240022   6.396   6.460  16.927  0.0112 -0.0690  0.2419
 5276TIP3    H140023   6.461   6.508  16.980  0.0323  1.7845 -1.3456
 5276TIP3    H240024   6.313   6.504  16.946 -0.1662 -0.1071 -0.4392
 5277TIP3   OH240025   7.282   0.971  17.303 -0.2181  0.1165  0.0820
 5277TIP3    H140026   7.325   1.017  17.231 -0.3554 -1.1419 -0.8353
 5277TIP3    H240027   7.253   1.040  17.362  1.2184  1.1002 -0.3188
 5278TIP3   OH240028   1.602   2.563  16.502 -0.4281  0.0917  0.4993
 5278TIP3    H140029   1.617   2.496  16.568 -1.9640  0.0733  0.8757
 5278TIP3    H240030   1.580   2.515  16.423 -2.5128  0.0945  1.0169
 5279TIP3   OH240031   4.537   2.493  17.292  0.5092  0.0980 -0.1404
 5279TIP3    H140032   4.546   2.576  17.340 -0.3244 -0.9939  2.0150
 5279TIP3    H240033   4.452   2.499  17.249 -0.1439 -0.1343  1.0867
 5280TIP3   OH240034   5.785   4.311  17.486 -0.0842  0.1521  0.0240
 5280TIP3    H140035   5.694   4.343  17.486  0.3834  1.5665 -0.7792
 5280TIP3    H240036   5.820   4.340  17.401  1.6854  1.2799  1.0856
 5281TIP3   OH240037   1.482   5.247  17.210 -0.6019  0.1390  0.1681
 5281TIP3    H140038   1.427   5.179  17.249  1.9872 -1.0497  2.0834
 5281TIP3    H240039   1.438   5.329  17.232 -1.9978 -0.7689  0.9144
 5282TIP3   OH240040   6.343   2.834  17.746  0.0566 -0.0848 -0.3572
 5282TIP3    H140041   6.397   2.908  17.717  0.2825 -0.0584  0.1207
 5282TIP3    H240042   6.281   2.872  17.808 -0.2032 -0.2022 -0.5403
 5283TIP3   OH240043   2.492   0.616  17.461 -0.1225 -0.4326  0.0630
 5283TIP3    H140044   2.488   0.574  17.375 -1.1569  1.1904 -0.7257
 5283TIP3    H240045   2.575   0.662  17.462 -0.2059 -0.2749 -0.1633
 5284TIP3   OH240046   2.465   0.966  15.896 -0.3698 -0.3336  0.4435
 5284TIP3    H140047   2.490   0.884  15.854 -0.6105 -0.6876  0.9799
 5284TIP3    H240048   2.375   0.981  15.867 -1.3821 -1.7636  2.5538
 5285TIP3   OH240049   6.788   6.931  16.646 -0.5499  0.8514 -0.6461
 5285TIP3    H140050   6.694   6.917  16.652 -0.4563 -0.2798 -1.5872
 5285TIP3    H240051   6.822   6.853  16.603  0.8051  1.3174 -0.4850
 5286TIP3   OH240052   4.546   3.555  15.893 -0.5859 -0.3115 -0.2197
 5286TIP3    H140053   4.470   3.541  15.950 -0.7546 -0.9559 -0.5937
 5286TIP3    H240054   4.518   3.624  15.832 -0.7575 -0.3215 -0.1537
 5287TIP3   OH240055   7.554   0.075  16.566  0.2624  0.2610 -0.1331
 5287TIP3    H140056   7.643   0.103  16.589  0.2805  1.6524 -1.6333
 5287TIP3    H240057   7.499   0.110  16.636  1.0189 -2.4109  1.9684
 5288TIP3   OH240058   1.597   7.680  17.069 -0.0174 -0.1884 -0.1329
 5288TIP3    H140059   1.510   7.647  17.094  0.4449 -2.3679 -1.1403
 5288TIP3    H240060   1.658   7.614  17.104  0.9897 -0.4106 -2.1869
 5289TIP3   OH240061   1.510   4.267  15.910  0.2810  0.4577 -0.0912
 5289TIP3    H140062   1.568   4.200  15.875  0.3412  0.0498  0.7712
 5289TIP3    H240063   1.426   4.251  15.866  0.3469 -0.0641 -0.0335
 5290TIP3   OH240064   4.574   2.920  17.372 -0.1375  0.0593  0.1119
 5290TIP3    H140065   4.599   2.916  17.464  1.8657  2.5257 -0.2464
 5290TIP3    H240066   4.636   2.862  17.328  0.2946  0.5633  0.0594
 5291TIP3   OH240067   0.195   0.019  17.291 -0.2351  0.5497  0.1514
 5291TIP3    H140068   0.271   0.073  17.269 -1.1849  1.5098 -0.8786
 5291TIP3    H240069   0.160   0.058  17.371  0.3284  0.1176  0.6171
 5292TIP3   OH240070   1.971   1.006  16.351  0.5770 -0.7179 -0.2338
 5292TIP3    H140071   1.941   1.085  16.395 -0.5635 -0.5984 -1.1786
 5292TIP3    H240072   1.996   0.947  16.421 -0.0936 -0.1055  0.5356
 5293TIP3   OH240073   4.896   5.130  17.535  0.2886 -0.8548 -0.1838
 5293TIP3    H140074   4.930   5.205  17.486  0.2427  0.3702  1.5595
 5293TIP3    H240075   4.858   5.169  17.614  0.5675 -2.7614  0.9419
 5294TIP3   OH240076   0.854   0.795  16.682 -0.1205 -0.3541  0.2477
 5294TIP3    H140077   0.799   0.816  16.758  0.0435 -1.3583  0.6629
 5294TIP3    H240078   0.829   0.859  16.616 -0.7363  0.1299  0.9284
 5295TIP3   OH240079   0.438   7.377  16.621  0.0369 -0.5305 -0.2347
 5295TIP3    H140080   0.476   7.457  16.657  0.3346 -1.2272  1.0491
 5295TIP3    H240081   0.494   7.354  16.547  1.0226 -0.5322  0.5021
 5296TIP3   OH240082   4.241   2.156  17.592 -0.3384 -0.0464 -0.6686
 5296TIP3    H140083   4.159   2.115  17.620  0.9160 -2.4913 -0.3194
 5296TIP3    H240084   4.233   2.163  17.496 -1.0362 -0.0590 -0.6152
 5297TIP3   OH240085   2.712   5.068  16.555  0.2904 -0.0945  0.2914
 5297TIP3    H140086   2.670   5.040  16.636 -0.0975  1.0870  0.5324
 5297TIP3    H240087   2.804   5.080  16.578  0.2256  0.0132  0.4958
 5298TIP3   OH240088   4.459   2.993  18.130  0.4140 -0.2088  0.2518
 5298TIP3    H140089   4.494   3.014  18.216  0.1274  0.8611  0.1196
 5298TIP3    H240090   4.457   3.077  18.083  1.8244 -0.9559 -1.2706
 5299TIP3   OH240091   4.417   7.871  16.707 -0.4017 -0.2439 -0.4712
 5299TIP3    H140092   4.489   7.868  16.770 -0.7078  0.3403 -0.0939
 5299TIP3    H240093   4.388   7.780  16.699  0.3730 -0.4851 -0.6255
 5300TIP3   OH240094   4.313   7.978  17.582  0.1281 -0.7239  0.0367
 5300TIP3    H140095   4.396   8.012  17.549  0.2895  1.5761  2.4496
 5300TIP3    H240096   4.248   8.044  17.557 -0.4101 -0.9361  0.8181
 5301TIP3   OH240097   4.143   1.653  17.843  0.1153 -0.1307  0.1105
 5301TIP3    H140098   4.147   1.577  17.901  0.1120  0.7046  1.2268
 5301TIP3    H240099   4.160   1.617  17.756 -2.3143 -1.8381  0.2223
 5302TIP3   OH240100   7.009   0.775  17.816 -0.3162 -0.1630 -0.1024
 5302TIP3    H140101   6.913   0.781  17.815 -0.3965 -0.7883 -2.2071
 5302TIP3    H240102   7.039   0.860  17.784 -0.0791  0.4800  1.7254
 5303TIP3   OH240103   1.560   0.504  16.213 -0.2243  0.2581 -0.3723
 5303TIP3    H140104   1.516   0.589  16.207 -0.8731 -0.0224  0.2531
 5303TIP3    H240105   1.572   0.477  16.123  0.1924  1.1215 -0.5836
 5304TIP3   OH240106   2.508   8.206  16.695  0.3697 -0.2553 -0.6408
 5304TIP3    H140107   2.603   8.219  16.692  0.6484 -2.2023 -1.9839
 5304TIP3    H240108   2.489   8.191  16.788  1.4743 -0.5259 -0.4458
 5305TIP3   OH240109   1.175   6.140  17.259 -0.2233 -0.3397 -0.3864
 5305TIP3    H140110   1.237   6.205  17.291 -1.5931  0.9298 -0.2061
 5305TIP3    H240111   1.095   6.189  17.241 -1.0760 -1.8572 -0.9741
 5306TIP3   OH240112   3.740   3.530  16.981 -0.9897 -0.2436 -0.1918
 5306TIP3    H140113   3.777   3.618  16.969 -1.2804  0.1229  1.3675
 5306TIP3    H240114   3.655   3.533  16.937 -0.3652 -0.2226 -1.4202
 5307TIP3   OH240115   4.495   0.797  17.519 -0.0237  0.3088 -0.1696
 5307TIP3    H140116   4.527   0.745  17.445 -2.6024 -0.7769 -0.6499
 5307TIP3    H240117   4.482   0.885  17.483 -1.4261 -0.2491 -1.1514
 5308TIP3   OH240118   4.265   1.672  16.802  0.4710 -0.1289  0.4550
 5308TIP3    H140119   4.336   1.732  16.782 -0.9861  1.5780  0.1070
 5308TIP3    H240120   4.200   1.726  16.847 -0.5534 -1.6538  0.9028
 5309TIP3   OH240121   6.436   1.674  16.803 -0.2717 -0.6272 -0.0291
 5309TIP3    H140122   6.443   1.760  16.843 -1.5449 -1.2585  1.7200
 5309TIP3    H240123   6.483   1.681  16.720  0.3210  1.4968  0.4359
 5310TIP3   OH240124   0.539   1.393  15.480 -0.0522  0.8441  0.2478
 5310TIP3    H140125   0.613   1.357  15.433  1.0349  2.1228  0.9052
 5310TIP3    H240126   0.494   1.317  15.516 -0.1460 -0.0706 -1.6784
 5311TIP3   OH240127   0.765   0.904  15.584 -0.2018 -0.4503  0.3431
 5311TIP3    H140128   0.786   0.815  15.612 -0.7510 -0.2677  1.3780
 5311TIP3    H240129   0.840   0.957  15.614 -1.3466 -0.0389  2.7532
 5312TIP3   OH240130   6.309   5.443  17.920 -0.2121  0.4235  0.3062
 5312TIP3    H140131   6.245   5.511  17.898  0.4259  1.5896  1.8868
 5312TIP3    H240132   6.385   5.465  17.866 -0.4032  0.2492 -0.0438
 5313TIP3   OH240133   1.895   5.126  16.334 -0.2022 -0.0069 -0.1046
 5313TIP3    H140134   1.827   5.094  16.274 -0.1310 -0.0611 -0.1582
 5313TIP3    H240135   1.890   5.067  16.409 -0.5404  0.2916  0.1069
 5314TIP3   OH240136   5.482   0.789  16.714  1.1326 -0.1205 -0.1375
 5314TIP3    H140137   5.469   0.848  16.639  0.6737 -0.2158 -0.1354
 5314TIP3    H240138   5.431   0.829  16.785  0.1400 -0.9350 -0.3595
 5315TIP3   OH240139   6.452   7.352  16.547 -0.2058 -0.8565 -0.5444
 5315TIP3    H140140   6.410   7.323  16.466  1.3757 -0.2632 -1.6322
 5315TIP3    H240141   6.531   7.299  16.553 -1.0859 -2.0703  1.5460
 5316TIP3   OH240142   1.497   0.156  17.053 -0.2895  0.1622 -0.7920
 5316TIP3    H140143   1.576   0.133  17.102 -1.1351 -2.1250 -0.3653
 5316TIP3    H240144   1.502   0.103  16.974 -1.2606  0.1695 -0.8720
 5317TIP3   OH240145   1.669   2.213  15.989  0.6277  0.6070  0.1564
 5317TIP3    H140146   1.602   2.280  15.976  0.1832  0.2963  0.8100
 5317TIP3    H240147   1.644   2.169  16.070  2.4072  1.4347  1.2209
 5318TIP3   OH240148   4.662   8.169  16.237 -0.0102 -0.5258 -0.2357
 5318TIP3    H140149   4.733   8.220  16.199  1.9992 -1.7633  1.6498
 5318TIP3    H240150   4.640   8.215  16.318 -1.0545 -0.4374 -0.5500
 5319TIP3   OH240151   7.269   5.809  16.059  0.1254  0.3989 -0.5307
 5319TIP3    H140152   7.190   5.778  16.015  1.7985  0.2682 -3.7343
 5319TIP3    H240153   7.290   5.892  16.016  1.1876  0.9414  0.9561
 5320TIP3   OH240154   6.918   4.527  16.000 -0.3201 -0.2204  0.7973
 5320TIP3    H140155   6.933   4.434  16.019 -1.0323 -0.2833  1.0880
 5320TIP3    H240156   6.832   4.529  15.959 -0.6997  0.3996  1.5858
 5321TIP3   OH240157   3.241   6.959  16.666 -0.4752 -0.1009 -0.9765
 5321TIP3    H140158   3.291   6.897  16.614  1.0886 -0.1600  0.5084
 5321TIP3    H240159   3.275   7.045  16.642 -0.7133 -0.0248 -1.0475
 5322TIP3   OH240160   8.432   8.404  16.285 -0.5089 -0.1179 -0.1319
 5322TIP3    H140161   8.390   8.354  16.356 -1.4725 -0.8061 -1.1532
 5322TIP3    H240162   8.429   8.495  16.314 -0.6202 -0.4204  0.8387
 5323TIP3   OH240163   7.303   6.118  17.009 -0.4216 -0.0462  0.1139
 5323TIP3    H140164   7.228   6.175  17.023  1.7410  2.7606  1.1438
 5323TIP3    H240165   7.336   6.142  16.922  0.7041  0.5519  0.6936
 5324TIP3   OH240166   2.786   5.911  16.954  0.5150 -0.3211  0.1735
 5324TIP3    H140167   2.720   5.968  16.993  0.2849 -1.1665  1.0783
 5324TIP3    H240168   2.818   5.959  16.878  0.7307  1.2572  1.2043
 5325TIP3   OH240169   3.117   3.469  17.449  0.3244  0.3678 -0.3353
 5325TIP3    H140170   3.026   3.468  17.478 -0.3901 -3.6316 -2.0593
 5325TIP3    H240171   3.167   3.471  17.531 -1.3937 -0.1283  0.7986
 5326TIP3   OH240172   0.413   7.750  17.389 -0.0695 -0.3077 -0.2820
 5326TIP3    H140173   0.345   7.725  17.326 -0.0490  0.2221 -0.5172
 5326TIP3    H240174   0.382   7.832  17.427 -0.4075 -0.9740  0.9091
 5327TIP3   OH240175   7.148   0.708  17.284 -0.0486  0.2939 -0.6593
 5327TIP3    H140176   7.056   0.702  17.259 -0.9509  0.4122  2.2887
 5327TIP3    H240177   7.166   0.802  17.285 -0.9793  0.5235  1.9856
 5328TIP3   OH240178   7.924   3.248  16.746  0.3655  0.1309  0.3963
 5328TIP3    H140179   7.929   3.327  16.693  0.2268  0.0429  0.2483
 5328TIP3    H240180   7.832   3.221  16.739 -0.2715  1.4652  2.6487
 5329TIP3   OH240181   1.437   7.978  15.768 -0.0837 -0.3402  0.1256
 5329TIP3    H140182   1.461   8.070  15.782  0.9145 -0.6257  0.4217
 5329TIP3    H240183   1.502   7.929  15.819 -0.9256 -1.1969  0.3918
 5330TIP3   OH240184   6.164   7.294  17.727 -0.0493 -0.2090  0.9463
 5330TIP3    H140185   6.256   7.320  17.726 -0.1826  0.2796 -0.3291
 5330TIP3    H240186   6.116   7.376  17.737 -0.4073 -0.1342 -0.9578
 5331TIP3   OH240187   8.094   1.803  17.720  0.3146  0.6216 -0.6456
 5331TIP3    H140188   8.172   1.847  17.686  0.0597  2.5153  1.0369
 5331TIP3    H240189   8.033   1.874  17.738 -2.1469 -0.8218 -2.5486
 5332TIP3   OH240190   5.807   0.527  16.513 -0.9943 -0.1727 -0.1216
 5332TIP3    H140191   5.783   0.568  16.596 -0.6223  1.0257 -0.5808
 5332TIP3    H240192   5.824   0.436  16.535 -0.7864  0.1513  1.1407
 5333TIP3   OH240193   4.862   2.422  18.324  0.5033  0.0442  0.1080
 5333TIP3    H140194   4.853   2.347  18.265 -3.1783 -0.2929  0.8748
 5333TIP3    H240195   4.831   2.390  18.409 -2.8075  2.6484  0.0984
 5334TIP3   OH240196   8.278   0.350  16.523  0.4469  0.0261 -0.0968
 5334TIP3    H140197   8.257   0.395  16.441 -0.0156  1.5911  0.8222
 5334TIP3    H240198   8.351   0.401  16.560  0.8902 -0.8735  0.2922
 5335TIP3   OH240199   0.914   8.068  15.790  0.3659  0.2674 -0.4864
 5335TIP3    H140200   0.947   7.986  15.826 -0.4377  0.3908  0.6197
 5335TIP3    H240201   0.900   8.051  15.697  0.5362 -0.7403 -0.3340
 5336TIP3   OH240202   3.620   7.536  17.222  0.1625 -0.0462 -0.0324
 5336TIP3    H140203   3.580   7.449  17.226  1.7194 -0.7221  2.3986
 5336TIP3    H240204   3.707   7.521  17.184 -0.2398  0.8022 -1.3982
 5337TIP3   OH240205   7.992   8.103  17.867  0.0021  0.3735  0.0950
 5337TIP3    H140206   7.990   8.007  17.866 -1.4315  0.3541  0.9428
 5337TIP3    H240207   8.004   8.128  17.775 -1.6712 -0.6340 -0.4481
 5338TIP3   OH240208   0.314   6.145  17.594 -0.4564  0.1896 -0.1663
 5338TIP3    H140209   0.385   6.083  17.577 -0.1607  0.7244 -0.9773
 5338TIP3    H240210   0.351   6.230  17.569 -1.5264  0.4235 -1.0274
 5339TIP3   OH240211   5.464   8.020  15.961  0.3732 -0.1689  0.3953
 5339TIP3    H140212   5.459   8.115  15.949 -0.3204 -0.3879 -1.3405
 5339TIP3    H240213   5.407   7.984  15.893  1.7942 -1.8884  0.0302
 5340TIP3   OH240214   0.674   4.933  17.862  0.1761 -0.2482  0.8714
 5340TIP3    H140215   0.633   4.988  17.796  0.4096 -1.1361 -0.0467
 5340TIP3    H240216   0.726   4.993  17.916 -1.4068  0.7280  1.3510
 5341TIP3   OH240217   8.183   5.764  16.663 -0.1655 -0.4005  0.2781
 5341TIP3    H140218   8.259   5.707  16.674 -0.1458 -0.1158  1.8686
 5341TIP3    H240219   8.183   5.819  16.741 -0.8698  0.9771 -0.6488
 5342TIP3   OH240220   0.139   7.222  17.375 -0.3980  0.1115 -0.1352
 5342TIP3    H140221   0.151   7.162  17.301 -0.6354  1.3199 -1.1806
 5342TIP3    H240222   0.228   7.245  17.402 -0.2810 -1.3743  0.8669
 5343TIP3   OH240223   0.003   2.326  16.700 -0.4645  0.5028 -0.2806
 5343TIP3    H140224   0.085   2.375  16.704  0.2199 -0.6684  0.8587
 5343TIP3    H240225  -0.020   2.324  16.607  1.1143  0.3778 -0.6895
 5344TIP3   OH240226   3.710   6.293  16.055  0.2349  0.0389  0.0718
 5344TIP3    H140227   3.716   6.296  15.960 -0.8527  2.1277  0.0077
 5344TIP3    H240228   3.663   6.373  16.079  1.1059 -0.0646  2.4258
 5345TIP3   OH240229   7.533   6.148  17.723  0.3728  0.6032  0.0621
 5345TIP3    H140230   7.480   6.091  17.779 -0.3271  0.7895 -0.4091
 5345TIP3    H240231   7.470   6.193  17.667  1.0600  0.3800 -0.9195
 5346TIP3   OH240232   1.237   6.333  16.987  0.1000  0.2220 -0.2738
 5346TIP3    H140233   1.167   6.313  17.049  1.0999 -0.6401  0.6267
 5346TIP3    H240234   1.237   6.429  16.981 -1.5038  0.2125 -0.7353
 5347TIP3   OH240235   4.535   2.514  16.822 -0.7893  0.2214  0.3203
 5347TIP3    H140236   4.569   2.487  16.737 -0.7724  0.3384  0.2895
 5347TIP3    H240237   4.596   2.476  16.885 -0.6998  0.2886  0.2730
 5348TIP3   OH240238   0.020   2.397  17.297 -0.2491 -0.0029  0.3735
 5348TIP3    H140239   0.091   2.402  17.234  0.2348  0.0326  0.9170
 5348TIP3    H240240   0.055   2.347  17.370  0.1647  2.2957  1.8591
 5349TIP3   OH240241   0.920   8.345  15.991 -0.2028 -0.0520 -0.2316
 5349TIP3    H140242   0.844   8.288  15.979  0.4327 -0.8578 -0.5379
 5349TIP3    H240243   0.886   8.434  15.977 -1.7198 -0.0790  2.4943
 5350TIP3   OH240244   1.435   6.369  17.997  0.0794  0.2366 -0.8686
 5350TIP3    H140245   1.369   6.368  18.066 -1.0541  0.4587 -1.9128
 5350TIP3    H240246   1.390   6.332  17.921  1.8491 -1.7735 -1.0310
 5351TIP3   OH240247   8.370   1.597  15.684  0.6531 -0.4646 -0.2989
 5351TIP3    H140248   8.410   1.636  15.606 -0.9441  0.2497 -0.8126
 5351TIP3    H240249   8.432   1.530  15.712  1.7830  0.0203 -1.5331
 5352TIP3   OH240250   5.525   4.867  17.016 -0.3228 -0.0894 -0.4872
 5352TIP3    H140251   5.552   4.940  17.072  1.3800 -1.0731  0.0588
 5352TIP3    H240252   5.444   4.835  17.056 -0.8038  1.1491 -0.4305
 5353TIP3   OH240253   1.991   5.071  17.578  0.0646  0.6321  0.3474
 5353TIP3    H140254   1.900   5.082  17.605  0.0026 -0.7234  0.8051
 5353TIP3    H240255   2.042   5.102  17.652 -0.0262  1.1617  0.1902
 5354TIP3   OH240256   7.693   1.884  16.561  0.0279  0.4672 -0.7274
 5354TIP3    H140257   7.668   1.898  16.652  2.9683  1.7460 -0.0073
 5354TIP3    H240258   7.629   1.936  16.511 -1.2420  0.2546  0.6135
 5355TIP3   OH240259   3.462   5.879  17.611 -0.6050  0.3451 -0.9493
 5355TIP3    H140260   3.480   5.971  17.632 -0.6083  0.2947 -0.7248
 5355TIP3    H240261   3.368   5.870  17.625 -0.2001 -0.4291  1.9669
 5356TIP3   OH240262   7.999   7.043  16.136  0.1038 -0.3379  0.4319
 5356TIP3    H140263   8.072   7.091  16.096  0.3443  0.1926  1.4498
 5356TIP3    H240264   8.041   6.989  16.204 -0.2748 -1.2998 -0.0930
 5357TIP3   OH240265   1.404   4.690  15.357 -0.2046  0.6397  0.1065
 5357TIP3    H140266   1.348   4.767  15.369 -0.6272  0.1569  1.4966
 5357TIP3    H240267   1.359   4.638  15.290 -0.6207  0.9713  0.1241
 5358TIP3   OH240268   3.967   1.877  17.844 -1.0113  0.1198 -0.2448
 5358TIP3    H140269   4.011   1.793  17.835 -0.2877  0.5170 -0.4378
 5358TIP3    H240270   4.009   1.918  17.920 -2.1023 -0.1442  0.5225
 5359TIP3   OH240271   1.735   2.371  17.025  0.0734  0.7170 -0.0870
 5359TIP3    H140272   1.742   2.302  17.092  0.0436 -1.3398 -2.0699
 5359TIP3    H240273   1.777   2.447  17.065  1.3501 -0.8274  1.7418
 5360TIP3   OH240274   2.215   3.158  16.320  0.1204  0.1299  0.3673
 5360TIP3    H140275   2.139   3.132  16.267  1.3706  2.1763 -2.7885
 5360TIP3    H240276   2.185   3.237  16.366  0.2516  1.0158 -0.9771
 5361TIP3   OH240277   8.249   1.552  16.085  0.4841 -0.5193 -0.2829
 5361TIP3    H140278   8.251   1.464  16.124 -1.3635 -0.6747 -0.4266
 5361TIP3    H240279   8.290   1.608  16.151 -0.4860 -1.1397  0.8954
 5362TIP3   OH240280   7.934   2.952  17.241  0.0551  0.1061 -0.1238
 5362TIP3    H140281   7.873   2.994  17.302  0.4048 -0.8160  0.8974
 5362TIP3    H240282   7.881   2.885  17.197  0.1028 -0.0682  0.0841
 5363TIP3   OH240283   5.106   0.730  15.779 -0.0452  0.5328  0.0717
 5363TIP3    H140284   5.119   0.809  15.831  2.4843  0.9579 -1.0334
 5363TIP3    H240285   5.186   0.679  15.794 -0.9512 -1.1127 -0.4486
 5364TIP3   OH240286   3.717   6.009  17.470 -0.6409  0.0167  0.6810
 5364TIP3    H140287   3.786   5.988  17.533  0.1891  1.5399  0.3368
 5364TIP3    H240288   3.659   6.069  17.517 -1.2181 -0.5309  0.6709
 5365TIP3   OH240289   0.345   7.911  16.602 -0.0493  0.0576  0.2563
 5365TIP3    H140290   0.422   7.858  16.585 -0.2347 -0.1203 -0.0407
 5365TIP3    H240291   0.375   8.001  16.595 -0.0960 -0.0079 -0.9119
 5366TIP3   OH240292   0.106   7.794  16.437  0.4667  0.0508  0.7657
 5366TIP3    H140293   0.089   7.884  16.410  1.9972  0.0989 -0.1286
 5366TIP3    H240294   0.174   7.801  16.505  1.4311 -0.4636 -0.1082
 5367TIP3   OH240295   0.388   6.690  17.616 -0.3054 -0.4169 -0.1572
 5367TIP3    H140296   0.386   6.753  17.544 -1.8383 -1.0811 -0.7259
 5367TIP3    H240297   0.367   6.606  17.576  1.6014 -1.3286  0.6089
 5368TIP3   OH240298   0.734   3.834  17.154  0.3115 -0.1375 -0.1971
 5368TIP3    H140299   0.650   3.864  17.189 -0.3600 -1.1547 -0.8874
 5368TIP3    H240300   0.759   3.902  17.091 -1.4541 -1.1718 -2.1435
 5369TIP3   OH240301   2.651   4.472  17.401 -0.2353  1.1754  0.0735
 5369TIP3    H140302   2.714   4.419  17.449  0.8075  1.1076 -1.3176
 5369TIP3    H240303   2.580   4.488  17.464 -0.3619 -1.4020  0.6886
 5370TIP3   OH240304   7.473   4.640  17.602 -0.3755  0.0218  0.1758
 5370TIP3    H140305   7.459   4.624  17.696 -1.4198 -0.4873 -0.0492
 5370TIP3    H240306   7.422   4.571  17.559  0.7634 -0.2636 -0.7643
 5371TIP3   OH240307   7.614   4.574  15.758  0.5797  0.1969 -0.1149
 5371TIP3    H140308   7.609   4.592  15.665 -0.0165  1.3195  0.1223
 5371TIP3    H240309   7.627   4.659  15.799  1.0210 -0.3029  0.8221
 5372TIP3   OH240310   0.759   3.309  17.641  0.4561  0.4386  0.0920
 5372TIP3    H140311   0.776   3.331  17.550  0.4238 -1.1028 -0.3072
 5372TIP3    H240312   0.753   3.213  17.643  0.5571  0.4282  1.7230
 5373TIP3   OH240313   7.113   1.776  17.319 -0.2867 -0.0833  0.0513
 5373TIP3    H140314   7.143   1.746  17.233  0.9971  0.4467  0.2944
 5373TIP3    H240315   7.099   1.870  17.309  0.3279  0.0657  0.5391
 5374TIP3   OH240316   0.493   1.834  16.122 -0.0300 -0.4434  0.5579
 5374TIP3    H140317   0.444   1.769  16.172 -0.7948 -0.9508 -0.7778
 5374TIP3    H240318   0.487   1.803  16.031 -1.5215  2.1377 -0.3235
 5375TIP3   OH240319   3.272   4.258  15.901 -0.2986  0.0944 -0.5606
 5375TIP3    H140320   3.200   4.252  15.839 -0.9150  1.6121 -0.0321
 5375TIP3    H240321   3.308   4.346  15.887  0.9473 -0.3470 -0.2591
 5376TIP3   OH240322   2.859   2.405  17.848 -0.7280  0.5208  0.6865
 5376TIP3    H140323   2.855   2.312  17.825 -0.4858  0.7039 -0.1396
 5376TIP3    H240324   2.771   2.427  17.877 -1.5666  0.6708 -1.7428
 5377TIP3   OH240325   7.153   2.766  15.979  1.0072  0.2983 -0.2934
 5377TIP3    H140326   7.215   2.739  15.912  2.5683 -1.1808  1.6099
 5377TIP3    H240327   7.201   2.829  16.033  0.3016  0.3631  0.2760
 5378TIP3   OH240328   8.414   5.138  16.623  0.4129  0.5830 -0.3384
 5378TIP3    H140329   8.436   5.192  16.548 -0.4187  1.8159  0.2786
 5378TIP3    H240330   8.487   5.151  16.684 -0.0212  1.3999  0.0097
 5379TIP3   OH240331   6.374   7.713  17.085  0.0402  0.9920  0.4394
 5379TIP3    H140332   6.468   7.694  17.087 -0.1382 -0.1053 -0.4473
 5379TIP3    H240333   6.334   7.640  17.132 -0.5482 -0.1233 -1.6431
 5380TIP3   OH240334   6.480   8.099  17.788  0.0536  0.0159 -0.0927
 5380TIP3    H140335   6.460   8.022  17.842 -2.8958 -0.5281 -1.7431
 5380TIP3    H240336   6.551   8.143  17.835 -0.3529 -1.9570  2.6413
 5381TIP3   OH240337   3.707   6.295  15.760  0.0349 -0.3050  0.4247
 5381TIP3    H140338   3.720   6.290  15.665  0.9183  0.2141  0.5093
 5381TIP3    H240339   3.625   6.248  15.776 -0.1580 -0.3299 -0.6036
 5382TIP3   OH240340   4.755   3.538  16.369  0.3471 -0.4370 -0.2980
 5382TIP3    H140341   4.682   3.574  16.419  0.6543  0.6320 -0.5851
 5382TIP3    H240342   4.833   3.566  16.416  0.6213  0.0773 -1.0330
 5383TIP3   OH240343   5.968   7.486  17.496  0.3270 -0.1024  0.0937
 5383TIP3    H140344   5.948   7.419  17.431 -1.2085  1.0774 -0.7202
 5383TIP3    H240345   5.944   7.445  17.580 -0.1529 -0.7290 -0.3391
 5384TIP3   OH240346   4.527   8.076  17.442 -0.0218  0.2495 -0.0294
 5384TIP3    H140347   4.475   8.110  17.369 -0.9501  0.6262  0.7827
 5384TIP3    H240348   4.617   8.077  17.410 -0.1945  2.1009 -0.5479
 5385TIP3   OH240349   6.040   2.392  17.729  0.4862 -0.0400  0.0431
 5385TIP3    H140350   6.089   2.474  17.739  2.5032 -1.2393  0.4469
 5385TIP3    H240351   6.099   2.335  17.681 -1.1378 -1.0885 -0.7906
 5386TIP3   OH240352   6.775   3.432  16.639  0.5133 -0.4827  0.4518
 5386TIP3    H140353   6.688   3.414  16.674  0.9140 -1.0335  1.1721
 5386TIP3    H240354   6.772   3.398  16.549 -0.0023 -0.5063  0.4730
 5387TIP3   OH240355   3.015   7.140  16.593  0.5057 -0.2296 -0.1234
 5387TIP3    H140356   3.045   7.228  16.571 -0.1947  0.0345 -0.0526
 5387TIP3    H240357   3.093   7.095  16.626  0.9938  0.1813 -0.7033
 5388TIP3   OH240358   7.766   5.689  16.743 -0.0384  0.2436  0.1489
 5388TIP3    H140359   7.857   5.664  16.759  0.1005  0.7787  0.2060
 5388TIP3    H240360   7.740   5.736  16.822  0.3543  2.0944 -0.7788
 5389TIP3   OH240361   6.065   2.731  17.524 -0.4234 -0.3800  0.5168
 5389TIP3    H140362   6.107   2.778  17.452 -2.0228  0.2200 -0.0743
 5389TIP3    H240363   6.005   2.670  17.481  0.0874 -1.4635  1.3234
 5390TIP3   OH240364   7.505   2.547  16.947 -0.3342 -0.1666  0.1947
 5390TIP3    H140365   7.589   2.504  16.936 -0.3495  0.3140 -2.6960
 5390TIP3    H240366   7.526   2.640  16.955 -0.5583 -0.1469  0.6002
 5391TIP3   OH240367   2.305   3.782  11.964 -0.0506 -0.0778  0.0086
 5391TIP3    H140368   2.306   3.861  12.018  0.9900  0.5777 -0.9219
 5391TIP3    H240369   2.393   3.777  11.928 -0.4267 -1.0674 -0.8116
 5392TIP3   OH240370   7.117   5.287  12.391 -0.1813  0.0296  0.1794
 5392TIP3    H140371   7.048   5.347  12.364  1.0866  1.5945  0.3254
 5392TIP3    H240372   7.194   5.342  12.403  1.1359 -1.6766 -0.0521
 5393TIP3   OH240373   0.170   4.119  10.640 -0.2234  0.2260  0.2059
 5393TIP3    H140374   0.124   4.135  10.723  1.1266  1.4083  0.7630
 5393TIP3    H240375   0.231   4.193  10.632  0.7105 -0.6537 -1.1120
 5394TIP3   OH240376   5.627   5.199  11.019  0.0744 -0.0042  0.0831
 5394TIP3    H140377   5.671   5.116  11.002 -0.1015  0.1415 -1.1957
 5394TIP3    H240378   5.694   5.266  11.002  1.1982  0.1400  4.0801
 5395TIP3   OH240379   6.882   0.821  12.571 -0.3349 -0.3665 -0.1784
 5395TIP3    H140380   6.857   0.911  12.552  1.8846  0.1513 -0.9888
 5395TIP3    H240381   6.841   0.769  12.502 -0.2213  0.2627 -0.7268
 5396TIP3   OH240382   8.139   5.046  12.206 -0.5698 -0.2544 -0.1573
 5396TIP3    H140383   8.140   5.054  12.110 -1.1240  0.8688 -0.0889
 5396TIP3    H240384   8.050   5.071  12.231 -0.4605 -0.6368  0.6542
 5397TIP3   OH240385   2.535   3.853  10.926  0.3457  0.7098  0.7614
 5397TIP3    H140386   2.585   3.904  10.990 -0.5702  2.3277  0.2579
 5397TIP3    H240387   2.460   3.819  10.975  0.5116  0.5603  0.9121
 5398TIP3   OH240388   4.560   6.499  10.281 -0.4628 -0.3007  0.6637
 5398TIP3    H140389   4.541   6.417  10.236 -2.1743  1.0076 -1.1663
 5398TIP3    H240390   4.655   6.499  10.292 -0.4312 -2.6479  1.0691
 5399TIP3   OH240391   3.778   4.622  10.614  0.1639  0.2106 -0.2508
 5399TIP3    H140392   3.871   4.642  10.606  0.2542 -0.1607 -0.1437
 5399TIP3    H240393   3.773   4.556  10.683  0.0209 -1.1591 -1.5281
 5400TIP3   OH240394   5.996   3.676  11.436 -0.4946 -0.3239 -1.1868
 5400TIP3    H140395   5.928   3.663  11.371 -0.1755 -1.8668 -1.2512
 5400TIP3    H240396   6.031   3.589  11.452  1.6614  0.4574 -1.3501
 5401TIP3   OH240397   2.016   4.557  12.450  0.3263  0.1032 -0.0233
 5401TIP3    H140398   1.922   4.576  12.455  0.4230  0.2187  1.8197
 5401TIP3    H240399   2.024   4.498  12.375 -1.1211  0.6050 -0.6085
 5402TIP3   OH240400   8.441   7.077  11.172 -0.3326 -0.4300  0.2632
 5402TIP3    H140401   8.473   7.023  11.100 -1.9946 -0.7330 -0.2907
 5402TIP3    H240402   8.487   7.160  11.163  1.4890 -1.3781  0.5045
 5403TIP3   OH240403   4.144   7.234  11.242 -0.7554 -0.4223  0.0990
 5403TIP3    H140404   4.209   7.298  11.213 -0.7063 -1.1306 -1.4465
 5403TIP3    H240405   4.122   7.261  11.331  1.7855 -0.2935  0.7647
 5404TIP3   OH240406   3.462   7.738  11.643 -0.2431  0.0929  0.5205
 5404TIP3    H140407   3.527   7.667  11.643 -0.8800 -0.5353 -0.8431
 5404TIP3    H240408   3.511   7.817  11.664  0.5044 -0.7268  1.9787
 5405TIP3   OH240409   6.954   0.610  12.738  0.0933  0.3454 -0.1535
 5405TIP3    H140410   6.873   0.625  12.788  0.8402  1.0538  0.8994
 5405TIP3    H240411   6.952   0.677  12.670  0.6355  1.5993  1.0026
 5406TIP3   OH240412   5.040   6.074  10.647 -0.0846  0.0525  0.1716
 5406TIP3    H140413   4.987   6.067  10.726  0.4097 -0.8756  0.4402
 5406TIP3    H240414   5.106   6.140  10.668  1.1331 -1.4172  1.2176
 5407TIP3   OH240415   1.226   3.078  11.658 -0.0917 -0.2918  0.6525
 5407TIP3    H140416   1.248   3.005  11.600  2.0068  0.7853 -0.0134
 5407TIP3    H240417   1.222   3.154  11.599 -2.8133  0.1117  1.2283
 5408TIP3   OH240418   1.664   0.365  10.463  0.2223 -0.1154 -0.1183
 5408TIP3    H140419   1.600   0.307  10.421  0.1586 -0.8390  0.9520
 5408TIP3    H240420   1.626   0.452  10.455  0.1443 -0.2509 -1.4288
 5409TIP3   OH240421   0.457   5.602  10.919  0.0853  0.5695  0.2919
 5409TIP3    H140422   0.374   5.618  10.963 -0.6729  0.2231 -0.9784
 5409TIP3    H240423   0.511   5.558  10.985 -1.0533 -0.0151  0.8516
 5410TIP3   OH240424   2.404   6.771  12.275  0.3600 -0.1549  0.4164
 5410TIP3    H140425   2.344   6.700  12.252  0.0161  0.4684 -0.6602
 5410TIP3    H240426   2.366   6.810  12.353  0.4331 -1.0035  0.8892
 5411TIP3   OH240427   3.192   2.645  11.296 -0.2902 -0.0003  0.5818
 5411TIP3    H140428   3.166   2.580  11.361  0.6459  0.4438  1.4209
 5411TIP3    H240429   3.110   2.673  11.256 -0.8514 -0.4977  1.3568
 5412TIP3   OH240430   3.858   1.072  11.214  0.0125  0.1937  0.5175
 5412TIP3    H140431   3.851   0.991  11.265 -1.1330 -1.1591 -1.6568
 5412TIP3    H240432   3.884   1.043  11.127 -3.3156  1.7624 -1.1710
 5413TIP3   OH240433   7.261   4.504  11.978 -0.2533  0.1847 -0.2927
 5413TIP3    H140434   7.273   4.416  11.942  0.0690 -0.2073  0.7479
 5413TIP3    H240435   7.166   4.516  11.984 -0.3445  0.5860 -2.0256
 5414TIP3   OH240436   6.603   7.224  11.731  0.0785 -0.3275 -0.1044
 5414TIP3    H140437   6.565   7.311  11.743  1.3569  0.5862 -2.0252
 5414TIP3    H240438   6.530   7.169  11.703 -0.1679  1.1278 -2.7304
 5415TIP3   OH240439   2.624   7.499  11.474  0.0727  0.9248  0.0108
 5415TIP3    H140440   2.669   7.538  11.549  2.0009 -0.1259 -0.5264
 5415TIP3    H240441   2.664   7.539  11.397  0.9638 -0.8273 -0.5046
 5416TIP3   OH240442   4.562   3.048  11.567  0.1178  0.0808 -0.4697
 5416TIP3    H140443   4.548   3.122  11.508  0.5831  0.7801  0.2932
 5416TIP3    H240444   4.657   3.043  11.578  0.2040 -1.4616 -1.5525
 5417TIP3   OH240445   0.783   0.236  12.481  0.0100  0.1618  0.2067
 5417TIP3    H140446   0.841   0.165  12.509  0.5547  0.4351 -0.2183
 5417TIP3    H240447   0.698   0.212  12.518  0.1535 -0.7719 -0.0309
 5418TIP3   OH240448   7.978   5.780  11.550  0.2042  0.8809  0.5457
 5418TIP3    H140449   7.971   5.846  11.619 -1.1924  1.1532  0.1785
 5418TIP3    H240450   7.990   5.830  11.470 -0.0512  0.6616  0.3669
 5419TIP3   OH240451   0.299   5.098  11.205  0.4375 -0.1315  0.0839
 5419TIP3    H140452   0.368   5.032  11.208 -0.2482 -0.9040 -0.6838
 5419TIP3    H240453   0.230   5.064  11.262  0.1993  0.0632 -0.0840
 5420TIP3   OH240454   3.328   5.631  11.916 -0.0286  0.4607  0.1123
 5420TIP3    H140455   3.322   5.563  11.983 -0.1398  0.2143 -0.1449
 5420TIP3    H240456   3.416   5.621  11.880  0.1835  0.8711  0.5124
 5421TIP3   OH240457   0.487   1.929  10.283 -0.0855  0.0386 -0.2626
 5421TIP3    H140458   0.573   1.930  10.325 -0.0453 -0.9769 -0.2996
 5421TIP3    H240459   0.490   1.855  10.223 -0.4453  0.9426 -1.4385
 5422TIP3   OH240460   7.759   4.826  11.507  0.0396 -0.4297  0.1895
 5422TIP3    H140461   7.684   4.814  11.565 -1.2142 -2.1475 -1.6720
 5422TIP3    H240462   7.787   4.737  11.485  1.1218  0.1758 -1.0272
 5423TIP3   OH240463   7.544   5.803  11.781  0.0475 -0.9894 -0.3879
 5423TIP3    H140464   7.553   5.714  11.817  0.4551 -0.5313  0.7160
 5423TIP3    H240465   7.548   5.860  11.858  0.1150  0.0090 -1.1085
 5424TIP3   OH240466   5.031   0.598  11.912 -0.4021  0.0292 -0.1241
 5424TIP3    H140467   4.984   0.542  11.850 -1.7533 -1.0568  1.7713
 5424TIP3    H240468   4.963   0.641  11.963  0.6431  0.2373  1.1631
 5425TIP3   OH240469   7.283   0.853  12.258 -0.4883  0.4408  0.1856
 5425TIP3    H140470   7.364   0.865  12.209 -1.4155  1.0396 -1.2395
 5425TIP3    H240471   7.244   0.940  12.263 -0.8026  0.2574  1.3449
 5426TIP3   OH240472   5.236   1.447  11.850  0.8653  0.0806 -0.5445
 5426TIP3    H140473   5.301   1.387  11.814 -0.9933 -0.0936 -4.0387
 5426TIP3    H240474   5.162   1.441  11.789 -2.0586  1.0072  2.6350
 5427TIP3   OH240475   2.582   1.438  11.909 -0.0031 -0.3217  0.3561
 5427TIP3    H140476   2.541   1.403  11.830  0.0930  0.7526 -0.1908
 5427TIP3    H240477   2.550   1.529  11.915  2.8164  0.8413 -0.5327
 5428TIP3   OH240478   6.680   5.579  12.768  0.2908 -0.0196 -0.1076
 5428TIP3    H140479   6.746   5.513  12.789 -0.0897 -0.2087  0.5106
 5428TIP3    H240480   6.720   5.631  12.698 -0.2155 -2.1738 -2.1439
 5429TIP3   OH240481   3.149   0.400  11.958  0.1646 -0.2220 -0.2308
 5429TIP3    H140482   3.062   0.410  11.997  0.2267  0.1017 -0.1702
 5429TIP3    H240483   3.133   0.354  11.875  0.1074 -1.5172  0.4761
 5430TIP3   OH240484   1.984   0.452  12.544 -0.0037  0.1280  0.0170
 5430TIP3    H140485   1.929   0.512  12.593 -0.4938 -0.4168  0.1459
 5430TIP3    H240486   2.034   0.508  12.484 -2.4987  0.4727 -1.9120
 5431TIP3   OH240487   7.527   4.530  12.011  0.5662  0.3141  0.0248
 5431TIP3    H140488   7.553   4.532  12.103  2.0167 -2.4584 -0.2030
 5431TIP3    H240489   7.432   4.523  12.013  0.4981  1.2479  1.2610
 5432TIP3   OH240490   4.593   7.319  12.595 -0.5405  0.3196 -0.1378
 5432TIP3    H140491   4.500   7.334  12.580 -0.0511  1.1361 -2.7929
 5432TIP3    H240492   4.634   7.405  12.581  0.6421 -0.0572  0.8165
 5433TIP3   OH240493   6.054   7.723  12.424 -0.6798 -0.2654  0.2156
 5433TIP3    H140494   6.147   7.710  12.407 -0.1579  2.6794  0.3204
 5433TIP3    H240495   6.040   7.687  12.511  0.2862 -0.9914  0.0813
 5434TIP3   OH240496   7.548   6.362  12.556  0.0176  0.3380 -0.2711
 5434TIP3    H140497   7.621   6.424  12.553  1.1770 -0.8274  1.6178
 5434TIP3    H240498   7.587   6.279  12.530 -0.8360 -0.1486 -0.0193
 5435TIP3   OH240499   3.085   3.286  10.708 -0.0199 -0.0471  0.6116
 5435TIP3    H140500   3.062   3.325  10.624  3.3691 -0.2149 -0.5576
 5435TIP3    H240501   3.086   3.359  10.769 -0.6193  0.4208  0.0726
 5436TIP3   OH240502   6.248   3.825  11.806 -0.1065 -0.1729  0.4232
 5436TIP3    H140503   6.301   3.872  11.742  1.3546  0.7394  2.2128
 5436TIP3    H240504   6.159   3.856  11.791  0.2410  0.1965 -0.9945
 5437TIP3   OH240505   1.320   0.870  10.616  0.7306  0.1342  0.0933
 5437TIP3    H140506   1.228   0.896  10.626  0.5871 -0.1405 -0.5137
 5437TIP3    H240507   1.318   0.774  10.614  1.2366  0.0231  2.0639
 5438TIP3   OH240508   2.773   5.383  12.897  0.5285 -0.2491  0.2748
 5438TIP3    H140509   2.684   5.348  12.899  1.0881 -1.8032 -0.2413
 5438TIP3    H240510   2.814   5.350  12.977  0.4692  0.9815  0.8246
 5439TIP3   OH240511   0.037   4.271  12.229  0.0821 -0.5553 -0.2406
 5439TIP3    H140512   0.006   4.182  12.246  0.4917 -0.5529  0.6055
 5439TIP3    H240513  -0.043   4.322  12.217 -0.3387 -0.5063  2.1332
 5440TIP3   OH240514   2.574   2.453  11.282 -0.3117 -0.2524  0.5052
 5440TIP3    H140515   2.577   2.523  11.216  0.6385  1.0936  1.9156
 5440TIP3    H240516   2.551   2.374  11.232 -0.2413  0.8266 -1.3228
 5441TIP3   OH240517   5.414   4.087  11.817  0.1382 -0.0707  0.0294
 5441TIP3    H140518   5.387   4.103  11.727  1.1623 -0.4584 -0.3679
 5441TIP3    H240519   5.509   4.100  11.816 -0.1848  3.2621  1.8211
 5442TIP3   OH240520   5.355   0.366  11.018 -0.0918  0.7988  0.0481
 5442TIP3    H140521   5.360   0.443  10.962  1.3103  0.0448 -0.9198
 5442TIP3    H240522   5.282   0.384  11.077 -1.6766  1.5986 -2.0489
 5443TIP3   OH240523   7.558   7.120  10.774  0.2991  0.1583 -0.2977
 5443TIP3    H140524   7.637   7.098  10.823 -0.1828 -1.2279 -0.1133
 5443TIP3    H240525   7.514   7.037  10.758 -2.5511  1.0328  1.9658
 5444TIP3   OH240526   7.998   0.631  12.129 -0.7225 -0.3281  0.0875
 5444TIP3    H140527   7.973   0.577  12.204 -1.2789  0.4310  0.4588
 5444TIP3    H240528   7.937   0.704  12.131 -0.9893 -0.4838 -1.3323
 5445TIP3   OH240529   4.439   7.994  10.408 -0.2150  0.1261  0.7567
 5445TIP3    H140530   4.463   7.908  10.443  0.5775 -0.2797 -0.7026
 5445TIP3    H240531   4.390   7.975  10.329 -1.4098  1.0318  1.2465
 5446TIP3   OH240532   2.152   1.733  11.007  0.0243 -0.0543 -0.0182
 5446TIP3    H140533   2.146   1.771  10.920  0.9787 -1.9212 -0.9387
 5446TIP3    H240534   2.242   1.702  11.015 -0.2420 -0.5767  1.3636
 5447TIP3   OH240535   5.459   2.518  11.067  0.3007 -0.4599 -0.0464
 5447TIP3    H140536   5.413   2.474  10.995  0.2129 -1.8372  0.8042
 5447TIP3    H240537   5.455   2.611  11.045 -2.2167 -0.5742 -0.4044
 5448TIP3   OH240538   5.726   2.118  12.480  0.3086 -0.4328  0.2308
 5448TIP3    H140539   5.749   2.184  12.546 -1.5342  0.7580 -0.2277
 5448TIP3    H240540   5.745   2.160  12.396 -2.1455  0.1452 -0.1157
 5449TIP3   OH240541   5.737   6.721  11.244 -0.5480  0.0368  0.3683
 5449TIP3    H140542   5.658   6.679  11.213 -1.0577  0.7011  0.7354
 5449TIP3    H240543   5.805   6.654  11.236 -1.4422 -1.0655  1.5234
 5450TIP3   OH240544   5.403   7.156  10.637 -0.3242  0.6334 -0.0256
 5450TIP3    H140545   5.351   7.136  10.715 -1.3570  0.6660 -0.6829
 5450TIP3    H240546   5.438   7.072  10.609 -1.6980  0.2713 -0.7242
 5451TIP3   OH240547   0.290   2.649  12.724  0.1590  0.5473  0.3682
 5451TIP3    H140548   0.231   2.721  12.705 -0.3925  0.3363  1.2468
 5451TIP3    H240549   0.274   2.627  12.815  0.5618 -0.4662  0.2146
 5452TIP3   OH240550   6.444   4.985  11.908 -0.0131  0.3640  0.2328
 5452TIP3    H140551   6.519   5.035  11.876  0.6845  0.4430  1.8787
 5452TIP3    H240552   6.443   5.000  12.003 -3.3697  2.0700  0.0748
 5453TIP3   OH240553   0.971   2.589  12.934  0.3292  0.2016  0.1983
 5453TIP3    H140554   0.896   2.649  12.926  0.4098  0.1744 -0.9537
 5453TIP3    H240555   0.931   2.503  12.945  0.0092 -0.3117 -3.5625
 5454TIP3   OH240556   7.967   5.679  10.474  0.3410  0.7645 -0.1695
 5454TIP3    H140557   7.887   5.637  10.504  0.8886 -0.3758 -0.2401
 5454TIP3    H240558   8.036   5.617  10.495  1.2426  1.8178  0.0853
 5455TIP3   OH240559   7.902   1.954  11.323  0.6106 -0.2862  0.2192
 5455TIP3    H140560   7.870   2.024  11.267 -0.4395 -0.1025  1.0217
 5455TIP3    H240561   7.827   1.932  11.379  1.3126 -1.1770  0.8331
 5456TIP3   OH240562   4.160   3.324  10.905  0.1950 -0.0165 -0.0647
 5456TIP3    H140563   4.123   3.329  10.817 -1.8698 -2.7942  0.4961
 5456TIP3    H240564   4.114   3.251  10.947  0.7817  1.4079  3.4961
 5457TIP3   OH240565   8.056   2.622  10.287 -0.4190 -0.0703  0.5107
 5457TIP3    H140566   8.048   2.670  10.369 -0.4890 -1.3092  1.2506
 5457TIP3    H240567   8.142   2.646  10.253 -0.4188  0.5092  0.9056
 5458TIP3   OH240568   0.530   5.077  10.719 -0.3156  0.0801  0.6575
 5458TIP3    H140569   0.535   5.155  10.665 -1.7691  0.0098  0.3930
 5458TIP3    H240570   0.530   5.110  10.809  0.4756  0.2856  0.5910
 5459TIP3   OH240571   3.022   4.875  11.491  0.4706 -0.2559 -0.6499
 5459TIP3    H140572   2.937   4.915  11.472  0.8704 -0.2449 -2.6578
 5459TIP3    H240573   3.057   4.926  11.564 -1.2887 -0.3542  0.3118
 5460TIP3   OH240574   5.237   3.301  13.055 -0.4808  0.6738  0.2713
 5460TIP3    H140575   5.198   3.225  13.098 -1.0815  0.7693 -0.0912
 5460TIP3    H240576   5.277   3.267  12.976  0.5022  0.5209  0.8080
 5461TIP3   OH240577   7.335   6.700  11.834 -0.2257  0.3871 -0.3893
 5461TIP3    H140578   7.357   6.792  11.821  2.4774  0.0656  1.2131
 5461TIP3    H240579   7.391   6.653  11.772  0.4472 -0.2779  0.7026
 5462TIP3   OH240580   7.301   6.071  11.436  0.5386  0.0431  0.1572
 5462TIP3    H140581   7.236   6.106  11.496 -0.3816  0.0767 -0.8079
 5462TIP3    H240582   7.322   5.985  11.472  1.8163  0.9945  1.8038
 5463TIP3   OH240583   1.054   6.447  10.936 -0.3482  0.3773  0.5508
 5463TIP3    H140584   0.962   6.423  10.933  0.0600 -1.2159 -0.7434
 5463TIP3    H240585   1.094   6.382  10.994 -0.1323  1.5700  1.8037
 5464TIP3   OH240586   5.347   8.394  11.998  0.3017 -0.2312  0.4037
 5464TIP3    H140587   5.294   8.394  12.077  0.7041 -0.2414  0.6790
 5464TIP3    H240588   5.284   8.388  11.926 -0.1300  0.9936  0.6674
 5465TIP3   OH240589   3.674   1.326  11.981  0.3480 -0.1612 -0.2325
 5465TIP3    H140590   3.673   1.343  11.887  1.7351 -0.8269 -0.3958
 5465TIP3    H240591   3.757   1.362  12.011 -0.4064  0.6937  0.8806
 5466TIP3   OH240592   5.112   2.014  11.348  0.4347 -0.1368  0.4891
 5466TIP3    H140593   5.047   2.082  11.330 -0.7867 -1.1645  0.8853
 5466TIP3    H240594   5.139   1.983  11.262 -0.1580 -0.2135  0.3276
 5467TIP3   OH240595   1.878   8.262  11.081  0.0067 -0.0456  0.5895
 5467TIP3    H140596   1.800   8.264  11.136  1.6377 -0.8510  3.0936
 5467TIP3    H240597   1.907   8.353  11.077 -1.0452  0.2745 -0.4353
 5468TIP3   OH240598   7.703   5.487  10.446  0.6625 -0.1217  0.2647
 5468TIP3    H140599   7.670   5.513  10.532 -1.2355 -0.5255 -0.3002
 5468TIP3    H240600   7.766   5.417  10.465 -2.0496 -2.4649  1.2006
 5469TIP3   OH240601   7.134   4.772  11.440  0.2973  0.0389  0.0413
 5469TIP3    H140602   7.179   4.729  11.513  0.8333 -0.7640 -0.7413
 5469TIP3    H240603   7.197   4.770  11.369 -0.6175 -0.1936 -0.7829
 5470TIP3   OH240604   3.909   2.398  12.104  0.0732 -0.4981 -0.4820
 5470TIP3    H140605   3.989   2.430  12.063 -0.6964  0.5845 -1.1724
 5470TIP3    H240606   3.934   2.312  12.140  1.2250 -0.7128 -1.7016
 5471TIP3   OH240607   0.768   0.140  11.677 -0.1428 -0.0371 -0.2275
 5471TIP3    H140608   0.821   0.064  11.656  1.6163  0.2885  2.5605
 5471TIP3    H240609   0.701   0.108  11.737  0.1992  0.4322  0.4322
 5472TIP3   OH240610   0.267   1.720  11.472  0.0288  0.1795  0.2145
 5472TIP3    H140611   0.206   1.791  11.494 -0.0072 -0.1349  1.1476
 5472TIP3    H240612   0.305   1.694  11.555  1.0448 -0.0079 -0.2945
 5473TIP3   OH240613   3.745   7.143  11.114  0.2967  0.3573  0.1898
 5473TIP3    H140614   3.723   7.117  11.204 -0.0047  0.8429  0.2618
 5473TIP3    H240615   3.660   7.153  11.071  0.4110  1.1145  0.1353
 5474TIP3   OH240616   6.924   7.824  11.741 -0.1402 -0.2038 -0.1223
 5474TIP3    H140617   6.938   7.898  11.801  0.6184 -0.0597 -0.4598
 5474TIP3    H240618   6.958   7.855  11.657 -1.6194 -0.2384 -0.7549
 5475TIP3   OH240619   2.695   0.744  12.448  0.1191 -0.1348  0.5219
 5475TIP3    H140620   2.721   0.836  12.447 -0.1150 -0.0586  0.9712
 5475TIP3    H240621   2.686   0.723  12.541  1.0684 -0.8786  0.4526
 5476TIP3   OH240622   2.147   0.645  12.390  0.0240 -0.2228 -0.4760
 5476TIP3    H140623   2.147   0.622  12.297  1.3148  1.5537 -0.9637
 5476TIP3    H240624   2.230   0.690  12.404 -0.2481 -0.2409  1.5056
 5477TIP3   OH240625   8.261   4.874  11.259  0.9806 -0.7491  0.5915
 5477TIP3    H140626   8.172   4.866  11.224  0.6104  1.9689  0.7384
 5477TIP3    H240627   8.250   4.921  11.341  2.5988  0.2155  0.2857
 5478TIP3   OH240628   2.881   4.864  12.275 -0.5941 -0.1575 -0.1424
 5478TIP3    H140629   2.814   4.919  12.234  0.0473  0.3084 -0.5740
 5478TIP3    H240630   2.865   4.874  12.369 -1.2628 -0.2149 -0.2438
 5479TIP3   OH240631   1.343   0.310  11.008  0.7396 -0.6646 -0.3458
 5479TIP3    H140632   1.335   0.382  10.946 -0.5247  0.6157  1.2111
 5479TIP3    H240633   1.426   0.326  11.053  0.6188 -0.3566 -0.2319
 5480TIP3   OH240634   7.061   2.179  12.274  0.0780  0.2129  0.0202
 5480TIP3    H140635   7.021   2.262  12.247 -1.1953 -0.5049 -0.4055
 5480TIP3    H240636   7.030   2.165  12.363  2.5757  1.5361  1.1984
 5481TIP3   OH240637   1.426   0.257  10.688  0.1567 -0.2188 -0.2725
 5481TIP3    H140638   1.486   0.212  10.747 -0.5041 -0.9702 -0.1447
 5481TIP3    H240639   1.420   0.346  10.723 -0.8341 -0.8517  1.3284
 5482TIP3   OH240640   4.472   7.638  11.004  0.0487  0.0637 -0.2663
 5482TIP3    H140641   4.447   7.730  10.992 -2.6210 -0.2320  2.0209
 5482TIP3    H240642   4.508   7.634  11.092  0.3832 -1.0479 -0.4422
 5483TIP3   OH240643   0.016   5.604  10.991  0.1065  0.2155 -1.1027
 5483TIP3    H140644  -0.018   5.525  11.035  0.6129 -0.7196 -2.3221
 5483TIP3    H240645  -0.052   5.670  11.004 -0.2443 -0.3507  0.1146
 5484TIP3   OH240646   1.910   1.235  10.859  0.0621 -0.1043  0.1049
 5484TIP3    H140647   1.872   1.311  10.815  1.3693  1.1118  0.9918
 5484TIP3    H240648   1.835   1.187  10.894 -0.8058  0.5789 -0.7842
 5485TIP3   OH240649   5.219   3.663  11.403 -0.0577 -0.4636  0.2100
 5485TIP3    H140650   5.301   3.618  11.382 -0.1772 -1.2675  1.3687
 5485TIP3    H240651   5.229   3.691  11.494 -0.4610  0.8552 -0.1264
 5486TIP3   OH240652   7.583   4.209  12.023  0.6439 -0.5879  0.5335
 5486TIP3    H140653   7.523   4.172  11.957  0.8856  0.2895 -0.2034
 5486TIP3    H240654   7.643   4.137  12.043 -0.7324 -1.5255  1.3997
 5487TIP3   OH240655   2.707   7.927  11.141 -0.4663 -0.0637  0.6941
 5487TIP3    H140656   2.618   7.963  11.140 -0.6279 -0.4659  0.0355
 5487TIP3    H240657   2.755   7.983  11.202 -1.4226 -0.4504  1.8273
 5488TIP3   OH240658   7.283   2.614  12.844 -0.4358  0.2724  0.0189
 5488TIP3    H140659   7.263   2.700  12.808 -0.0269  0.6453  0.6688
 5488TIP3    H240660   7.359   2.628  12.901 -1.1994 -0.2428  1.2194
 5489TIP3   OH240661   6.606   6.351  10.730  0.0229 -0.1493 -0.0414
 5489TIP3    H140662   6.663   6.283  10.767 -0.7119 -1.7094 -1.6248
 5489TIP3    H240663   6.590   6.322  10.641 -1.5737  1.3429 -0.2761
 5490TIP3   OH240664   7.268   0.643  12.671  0.3223  0.0954  0.0585
 5490TIP3    H140665   7.324   0.567  12.685  0.2791  0.1228  0.3755
 5490TIP3    H240666   7.182   0.616  12.705  0.6464  0.7774  1.4719
 5491TIP3   OH240667   7.585   0.318  10.561  0.0826 -0.5327 -0.0533
 5491TIP3    H140668   7.519   0.387  10.565  0.6378 -0.0078  0.1188
 5491TIP3    H240669   7.601   0.295  10.653  0.6603 -0.1569 -0.0578
 5492TIP3   OH240670   8.013   1.716  10.720  0.8830 -0.2958 -0.7139
 5492TIP3    H140671   7.965   1.787  10.676  0.6857  0.3415  0.4873
 5492TIP3    H240672   7.946   1.650  10.737  0.4436  0.4677  0.6964
 5493TIP3   OH240673   1.286   6.310  11.081 -0.3017 -0.0159 -0.0422
 5493TIP3    H140674   1.346   6.325  11.154  0.3426 -0.1068 -0.5537
 5493TIP3    H240675   1.207   6.275  11.123 -0.3684  1.0227  0.7382
 5494TIP3   OH240676   1.418   7.327  12.264 -0.4073 -0.3425 -0.9042
 5494TIP3    H140677   1.414   7.287  12.176  2.3390 -2.5060 -0.1826
 5494TIP3    H240678   1.510   7.345  12.278 -0.7829 -0.0688  1.5877
 5495TIP3   OH240679   8.214   6.599  11.657 -0.7241 -0.3209 -0.4470
 5495TIP3    H140680   8.301   6.559  11.667 -1.3366 -1.2580  1.7387
 5495TIP3    H240681   8.183   6.567  11.572  0.6623 -0.7372 -0.8399
 5496TIP3   OH240682   5.833   0.431  10.884  0.0360 -0.0925  0.8611
 5496TIP3    H140683   5.834   0.416  10.978 -0.2618 -0.3155  0.8280
 5496TIP3    H240684   5.824   0.344  10.846  3.3088 -0.4231  0.5341
 5497TIP3   OH240685   2.860   5.016  11.786  0.2425 -0.3868  0.1792
 5497TIP3    H140686   2.859   5.042  11.878 -0.1655 -3.4074  1.1367
 5497TIP3    H240687   2.951   5.030  11.759  0.2808  0.9044  0.8945
 5498TIP3   OH240688   7.356   5.447  12.409 -0.2971 -0.1696 -0.3647
 5498TIP3    H140689   7.415   5.396  12.464 -0.4039 -0.2862 -0.3566
 5498TIP3    H240690   7.413   5.508  12.362 -0.2115 -0.0289 -0.0808
 5499TIP3   OH240691   1.969   2.025  12.711  0.2695  0.2798  0.1140
 5499TIP3    H140692   1.954   2.095  12.774 -1.3159 -1.2570  1.5638
 5499TIP3    H240693   1.994   1.950  12.765 -0.0658 -0.7923 -1.1830
 5500TIP3   OH240694   7.494   2.915  10.938  0.2493 -0.1823 -0.9383
 5500TIP3    H140695   7.434   2.989  10.936  1.0604  0.5769  0.6628
 5500TIP3    H240696   7.572   2.945  10.892 -0.1851 -0.8110 -2.1265
 5501TIP3   OH240697   3.078   0.474  12.686  0.5484 -0.1192 -0.5616
 5501TIP3    H140698   3.043   0.388  12.706  0.1683  0.3854  1.1067
 5501TIP3    H240699   3.077   0.521  12.769 -1.6236  2.3550 -1.8122
 5502TIP3   OH240700   4.810   8.336  11.326 -0.4234 -0.2498  0.1382
 5502TIP3    H140701   4.750   8.358  11.254 -1.4759  0.4826  1.2062
 5502TIP3    H240702   4.815   8.240  11.323  0.3992 -0.1985 -1.5530
 5503TIP3   OH240703   7.438   7.918  10.962  0.4481 -0.1388 -0.1428
 5503TIP3    H140704   7.395   7.939  11.046  0.4042  0.5595 -0.3377
 5503TIP3    H240705   7.374   7.944  10.896  1.2275  1.0684 -0.4459
 5504TIP3   OH240706   4.089   7.642  12.155  0.6409 -0.1577 -0.1784
 5504TIP3    H140707   4.070   7.710  12.220 -1.3480 -2.5496  1.9817
 5504TIP3    H240708   4.003   7.616  12.122  1.2380 -2.1415 -0.3151
 5505TIP3   OH240709   6.591   6.094  11.760 -0.0707  0.0559 -0.1750
 5505TIP3    H140710   6.559   6.098  11.850  1.1203  0.0545  0.2646
 5505TIP3    H240711   6.555   6.172  11.719 -1.6196 -0.5564 -0.0591
 5506TIP3   OH240712   1.917   0.999  12.142  0.3728  0.2932 -0.1400
 5506TIP3    H140713   1.875   1.084  12.150  0.1503  0.0582  1.4168
 5506TIP3    H240714   1.890   0.967  12.056 -1.3555  0.8253  0.1708
 5507TIP3   OH240715   1.223   2.545  10.931 -0.4708 -0.0545 -0.0787
 5507TIP3    H140716   1.297   2.512  10.983 -0.3903  4.0617  2.9993
 5507TIP3    H240717   1.147   2.535  10.988 -1.9928 -1.9986 -2.2506
 5508TIP3   OH240718   6.580   0.894  11.132  0.3211  0.2064 -0.2601
 5508TIP3    H140719   6.569   0.974  11.080 -2.0879  0.2375  0.2066
 5508TIP3    H240720   6.596   0.925  11.221 -0.6926  0.2035 -0.0645
 5509TIP3   OH240721   4.909   4.111  11.635 -0.6356  0.5234 -0.3299
 5509TIP3    H140722   4.979   4.109  11.569  0.4985  1.5906  0.7718
 5509TIP3    H240723   4.887   4.204  11.644 -1.1086  0.3509  0.4347
 5510TIP3   OH240724   2.255   2.527  10.171  0.1939  0.2376 -0.4704
 5510TIP3    H140725   2.160   2.516  10.175  0.1848  0.6474  0.7202
 5510TIP3    H240726   2.287   2.444  10.134 -0.6313  0.2103 -1.1607
 5511TIP3   OH240727   7.083   2.473  12.530  0.1981  0.4193 -0.1714
 5511TIP3    H140728   7.004   2.425  12.554  0.8185 -0.6898 -0.3231
 5511TIP3    H240729   7.076   2.555  12.580 -0.1649 -0.4332  1.2209
 5512TIP3   OH240730   7.662   2.342  12.288  0.1809  0.4944  0.4408
 5512TIP3    H140731   7.687   2.250  12.299 -0.3206  0.4100  0.8929
 5512TIP3    H240732   7.570   2.339  12.263  0.4436  0.8341 -0.6214
 5513TIP3   OH240733   1.056   3.524  12.266 -0.3590 -0.0128  0.1238
 5513TIP3    H140734   1.090   3.609  12.292 -0.6832 -0.4081  1.9887
 5513TIP3    H240735   1.078   3.466  12.339 -0.7070 -1.3938 -0.8224
 5514TIP3   OH240736   5.426   1.731  11.246 -0.4875  0.1797  0.0656
 5514TIP3    H140737   5.423   1.639  11.222 -0.1239  0.4867 -1.2412
 5514TIP3    H240738   5.424   1.731  11.342 -2.8339 -1.0965  0.0980
 5515TIP3   OH240739   4.768   8.256  10.935  0.3144  0.5958 -0.4339
 5515TIP3    H140740   4.841   8.195  10.944  1.4737  1.9522 -0.3569
 5515TIP3    H240741   4.740   8.273  11.025 -1.6726 -1.6754 -0.5210
 5516TIP3   OH240742   1.760   3.050  11.904 -0.7733  0.6631  0.1878
 5516TIP3    H140743   1.672   3.055  11.868  0.1730 -0.9082 -2.6637
 5516TIP3    H240744   1.800   3.134  11.882 -0.6847  0.2798 -1.2014
 5517TIP3   OH240745   1.772   8.140  17.025 -0.0143 -0.5736  0.1594
 5517TIP3    H140746   1.823   8.063  17.001 -0.6880 -1.3342  1.1168
 5517TIP3    H240747   1.690   8.105  17.059 -1.6018  0.6149 -2.1520
 5518TIP3   OH240748   8.394   5.580  11.283 -0.4291  0.9317  0.3047
 5518TIP3    H140749   8.303   5.604  11.298 -0.5508  0.5080  0.2679
 5518TIP3    H240750   8.444   5.634  11.345 -0.6947  1.2331  0.2550
 5519TIP3   OH240751   5.418   2.220  10.872 -0.0627 -0.3340  0.1443
 5519TIP3    H140752   5.482   2.256  10.810 -0.2855  0.1044  0.1661
 5519TIP3    H240753   5.382   2.144  10.828  1.7394 -1.6614  0.8271
 5520TIP3   OH240754   0.943   3.067  11.503 -0.0755  0.0487 -0.0822
 5520TIP3    H140755   0.969   3.082  11.412  1.0482  0.0018  0.2199
 5520TIP3    H240756   0.911   2.977  11.505  2.2592 -0.8383  0.0548
 5521TIP3   OH240757   1.572   0.982  10.742 -0.3925  0.0991 -0.3838
 5521TIP3    H140758   1.492   0.937  10.714 -0.0643 -1.1368  0.5705
 5521TIP3    H240759   1.617   1.003  10.661 -1.0387 -0.4195 -0.8883
 5522TIP3   OH240760   1.009   1.365  12.200 -0.1119  0.2493  0.1752
 5522TIP3    H140761   1.102   1.368  12.225  0.6284 -0.3486 -2.2233
 5522TIP3    H240762   0.977   1.454  12.213  0.6594  0.3690  1.4264
 5523TIP3   OH240763   5.557   6.298  12.202 -0.0853 -0.4212  0.5515
 5523TIP3    H140764   5.475   6.342  12.223  0.9059  0.9057  1.8354
 5523TIP3    H240765   5.548   6.210  12.238 -1.1326 -0.4588  0.2138
 5524TIP3   OH240766   2.814   0.963  11.065  0.6583 -0.4957 -0.1962
 5524TIP3    H140767   2.729   0.944  11.106  0.0179 -0.0024 -1.2624
 5524TIP3    H240768   2.813   0.914  10.983  0.9842  0.3131 -0.6937
 5525TIP3   OH240769   3.868   5.540  11.982 -0.5859  0.5131 -0.2718
 5525TIP3    H140770   3.917   5.606  12.031 -0.6052  1.0318 -0.9292
 5525TIP3    H240771   3.919   5.460  11.990  1.8355  1.5958 -3.0752
 5526TIP3   OH240772   5.162   0.086  11.534 -0.1565 -0.2734 -0.3731
 5526TIP3    H140773   5.094   0.024  11.563 -1.5842  1.9595  1.3834
 5526TIP3    H240774   5.204   0.042  11.460 -2.1029 -2.6619 -0.1977
 5527TIP3   OH240775   6.563   5.026  10.508 -0.1261 -0.1859 -0.2740
 5527TIP3    H140776   6.653   5.044  10.533 -0.4943 -0.2447  1.1894
 5527TIP3    H240777   6.544   5.090  10.439  1.2154 -0.6044 -1.0553
 5528TIP3   OH240778   1.711   7.948  11.638  0.8283  0.3410 -0.0538
 5528TIP3    H140779   1.727   7.894  11.716  0.9278 -0.3942 -0.5751
 5528TIP3    H240780   1.769   7.912  11.572  1.5676  1.6720 -0.1668
 5529TIP3   OH240781   1.157   2.181  17.859 -0.4591 -0.7796  0.2639
 5529TIP3    H140782   1.238   2.226  17.836 -0.8947 -0.5040 -0.7780
 5529TIP3    H240783   1.105   2.246  17.905 -0.0364 -1.0000  1.0628
 5530TIP3   OH240784   5.438   1.102  11.188 -0.8717 -0.1044 -0.0596
 5530TIP3    H140785   5.432   1.114  11.283 -0.4026  1.9864 -0.2377
 5530TIP3    H240786   5.350   1.074  11.162 -1.6090  1.3271  0.7676
 5531TIP3   OH240787   2.493   3.223  12.469 -0.4881 -0.0343 -0.4669
 5531TIP3    H140788   2.414   3.276  12.483  1.1163  2.0607  1.2823
 5531TIP3    H240789   2.564   3.287  12.468  1.6224 -2.1635  2.1294
 5532TIP3   OH240790   6.379   3.389  11.764 -0.4622 -0.3088  0.1245
 5532TIP3    H140791   6.328   3.318  11.727 -0.7035 -0.2623  0.3603
 5532TIP3    H240792   6.314   3.451  11.797 -0.2621 -0.6175  1.1289
 5533TIP3   OH240793   4.581   8.409  10.815  0.0733  0.1213 -0.4038
 5533TIP3    H140794   4.606   8.396  10.724 -1.7374  0.2438 -0.9594
 5533TIP3    H240795   4.641   8.353  10.864  0.9053 -0.1548 -1.6760
 5534TIP3   OH240796   3.740   7.139  11.590  0.3288 -0.2171 -0.3594
 5534TIP3    H140797   3.808   7.076  11.614  2.1321  1.9849  0.7705
 5534TIP3    H240798   3.749   7.149  11.495  1.0455 -0.5646 -0.3391
 5535TIP3   OH240799   1.444   4.515  11.374 -0.2137 -0.0700  0.9021
 5535TIP3    H140800   1.418   4.507  11.466 -1.4558 -0.7259  0.5146
 5535TIP3    H240801   1.530   4.472  11.369 -0.4217 -0.5846  1.6379
 5536TIP3   OH240802   5.759   5.428  11.762 -0.0016 -0.5101  0.1593
 5536TIP3    H140803   5.731   5.513  11.796 -0.4808  0.1993 -1.8271
 5536TIP3    H240804   5.678   5.390  11.726  0.4327 -1.2575 -0.0375
 5537TIP3   OH240805   2.845   6.085  11.363  0.0989 -0.4041 -0.1693
 5537TIP3    H140806   2.784   6.159  11.359 -0.9221 -1.1006  1.4397
 5537TIP3    H240807   2.932   6.126  11.362 -0.4346  0.7828 -0.0842
 5538TIP3   OH240808   0.722   3.508  12.310 -0.0136  0.5423 -0.1937
 5538TIP3    H140809   0.805   3.493  12.356  0.8656  0.0201 -1.8566
 5538TIP3    H240810   0.729   3.598  12.278 -0.1096  0.5276 -0.2555
 5539TIP3   OH240811   6.212   6.544  11.867 -0.4517  0.3525  0.4221
 5539TIP3    H140812   6.154   6.471  11.848  0.1140 -0.6106  2.1106
 5539TIP3    H240813   6.221   6.591  11.784 -1.4211 -1.0553 -0.5182
 5540TIP3   OH240814   3.117   7.008  12.047 -0.3430 -0.4831  0.1603
 5540TIP3    H140815   3.183   7.058  12.096 -0.5460  1.1299 -1.1377
 5540TIP3    H240816   3.167   6.962  11.980 -0.5763  2.2470 -2.0821
 5541TIP3   OH240817   6.906   8.295  11.889  0.0713  0.3096 -0.1818
 5541TIP3    H140818   6.814   8.309  11.866  0.0784 -0.4755 -0.7560
 5541TIP3    H240819   6.955   8.325  11.813  0.3671  1.7401  0.5547
 5542TIP3   OH240820   3.080   4.605  11.437 -0.2327  0.5562  0.2444
 5542TIP3    H140821   3.145   4.633  11.501 -0.8427  1.0118  0.6737
 5542TIP3    H240822   3.019   4.679  11.430  0.6075  1.1445 -1.9370
 5543TIP3   OH240823   7.127   4.464  11.220 -0.1242 -0.2918 -0.4697
 5543TIP3    H140824   7.040   4.461  11.258  0.3173  0.1441  0.6277
 5543TIP3    H240825   7.119   4.521  11.143 -0.5431  0.8111  0.3708
 5544TIP3   OH240826   6.940   1.813  12.511  0.4001  0.0478  0.4241
 5544TIP3    H140827   7.024   1.789  12.552  1.3676  0.0938 -1.3935
 5544TIP3    H240828   6.874   1.790  12.576  1.8240  0.0536  1.9402
 5545TIP3   OH240829   1.502   6.491  11.083  0.1056  0.2966  0.1648
 5545TIP3    H140830   1.421   6.480  11.033  1.6649 -0.5563 -2.2886
 5545TIP3    H240831   1.499   6.421  11.148 -1.1978  0.4221  0.2816
 5546TIP3   OH240832   3.331   4.061  10.622 -0.4127 -0.0670  0.1904
 5546TIP3    H140833   3.300   4.151  10.633  1.8546  0.7290  0.6566
 5546TIP3    H240834   3.260   4.017  10.575 -0.2613  2.8412 -3.2436
 5547TIP3   OH240835   4.026   4.263  10.885  0.7161 -0.2214  0.1171
 5547TIP3    H140836   4.030   4.168  10.898 -1.4112 -0.3932 -0.1406
 5547TIP3    H240837   3.938   4.279  10.852  0.7184  1.9627  1.0098
 5548TIP3   OH240838   7.505   5.651  11.065  0.1761 -0.1279  0.2907
 5548TIP3    H140839   7.514   5.691  11.151 -2.9277 -0.5793  0.9448
 5548TIP3    H240840   7.496   5.725  11.005  3.6471  0.2391  0.0169
 5549TIP3   OH240841   1.068   0.603  12.300  0.2584  0.1503 -0.1474
 5549TIP3    H140842   1.070   0.549  12.222  0.6456  1.3994 -1.0233
 5549TIP3    H240843   1.091   0.543  12.371 -0.3692 -1.0608 -0.9367
 5550TIP3   OH240844   0.899   7.822  11.186  0.2109  0.0271  0.4343
 5550TIP3    H140845   0.958   7.834  11.111  1.0907 -0.8595  0.9666
 5550TIP3    H240846   0.921   7.894  11.245  2.7253 -1.6999  1.8427
 5551TIP3   OH240847   1.737   6.552  12.130  0.0895  0.3487 -0.1154
 5551TIP3    H140848   1.652   6.585  12.100  0.1469 -0.1080 -0.7867
 5551TIP3    H240849   1.763   6.488  12.064 -0.1008 -1.1993  1.2174
 5552TIP3   OH240850   4.701   3.262  11.052 -0.5489  0.0698  0.0607
 5552TIP3    H140851   4.609   3.284  11.068 -0.7233 -0.7506  0.2394
 5552TIP3    H240852   4.730   3.219  11.132  0.4304  1.5997  0.5835
 5553TIP3   OH240853   6.370   4.030  13.061 -0.2086  0.2464  0.1402
 5553TIP3    H140854   6.277   4.007  13.060 -0.1024 -0.8263  3.2225
 5553TIP3    H240855   6.415   3.950  13.037 -0.0286  0.5984 -0.7384
 5554TIP3   OH240856   1.093   7.311  11.507  0.0425 -0.7491  0.8035
 5554TIP3    H140857   1.170   7.361  11.478 -0.1086 -0.4521  0.9098
 5554TIP3    H240858   1.078   7.247  11.438  0.2251 -0.6312  0.6545
 5555TIP3   OH240859   0.551   7.523  11.032  0.7868 -0.7484 -0.8678
 5555TIP3    H140860   0.513   7.464  11.097 -1.6161  0.5087 -1.0092
 5555TIP3    H240861   0.596   7.590  11.084 -1.8674  0.7477 -0.3266
 5556TIP3   OH240862   3.763   7.688  10.581  0.2997  0.4679 -0.3931
 5556TIP3    H140863   3.713   7.769  10.581 -1.6416 -0.6670  0.0567
 5556TIP3    H240864   3.711   7.627  10.634  1.9130 -0.9491 -0.3291
 5557TIP3   OH240865   2.984   3.821  12.207  0.1874 -0.4323 -0.4127
 5557TIP3    H140866   3.026   3.906  12.220  1.8567 -1.4610  1.3877
 5557TIP3    H240867   3.056   3.763  12.182 -0.5220 -1.7823  0.5999
 5558TIP3   OH240868   6.591   0.768  11.616 -0.1159 -0.5366  0.0334
 5558TIP3    H140869   6.654   0.702  11.588 -1.2847 -1.5710 -0.2360
 5558TIP3    H240870   6.598   0.837  11.550 -0.4759 -1.4388 -0.9936
 5559TIP3   OH240871   0.810   4.419  11.170  0.1198  0.6933  0.1110
 5559TIP3    H140872   0.892   4.375  11.146 -0.0868  1.0224 -1.2272
 5559TIP3    H240873   0.773   4.449  11.088 -1.7734 -0.1487  0.5954
 5560TIP3   OH240874   7.291   4.552  10.595  0.0328  0.0315 -0.6059
 5560TIP3    H140875   7.298   4.582  10.505  2.2160 -0.5659 -0.6804
 5560TIP3    H240876   7.272   4.631  10.646  2.0978  0.9586 -1.2061
 5561TIP3   OH240877   6.686   0.823  10.880 -0.1298  0.3935  0.3275
 5561TIP3    H140878   6.642   0.740  10.862 -0.0529  0.3822  0.1948
 5561TIP3    H240879   6.655   0.848  10.967 -0.6549  0.5532  0.0945
 5562TIP3   OH240880   6.851   6.914  10.552  0.6625 -0.1095 -0.2709
 5562TIP3    H140881   6.916   6.908  10.623  1.4459  0.4505 -0.9238
 5562TIP3    H240882   6.885   6.856  10.484  1.0811  1.0560 -1.0742
 5563TIP3   OH240883   7.723   3.966  11.142  0.3270 -0.2801 -0.6572
 5563TIP3    H140884   7.718   3.915  11.061  0.3640 -0.5530 -0.4880
 5563TIP3    H240885   7.632   3.991  11.161  0.4451  0.8416 -1.4494
 5564TIP3   OH240886   1.022   1.154  11.928 -0.0550  0.3681 -0.4064
 5564TIP3    H140887   1.086   1.128  11.862  1.5406 -2.0849  1.9269
 5564TIP3    H240888   1.062   1.229  11.972 -0.2230  0.7667 -0.9250
 5565TIP3   OH240889   4.206   4.678  12.402 -0.5684  0.2251 -0.4568
 5565TIP3    H140890   4.117   4.707  12.422  0.0083  0.4394  2.1622
 5565TIP3    H240891   4.249   4.674  12.488  1.4024 -1.7038 -1.4619
 5566TIP3   OH240892   1.856   7.545  10.771 -0.4970  0.1513  0.3021
 5566TIP3    H140893   1.835   7.474  10.711  3.7541 -0.6104 -0.6338
 5566TIP3    H240894   1.859   7.624  10.716  2.8129 -0.4521 -0.6061
 5567TIP3   OH240895   4.478   6.011  12.117  0.1078  0.6748  0.3748
 5567TIP3    H140896   4.448   5.983  12.203 -0.8965  0.1804 -0.1156
 5567TIP3    H240897   4.478   5.932  12.064  0.6172  0.9892 -0.1109
 5568TIP3   OH240898   3.621   6.766  10.495  0.9935  0.1019 -0.4833
 5568TIP3    H140899   3.538   6.743  10.538  1.0480 -0.6917 -0.8025
 5568TIP3    H240900   3.642   6.853  10.531 -1.1713  1.4203 -2.1127
 5569TIP3   OH240901   0.216   3.671  11.447 -0.6342 -0.6374  0.2608
 5569TIP3    H140902   0.130   3.714  11.448 -0.6493 -0.6283 -0.5100
 5569TIP3    H240903   0.248   3.685  11.358  0.0553 -0.8668  0.4680
 5570TIP3   OH240904   8.410   2.755  12.295 -0.1131 -0.7016  0.6852
 5570TIP3    H140905   8.429   2.706  12.375 -0.6400  0.0535  1.2904
 5570TIP3    H240906   8.415   2.847  12.322  0.1567 -0.4265 -0.2594
 5571TIP3   OH240907   4.969   3.664  11.767 -0.5448 -0.4422  0.2965
 5571TIP3    H140908   4.922   3.712  11.699  2.9681  0.4501 -1.7876
 5571TIP3    H240909   5.027   3.730  11.806 -0.2882 -1.6452  2.0668
 5572TIP3   OH240910   5.278   0.549  10.818 -0.1455 -0.0895  0.0260
 5572TIP3    H140911   5.340   0.577  10.750 -0.6237  0.5083 -0.1702
 5572TIP3    H240912   5.213   0.497  10.771  0.4927 -1.1912  0.3196
 5573TIP3   OH240913   6.590   0.981  11.411  0.3235 -0.1316 -0.2605
 5573TIP3    H140914   6.524   1.050  11.420 -1.0500 -1.3611 -0.4334
 5573TIP3    H240915   6.673   1.024  11.429 -0.2147  2.1023 -2.6417
 5574TIP3   OH240916   0.420   3.281  11.466  0.2697  0.0344  0.6177
 5574TIP3    H140917   0.465   3.311  11.387 -0.9385 -0.7961 -0.4097
 5574TIP3    H240918   0.488   3.234  11.516  0.7325 -0.5819 -0.5605
 5575TIP3   OH240919   3.109   7.276  12.570 -0.1660 -0.6685  0.3795
 5575TIP3    H140920   3.040   7.221  12.608  1.4193 -1.0517  2.9489
 5575TIP3    H240921   3.168   7.214  12.528  0.2180 -0.6626  0.9072
 5576TIP3   OH240922   7.804   2.105  12.349 -0.1095  0.3100  0.0642
 5576TIP3    H140923   7.886   2.067  12.379 -1.0434 -1.1065  0.9784
 5576TIP3    H240924   7.817   2.120  12.256  1.5329  1.1232  0.3913
 5577TIP3   OH240925   4.586   6.043  10.748 -0.0454 -0.1590 -0.7100
 5577TIP3    H140926   4.604   5.959  10.789 -1.6366 -1.0702 -1.7683
 5577TIP3    H240927   4.601   6.107  10.818 -3.4189 -1.6635  1.7314
 5578TIP3   OH240928   2.872   6.461  10.445 -0.3579  0.1790 -0.2127
 5578TIP3    H140929   2.956   6.419  10.466 -0.4043  1.4585  3.1400
 5578TIP3    H240930   2.896   6.537  10.391  0.2721 -0.9944 -1.6622
 5579TIP3   OH240931   8.378   7.115  11.695 -0.1605  0.5430  0.2119
 5579TIP3    H140932   8.402   7.029  11.731  1.4763  1.0498  0.4285
 5579TIP3    H240933   8.364   7.099  11.602 -0.3830 -0.0494  0.3409
 5580TIP3   OH240934   2.902   3.346  11.951 -0.5608  0.1166  0.5272
 5580TIP3    H140935   2.866   3.406  11.886 -1.0716  0.7123  1.3344
 5580TIP3    H240936   2.966   3.398  11.999  0.5091 -0.5934 -0.1053
 5581TIP3   OH240937   2.823   5.079  11.524  0.1355 -0.3297  0.2086
 5581TIP3    H140938   2.752   5.069  11.461  0.7542  0.3691 -0.6099
 5581TIP3    H240939   2.785   5.051  11.607 -1.7690  1.9779  0.2208
 5582TIP3   OH240940   0.192   0.017  12.595 -0.2556  0.1959 -0.1766
 5582TIP3    H140941   0.172   0.012  12.688  0.2659 -2.2036 -0.1151
 5582TIP3    H240942   0.162  -0.068  12.560 -1.1463  1.3211 -2.3478
 5583TIP3   OH240943   6.684   7.055  10.718 -0.0704 -0.1047  0.3036
 5583TIP3    H140944   6.722   7.016  10.639 -0.0769  0.3863  0.0534
 5583TIP3    H240945   6.729   7.140  10.726  1.6622 -1.1113  2.1538
 5584TIP3   OH240946   2.068   1.707  12.720 -0.2143  0.6501 -0.0844
 5584TIP3    H140947   2.103   1.619  12.733 -0.3957  0.5312 -0.3882
 5584TIP3    H240948   2.113   1.761  12.785 -0.6641  0.1864  0.6394
 5585TIP3   OH240949   5.352   2.201  11.142  0.9422 -0.4716  0.4457
 5585TIP3    H140950   5.301   2.280  11.160 -2.3356 -2.1155 -0.8151
 5585TIP3    H240951   5.370   2.205  11.048  0.5246 -1.2872  0.3196
 5586TIP3   OH240952   2.155   6.811  10.757 -0.3895 -0.6551  0.3726
 5586TIP3    H140953   2.229   6.837  10.811 -0.4054 -1.3255  0.7310
 5586TIP3    H240954   2.125   6.892  10.716  0.9096 -0.4685 -0.2512
 5587TIP3   OH240955   1.247   2.233  11.544  0.1080  0.0626 -0.1417
 5587TIP3    H140956   1.154   2.208  11.545  0.1944 -0.2797 -0.4495
 5587TIP3    H240957   1.291   2.159  11.501  0.4910  0.3375 -0.2236
 5588TIP3   OH240958   1.398   1.971  10.611  0.4311 -0.3194  0.1210
 5588TIP3    H140959   1.341   1.911  10.563 -0.7585 -0.0417  1.1395
 5588TIP3    H240960   1.483   1.929  10.610  0.4902 -0.3009 -2.2516
 5589TIP3   OH240961   7.723   7.995  11.355  0.8709 -0.5508  0.6790
 5589TIP3    H140962   7.786   7.994  11.428  1.7055 -0.4089 -0.0188
 5589TIP3    H240963   7.709   7.903  11.334  2.6912 -0.5841 -0.6717
 5590TIP3   OH240964   5.895   2.673  11.782  0.1041 -0.6288 -0.1814
 5590TIP3    H140965   5.865   2.619  11.708 -1.3053  0.0788 -0.1730
 5590TIP3    H240966   5.825   2.664  11.847  0.5931 -0.0166  0.4381
 5591TIP3   OH240967   6.976   7.473  11.568 -0.2853 -0.3790 -0.3264
 5591TIP3    H140968   7.036   7.505  11.636 -1.0427  0.1997  0.0846
 5591TIP3    H240969   7.033   7.447  11.496  0.5090 -0.6050  0.3706
 5592TIP3   OH240970   0.332   1.993  13.078  0.1321  0.2112  0.0093
 5592TIP3    H140971   0.280   1.942  13.141  0.1129 -0.0930 -0.2464
 5592TIP3    H240972   0.419   1.998  13.117 -0.5380  2.4240  1.4034
 5593TIP3   OH240973   4.568   2.574  11.100 -0.4718  0.3502  0.1270
 5593TIP3    H140974   4.582   2.645  11.037  0.8362 -1.0877 -1.3057
 5593TIP3    H240975   4.500   2.520  11.060 -1.3862  0.7150  1.1573
 5594TIP3   OH240976   1.314   1.957  11.468 -0.3864 -0.0186 -0.0279
 5594TIP3    H140977   1.356   1.925  11.548 -1.3599  1.3550  1.1022
 5594TIP3    H240978   1.386   1.979  11.409  0.6558  2.7816  2.0285
 5595TIP3   OH240979   0.560   6.043  12.256  0.0549  0.3165 -0.6428
 5595TIP3    H140980   0.584   6.132  12.282  0.6127 -0.0529  0.1565
 5595TIP3    H240981   0.569   5.991  12.336  1.4662 -0.7950 -1.4634
 5596TIP3   OH240982   8.061   5.474  10.944  0.4360  0.3484 -0.1674
 5596TIP3    H140983   8.139   5.442  10.989 -0.1893 -2.2682 -0.7837
 5596TIP3    H240984   8.011   5.520  11.012  1.8612  0.9423  0.5226
 5597TIP3   OH240985   7.507   1.923  13.299  0.0402 -0.2288 -0.1445
 5597TIP3    H140986   7.422   1.964  13.318  0.0622 -0.2997  0.1173
 5597TIP3    H240987   7.571   1.984  13.336  0.1200  0.0048 -0.6690
 5598TIP3   OH240988   3.655   6.571  10.319 -0.6294 -0.5309  0.1534
 5598TIP3    H140989   3.695   6.615  10.244 -1.0691 -1.7588 -0.8475
 5598TIP3    H240990   3.657   6.635  10.389  2.5852 -0.3125  0.0088
 5599TIP3   OH240991   5.579   5.933  11.639  0.1903 -0.1587  0.4794
 5599TIP3    H140992   5.485   5.925  11.655  0.6820 -1.7919  3.2720
 5599TIP3    H240993   5.588   6.016  11.593 -2.5988 -0.0095 -0.0092
 5600TIP3   OH240994   2.236   1.932  12.309  0.2503  0.1137  0.8124
 5600TIP3    H140995   2.299   1.881  12.361  1.2487 -0.0136 -0.4624
 5600TIP3    H240996   2.225   2.013  12.358 -0.8287 -1.0117  2.5251
 5601TIP3   OH240997   1.947   5.830  11.863 -0.2545 -0.0798  0.0520
 5601TIP3    H140998   2.007   5.812  11.791 -1.4234 -0.2654 -0.9052
 5601TIP3    H240999   1.907   5.745  11.882 -2.0448  0.4786 -1.0362
 5602TIP3   OH241000   8.076   2.893  10.784 -0.0667  0.0189 -0.3040
 5602TIP3    H141001   8.070   2.823  10.849 -0.7349  0.4073  0.0631
 5602TIP3    H241002   7.993   2.940  10.792  0.3172  0.7695 -0.6439
 5603TIP3   OH241003   1.973   2.822  11.182  0.2434  0.6915  0.0754
 5603TIP3    H141004   2.001   2.888  11.119  4.0201 -1.9250 -1.3653
 5603TIP3    H241005   2.023   2.841  11.262  1.2500 -0.2445 -0.3045
 5604TIP3   OH241006   1.771   0.976  10.947  0.6205  0.0839 -0.5733
 5604TIP3    H141007   1.697   0.954  10.890 -0.4552  0.7411  0.5166
 5604TIP3    H241008   1.793   0.894  10.991 -0.9050  0.2956  0.6871
 5605TIP3   OH241009   3.109   2.998  11.036 -0.1109  0.1468  0.0144
 5605TIP3    H141010   3.157   2.946  11.101 -1.1630 -1.1730 -0.2190
 5605TIP3    H241011   3.143   2.970  10.952 -0.7311 -0.2302 -0.1168
 5606TIP3   OH241012   2.192   0.290  11.048 -0.3403 -0.5237 -0.6690
 5606TIP3    H141013   2.114   0.322  11.001 -0.8166  0.5460  0.7518
 5606TIP3    H241014   2.164   0.286  11.139  0.5746 -2.4786 -0.4424
 5607TIP3   OH241015   4.884   7.640  11.821  0.0610  0.4263  0.2145
 5607TIP3    H141016   4.875   7.721  11.870  0.4042  0.1304  0.7834
 5607TIP3    H241017   4.911   7.575  11.887 -0.5120 -0.2175 -0.1646
 5608TIP3   OH241018   2.188   0.692  11.731  0.4474 -0.0445  0.1295
 5608TIP3    H141019   2.140   0.741  11.798  0.6459 -0.3659  0.5067
 5608TIP3    H241020   2.120   0.645  11.682  0.2007  0.9899 -0.5671
 5609TIP3   OH241021   3.964   7.840  11.807  0.5079 -0.3548  0.3046
 5609TIP3    H141022   3.901   7.791  11.860  0.6712 -0.6620  0.2129
 5609TIP3    H241023   3.939   7.932  11.820  0.3642 -0.4434  0.6819
 5610TIP3   OH241024   6.369   6.314  12.235  0.0503  0.1283 -0.8094
 5610TIP3    H141025   6.308   6.356  12.174  0.5824  1.1195 -0.6868
 5610TIP3    H241026   6.372   6.373  12.311  1.3304  0.2275 -0.9143
 5611TIP3   OH241027   1.517   2.752  11.100  0.5619  0.8849 -0.5213
 5611TIP3    H141028   1.517   2.725  11.192  1.7119  1.4099 -0.3525
 5611TIP3    H241029   1.428   2.735  11.070  0.5180 -0.5645  0.3132
 5612TIP3   OH241030   5.094   6.295  11.554  0.1840  0.0499  0.3205
 5612TIP3    H141031   5.153   6.249  11.614  2.2986  1.5904 -0.4589
 5612TIP3    H241032   5.016   6.312  11.606  1.2935 -0.1020  2.1390
 5613TIP3   OH241033   1.949   8.338  10.801  0.0872  0.0578 -0.0951
 5613TIP3    H141034   1.993   8.364  10.882 -1.5126 -0.9012  1.1526
 5613TIP3    H241035   2.011   8.359  10.731  2.2983 -0.8032  1.5179
 5614TIP3   OH241036   5.109   5.686  11.902  0.3586  0.2487 -0.1244
 5614TIP3    H141037   5.187   5.633  11.921  0.6840  0.6614 -0.3035
 5614TIP3    H241038   5.107   5.751  11.972  0.1958  0.2636 -0.1422
 5615TIP3   OH241039   0.586   0.490  11.864  0.1842  0.3507  0.0837
 5615TIP3    H141040   0.605   0.556  11.931  0.1799  0.0515  0.3826
 5615TIP3    H241041   0.511   0.524  11.816  0.2128  0.5850  0.2057
 5616TIP3   OH241042   7.623   4.129  10.653  0.5834 -0.4346 -0.1060
 5616TIP3    H141043   7.641   4.218  10.685 -0.4982 -0.8151  1.6964
 5616TIP3    H241044   7.668   4.072  10.715  1.0232 -1.1780 -1.0885
 5617TIP3   OH241045   6.753   4.267  11.371  0.5337 -0.0144  0.2196
 5617TIP3    H141046   6.666   4.303  11.354 -0.4406 -1.7615  1.2091
 5617TIP3    H241047   6.807   4.343  11.390 -0.0159  1.4256 -3.1260
 5618TIP3   OH241048   7.774   5.263  10.796  0.1458 -0.4375 -0.2448
 5618TIP3    H141049   7.701   5.202  10.804 -1.4640  1.3037 -1.1378
 5618TIP3    H241050   7.767   5.320  10.873  0.6429 -0.3311 -0.2734
 5619TIP3   OH241051   2.335   2.769  11.184  0.1045  0.5422 -0.0424
 5619TIP3    H141052   2.350   2.850  11.233  0.2174  0.2939  0.3355
 5619TIP3    H241053   2.422   2.730  11.175  0.0454  0.4469 -0.2000
 5620TIP3   OH241054   2.744   1.540  10.646 -0.2146 -0.0727  0.0343
 5620TIP3    H141055   2.832   1.550  10.683  0.0620 -0.0992 -0.5983
 5620TIP3    H241056   2.709   1.629  10.643  0.0988  0.0375 -0.4428
 5621TIP3   OH241057   6.440   4.320  12.619 -0.1061  0.3314 -0.2518
 5621TIP3    H141058   6.517   4.357  12.662  1.4623 -0.3409 -2.3478
 5621TIP3    H241059   6.400   4.264  12.687  1.1778  0.7736  0.9126
 5622TIP3   OH241060   1.753   7.051  12.325  0.2770  0.0729 -0.6217
 5622TIP3    H141061   1.754   7.141  12.295 -1.4913 -0.1962 -1.6260
 5622TIP3    H241062   1.745   6.998  12.246  0.3254 -0.9054 -0.0008
 5623TIP3   OH241063   2.381   3.383  10.907 -0.2916 -0.1421 -0.4534
 5623TIP3    H141064   2.346   3.420  10.988 -0.1091  2.3104 -1.3834
 5623TIP3    H241065   2.461   3.434  10.890  1.3134 -2.5603 -0.7259
 5624TIP3   OH241066   3.157   7.454  10.711  0.3727  0.0914 -0.8294
 5624TIP3    H141067   3.192   7.423  10.628  1.3001  0.2633 -0.5066
 5624TIP3    H241068   3.077   7.403  10.724 -1.2069  1.7813 -3.0443
 5625TIP3   OH241069   2.132   5.094  10.584  0.3829  0.0826  0.1039
 5625TIP3    H141070   2.116   5.179  10.625  0.6221  1.4355 -2.4018
 5625TIP3    H241071   2.045   5.057  10.571  0.2646  0.0309  0.9967
 5626TIP3   OH241072   3.176   0.959  11.560  0.0814  0.4754 -0.0534
 5626TIP3    H141073   3.170   1.045  11.519 -1.1269  0.9475  1.0441
 5626TIP3    H241074   3.098   0.953  11.615  0.4936 -1.0511  0.4161
 5627TIP3   OH241075   4.623   2.120  11.053 -0.5663 -0.2227 -0.3675
 5627TIP3    H141076   4.597   2.167  11.133 -0.4480  0.0730 -0.5000
 5627TIP3    H241077   4.652   2.189  10.993 -0.7132 -0.4393 -0.6901
 5628TIP3   OH241078   4.430   4.530  11.443 -0.1190  0.1187 -0.4469
 5628TIP3    H141079   4.476   4.497  11.519 -0.0986  0.5964 -0.2515
 5628TIP3    H241080   4.499   4.555  11.381 -0.1204  0.3705 -0.3488
 5629TIP3   OH241081   4.392   4.543  11.011 -0.1777 -0.1934  0.2314
 5629TIP3    H141082   4.364   4.537  10.920  1.3144  1.0859 -0.3670
 5629TIP3    H241083   4.415   4.453  11.034 -0.7962 -0.5767 -0.5698
 5630TIP3   OH241084   5.486   0.597  11.948  0.1080 -0.3711 -0.0699
 5630TIP3    H141085   5.508   0.580  11.856  0.3230  3.3078 -0.8787
 5630TIP3    H241086   5.407   0.546  11.964 -0.1849 -0.7751 -2.4516
 5631TIP3   OH241087   1.283   0.362  11.367 -0.2787  0.2151 -0.1021
 5631TIP3    H141088   1.230   0.295  11.323  0.8861  0.6481 -2.3000
 5631TIP3    H241089   1.348   0.312  11.416  0.8974 -0.3470 -2.1287
 5632TIP3   OH241090   4.127   6.276  11.292  0.2575  0.2119 -0.8438
 5632TIP3    H141091   4.129   6.309  11.382 -3.6982 -0.7024 -0.2396
 5632TIP3    H241092   4.165   6.189  11.297  1.2002  0.6449 -0.3323
 5633TIP3   OH241093   5.815   3.015  12.357  0.3082 -0.6615  0.0610
 5633TIP3    H141094   5.794   2.922  12.368  1.2685 -0.6920  2.3757
 5633TIP3    H241095   5.881   3.032  12.424  0.1500  1.7040 -0.3029
 5634TIP3   OH241096   5.333   6.468  11.737 -0.3634 -0.0042 -0.3225
 5634TIP3    H141097   5.401   6.439  11.800  0.6770 -1.3094 -1.9527
 5634TIP3    H241098   5.375   6.537  11.687 -1.1678  0.9857  0.3427
 5635TIP3   OH241099   5.079   4.655  11.332 -0.3275  0.0141 -0.1816
 5635TIP3    H141100   5.077   4.615  11.419 -0.1256 -0.4739 -0.3991
 5635TIP3    H241101   5.118   4.741  11.346 -0.0049 -0.1848  0.1605
 5636TIP3   OH241102   7.786   2.108  12.047 -0.3513  0.1211 -0.2657
 5636TIP3    H141103   7.787   2.024  12.001 -0.0760  1.2378 -2.4620
 5636TIP3    H241104   7.752   2.170  11.982  1.2062  2.0426  0.6497
 5637TIP3   OH241105   7.157   3.163  11.150 -0.1041  0.2887  0.0818
 5637TIP3    H141106   7.174   3.106  11.226 -0.4967  1.8403  1.3830
 5637TIP3    H241107   7.241   3.168  11.104  0.5372  0.4888  1.2414
 5638TIP3   OH241108   2.610   6.409  11.713  0.1016  0.5077  0.1198
 5638TIP3    H141109   2.684   6.396  11.654  0.6736  2.3196  0.3683
 5638TIP3    H241110   2.648   6.411  11.800 -0.5179 -0.4940  0.4206
 5639TIP3   OH241111   1.510   3.636  11.724 -0.1894  0.5161  0.0551
 5639TIP3    H141112   1.463   3.568  11.773 -0.4878  0.5723 -0.1563
 5639TIP3    H241113   1.597   3.638  11.765 -0.6680  1.0980  1.0905
 5640TIP3   OH241114   2.468   4.385  12.002  0.3773 -0.6454  0.0058
 5640TIP3    H141115   2.431   4.366  12.088  0.7066 -0.1486  0.2622
 5640TIP3    H241116   2.539   4.447  12.020 -0.9193  1.1910 -0.8155
 5641TIP3   OH241117   6.329   2.509  11.889  0.4243 -0.0994 -0.1356
 5641TIP3    H141118   6.319   2.445  11.818  0.0450  0.8797 -0.9851
 5641TIP3    H241119   6.424   2.518  11.900  0.5729 -2.6956  1.7787
 5642TIP3   OH241120   5.630   8.040  10.328  0.1185  0.5937  0.2387
 5642TIP3    H141121   5.691   8.058  10.258  0.5532 -0.0509  0.4456
 5642TIP3    H241122   5.583   7.962  10.300 -0.0616  0.6254  0.4434
 5643TIP3   OH241123   2.286   3.519  12.989  0.7794  0.3665 -0.0986
 5643TIP3    H141124   2.330   3.448  13.035  1.0228 -0.0789 -0.9991
 5643TIP3    H241125   2.225   3.555  13.054  1.7377  0.3444  0.8535
 5644TIP3   OH241126   7.302   2.802  12.376  0.1507  0.3451 -0.1832
 5644TIP3    H141127   7.325   2.740  12.446  2.0868 -1.3447 -2.1664
 5644TIP3    H241128   7.281   2.883  12.423  1.8110 -0.5479  2.3534
 5645TIP3   OH241129   1.933   2.620  11.795  0.3896 -0.2106 -0.6260
 5645TIP3    H141130   1.929   2.700  11.847  1.0689 -0.2696 -0.4746
 5645TIP3    H241131   1.906   2.648  11.707 -0.1361  0.0212 -0.3935
 5646TIP3   OH241132   0.697   5.462  11.001 -0.0576  0.3623 -0.0334
 5646TIP3    H141133   0.645   5.496  11.073 -1.2660  1.1576 -1.2284
 5646TIP3    H241134   0.763   5.407  11.043 -1.1313  0.2546  1.6172
 5647TIP3   OH241135   4.395   7.441  11.350 -0.1868  0.0285 -0.3603
 5647TIP3    H141136   4.372   7.451  11.443  1.8671 -0.8552  0.3173
 5647TIP3    H241137   4.469   7.501  11.338  0.3666 -0.7772 -1.0912
 5648TIP3   OH241138   6.850   2.923  12.751 -0.2348  0.0945 -0.3041
 5648TIP3    H141139   6.814   2.997  12.702 -0.8055 -1.3271 -2.1806
 5648TIP3    H241140   6.782   2.899  12.813 -0.8285 -0.0190 -0.9938
 5649TIP3   OH241141   5.216   3.516  11.960  0.0228 -0.1315  0.1652
 5649TIP3    H141142   5.295   3.485  11.917  0.0966  0.2106  0.0484
 5649TIP3    H241143   5.152   3.446  11.947  0.2766 -0.3679  0.1794
 5650TIP3   OH241144   5.461   1.361  12.442 -0.2174 -0.2944 -0.3558
 5650TIP3    H141145   5.512   1.281  12.453  1.3855  0.7849  0.3423
 5650TIP3    H241146   5.517   1.431  12.474 -2.4905  0.8736  1.4135
 5651TIP3   OH241147   6.180   7.158  11.144  0.0495  0.1273 -0.1418
 5651TIP3    H141148   6.113   7.120  11.202  1.0960  0.3110  1.2433
 5651TIP3    H241149   6.263   7.125  11.178  0.9370  2.6578  0.4028
 5652TIP3   OH241150   3.971   1.665  10.799 -0.2094 -0.3983  0.6221
 5652TIP3    H141151   3.997   1.755  10.779 -0.2107 -0.6560 -0.6193
 5652TIP3    H241152   3.877   1.663  10.782 -0.5370 -0.2508  2.1909
 5653TIP3   OH241153   5.742   2.758  12.149  0.0700 -0.7283  0.8938
 5653TIP3    H141154   5.736   2.683  12.089  0.5027 -2.0635  2.4480
 5653TIP3    H241155   5.746   2.719  12.236 -0.2465  1.1479  1.7968
 5654TIP3   OH241156   6.231   4.203  12.070  0.1992  0.3988 -0.3887
 5654TIP3    H141157   6.199   4.283  12.112 -1.2998  0.5959 -1.8069
 5654TIP3    H241158   6.309   4.232  12.021  1.0524  0.4714  0.9661
 5655TIP3   OH241159   6.892   3.196  11.324 -0.0314  0.2829  0.0340
 5655TIP3    H141160   6.920   3.220  11.412 -0.8233  0.9606  0.1115
 5655TIP3    H241161   6.854   3.109  11.334  2.3358 -0.8380 -0.1436
 5656TIP3   OH241162   4.389   2.113  10.946 -0.3416 -0.1501 -0.1588
 5656TIP3    H141163   4.475   2.079  10.969 -0.3078  0.6319  0.9179
 5656TIP3    H241164   4.406   2.173  10.873  0.2791  1.2865  1.1321
 5657TIP3   OH241165   1.140   3.919  11.413 -0.5991 -0.7348  0.2511
 5657TIP3    H141166   1.225   3.896  11.451 -0.4542  0.2058  0.5335
 5657TIP3    H241167   1.076   3.895  11.480 -0.5572 -1.3956  0.0593
 5658TIP3   OH241168   1.541   4.974  10.938  0.1299 -0.2144  0.0374
 5658TIP3    H141169   1.466   4.952  10.993  0.4731  0.0533  0.6252
 5658TIP3    H241170   1.571   4.890  10.902 -1.5077 -0.1438 -1.6201
 5659TIP3   OH241171   6.752   3.320  11.651 -0.0075  0.3893 -0.5060
 5659TIP3    H141172   6.753   3.335  11.557 -0.2122  0.3166 -0.5209
 5659TIP3    H241173   6.811   3.245  11.664 -1.2499 -0.6786 -0.7752
 5660TIP3   OH241174   7.694   4.391  11.830  0.2871  0.2193 -0.0879
 5660TIP3    H141175   7.639   4.447  11.886 -0.1080 -0.7500  0.5223
 5660TIP3    H241176   7.691   4.305  11.872 -2.6131 -1.4362 -3.1770
 5661TIP3   OH241177   6.589   4.758  11.897  0.0557 -0.5213  0.3055
 5661TIP3    H141178   6.649   4.785  11.828 -1.0330 -1.3309 -0.9849
 5661TIP3    H241179   6.524   4.828  11.900 -0.0272 -0.6011  0.3576
 5662TIP3   OH241180   1.905   2.492  11.356 -0.1452 -0.6325  0.0487
 5662TIP3    H141181   1.992   2.526  11.335 -0.1727 -0.7865 -0.3239
 5662TIP3    H241182   1.875   2.450  11.275 -1.1797  0.6916 -0.2964
 5663TIP3   OH241183   6.116   4.221  10.881 -0.3282 -0.4563 -0.0363
 5663TIP3    H141184   6.189   4.215  10.818  1.2770 -1.5739  1.8071
 5663TIP3    H241185   6.146   4.282  10.947 -0.7723 -1.4104  1.0843
 5664TIP3   OH241186   1.326   3.590  11.354 -0.2334 -0.3340  0.2369
 5664TIP3    H141187   1.411   3.600  11.396 -0.4722 -0.3696  0.7349
 5664TIP3    H241188   1.265   3.572  11.426 -0.9209  1.1560  0.0573
 5665TIP3   OH241189   3.362   3.746  11.849  0.5031 -0.9007 -0.2310
 5665TIP3    H141190   3.448   3.703  11.848  0.1927 -1.5391 -1.6394
 5665TIP3    H241191   3.334   3.746  11.758 -0.3556  0.6369 -0.0079
 5666TIP3   OH241192   4.288   7.344  10.624 -0.1285  0.2818 -0.2431
 5666TIP3    H141193   4.364   7.400  10.641  0.3843 -0.5248  0.2262
 5666TIP3    H241194   4.246   7.336  10.710 -0.1927 -0.0595 -0.3079
 5667TIP3   OH241195   6.437   1.417  12.342  0.2745 -0.0523  0.0331
 5667TIP3    H141196   6.486   1.418  12.260  1.6325 -0.2320  0.8157
 5667TIP3    H241197   6.391   1.502  12.343 -0.2263 -0.2840 -1.1552
 5668TIP3   OH241198   5.233   7.996  10.909 -0.0694 -0.2059  0.1474
 5668TIP3    H141199   5.222   7.901  10.903  0.3088 -0.3123  0.9280
 5668TIP3    H241200   5.324   8.007  10.936  0.3887  0.4574 -1.5336
 5669TIP3   OH241201   4.537   0.533  11.903  0.2349 -0.3653 -0.3783
 5669TIP3    H141202   4.604   0.591  11.867  1.2326 -1.2273  0.0339
 5669TIP3    H241203   4.472   0.592  11.941  0.8889  0.4867 -0.5477
 5670TIP3   OH241204   1.451   0.942  11.171  0.6691 -0.1521 -0.0888
 5670TIP3    H141205   1.410   0.872  11.119 -0.2081 -0.2097  0.6526
 5670TIP3    H241206   1.488   0.897  11.247  1.2396  0.0369 -0.2471
 5671TIP3   OH241207   5.492   8.358  11.740 -0.2766 -0.3496 -0.4966
 5671TIP3    H141208   5.494   8.264  11.724 -1.7896 -0.0631 -2.7606
 5671TIP3    H241209   5.412   8.371  11.792  0.1453 -0.3485  0.1578
 5672TIP3   OH241210   2.686   2.188  10.524 -0.1048  0.1097 -0.9638
 5672TIP3    H141211   2.641   2.273  10.528 -0.7987 -0.2808 -0.0825
 5672TIP3    H241212   2.705   2.168  10.616  1.2952 -0.0431 -1.2795
 5673TIP3   OH241213   2.310   6.291  12.751  0.0494 -0.0466 -0.1599
 5673TIP3    H141214   2.252   6.352  12.796  0.6385  0.2029  0.2830
 5673TIP3    H241215   2.315   6.323  12.661 -0.0089  0.2912 -0.0439
 5674TIP3   OH241216   2.665   6.882  11.061 -0.3451 -0.2054 -0.2054
 5674TIP3    H141217   2.618   6.942  11.003  1.0836  0.1463 -1.0456
 5674TIP3    H241218   2.649   6.795  11.024 -0.5974 -0.1215 -0.2922
 5675TIP3   OH241219   3.168   1.784  12.229  0.4593 -0.2706  0.0682
 5675TIP3    H141220   3.109   1.789  12.154  1.3082 -3.0266 -0.9129
 5675TIP3    H241221   3.256   1.786  12.191  0.9387  0.2726  1.1792
 5676TIP3   OH241222   6.335   5.122  11.505 -0.6866  0.1190 -0.0514
 5676TIP3    H141223   6.342   5.078  11.590 -1.3339 -0.6265 -0.3727
 5676TIP3    H241224   6.341   5.216  11.526  0.2668 -0.0846  0.6927
 5677TIP3   OH241225   0.407   1.101  12.535  0.0968 -0.3187 -0.4353
 5677TIP3    H141226   0.466   1.168  12.500 -0.5811 -0.6467 -2.3503
 5677TIP3    H241227   0.462   1.023  12.545  0.3422 -0.1756 -0.6606
 5678TIP3   OH241228   3.584   0.187  10.994 -0.0399 -0.0458 -0.0216
 5678TIP3    H141229   3.528   0.148  11.061 -0.1189 -0.5636 -0.3804
 5678TIP3    H241230   3.672   0.185  11.031 -0.6096  3.9757  2.0504
 5679TIP3   OH241231   4.151   3.747  12.223  0.1991 -0.0258 -0.4547
 5679TIP3    H141232   4.232   3.701  12.200  0.0021  0.0676 -1.3685
 5679TIP3    H241233   4.126   3.710  12.308  2.7831  2.0382  1.4074
 5680TIP3   OH241234   8.008   8.062  10.825 -0.2885 -0.1040 -0.2318
 5680TIP3    H141235   8.035   8.137  10.878  0.7187  0.0063 -0.8761
 5680TIP3    H241236   8.089   8.031  10.783 -0.6410 -1.6647  0.1553
 5681TIP3   OH241237   2.571   8.373  12.152 -0.1982 -0.3404  0.1681
 5681TIP3    H141238   2.521   8.359  12.071 -0.8170 -0.9761  0.6484
 5681TIP3    H241239   2.598   8.285  12.179 -1.8506 -0.4201  1.7920
 5682TIP3   OH241240   5.044   4.703  12.797 -0.1141 -0.0263  0.0520
 5682TIP3    H141241   4.952   4.685  12.812  0.3702 -0.9585  2.1529
 5682TIP3    H241242   5.054   4.796  12.816 -0.1825 -0.4541  2.4053
 5683TIP3   OH241243   7.701   5.984  11.569  0.4314  0.4749 -0.4922
 5683TIP3    H141244   7.657   5.930  11.636  0.5711  2.1134  0.9994
 5683TIP3    H241245   7.792   5.986  11.596  0.5236  1.0010 -0.8322
 5684TIP3   OH241246   1.432   1.399  12.140  0.3977 -0.2231  0.7049
 5684TIP3    H141247   1.452   1.475  12.195  0.6929  0.5426 -0.4377
 5684TIP3    H241248   1.370   1.347  12.192  0.6173  0.5115  1.7227
 5685TIP3   OH241249   6.850   1.854  10.507  0.2282 -0.1160 -0.0928
 5685TIP3    H141250   6.852   1.822  10.417 -0.9285  0.8765 -0.4889
 5685TIP3    H241251   6.942   1.862  10.532  0.5582 -0.2068 -1.2567
 5686TIP3   OH241252   6.080   3.912  11.501  0.3048  0.0990 -0.0725
 5686TIP3    H141253   6.045   3.828  11.471  0.8472 -0.6555  1.3230
 5686TIP3    H241254   6.036   3.928  11.585  0.9968  0.6635  0.1963
 5687TIP3   OH241255   7.250   5.244  11.896  0.0872  0.4316 -0.4207
 5687TIP3    H141256   7.215   5.308  11.959  3.4846  0.9776  1.1567
 5687TIP3    H241257   7.254   5.162  11.945 -0.3566  0.0123 -1.0733
 5688TIP3   OH241258   2.037   6.219  11.424 -0.3231 -0.8389 -0.1746
 5688TIP3    H141259   2.039   6.186  11.334  0.6754 -0.3354 -0.3492
 5688TIP3    H241260   2.122   6.262  11.436 -1.7254  2.2943 -0.2293
 5689TIP3   OH241261   5.203   7.535  11.687  0.1698 -0.6307 -0.2535
 5689TIP3    H141262   5.295   7.560  11.695 -0.0402  0.1923 -0.3090
 5689TIP3    H241263   5.202   7.441  11.703  0.9485 -0.5561  0.2705
 5690TIP3   OH241264   1.083   7.756  11.436 -0.0039 -0.5721 -0.4871
 5690TIP3    H141265   1.019   7.823  11.411 -0.4562 -0.8308 -0.0468
 5690TIP3    H241266   1.149   7.758  11.367  0.0033  0.3483 -0.4624
 5691TIP3   OH241267   6.027   7.342  11.009  0.0554  0.4568 -0.1292
 5691TIP3    H141268   6.048   7.419  11.062 -2.2109 -0.4744  2.3128
 5691TIP3    H241269   6.087   7.274  11.040  1.2545  0.8525 -1.4652
 5692TIP3   OH241270   2.045   2.167  11.361 -0.0530 -0.1932 -0.0147
 5692TIP3    H141271   2.098   2.154  11.439 -0.4715  0.4681  0.3929
 5692TIP3    H241272   1.955   2.158  11.392 -0.1919 -0.9625 -0.6292
 5693TIP3   OH241273   4.920   7.031  11.515 -0.3484  0.3992  0.1828
 5693TIP3    H141274   4.898   6.991  11.599 -0.2219 -0.2122 -0.0667
 5693TIP3    H241275   4.847   7.006  11.458  0.4659 -0.7923 -0.3846
 5694TIP3   OH241276   6.605   1.751  10.614 -0.2163  0.3584  0.4400
 5694TIP3    H141277   6.680   1.787  10.568  0.9534 -1.8477  0.4596
 5694TIP3    H241278   6.639   1.671  10.656 -1.9966  0.5573  2.4554
 5695TIP3   OH241279   6.598   2.557  11.940  0.2438  0.3106 -0.0119
 5695TIP3    H141280   6.623   2.470  11.908  1.3972  0.1046  1.3536
 5695TIP3    H241281   6.628   2.617  11.872  1.5861 -0.1966  0.0976
 5696TIP3   OH241282   7.328   0.024  11.374 -0.0111  0.3683 -0.4620
 5696TIP3    H141283   7.396   0.036  11.309  1.3520 -2.5461  0.2569
 5696TIP3    H241284   7.246   0.018  11.324  0.9235 -1.1332 -1.9110
 5697TIP3   OH241285   2.373   7.156  10.559 -0.0077 -0.2373  0.3292
 5697TIP3    H141286   2.449   7.101  10.580 -0.4533 -0.7551  0.6057
 5697TIP3    H241287   2.297   7.102  10.581 -0.4963 -0.3536 -1.4987
 5698TIP3   OH241288   5.145   3.285  12.734 -0.0584 -0.9364  0.0103
 5698TIP3    H141289   5.142   3.216  12.801 -3.1251  1.4050  2.6533
 5698TIP3    H241290   5.168   3.364  12.783  2.3142  0.2268 -2.7188
 5699TIP3   OH241291   7.033   5.357  11.487  0.1669  0.1967 -0.7567
 5699TIP3    H141292   7.026   5.390  11.398  1.4817  0.8219 -0.6464
 5699TIP3    H241293   7.066   5.432  11.538  0.5508 -0.4894  0.0273
 5700TIP3   OH241294   4.716   5.700  12.063 -0.1304  0.5519 -0.6421
 5700TIP3    H141295   4.640   5.642  12.069 -0.8835  1.2014 -2.8211
 5700TIP3    H241296   4.783   5.648  12.020  0.1886  0.4363 -0.0228
 5701TIP3   OH241297   7.504   8.189  12.162  0.1489 -0.5860  0.5605
 5701TIP3    H141298   7.536   8.168  12.074 -0.7717  0.2177  0.0154
 5701TIP3    H241299   7.428   8.244  12.147  0.3785  0.1292  1.8858
 5702TIP3   OH241300   4.217   5.280  12.914 -0.4007 -0.3602 -0.0515
 5702TIP3    H141301   4.310   5.305  12.912 -0.5775  0.2869 -1.9259
 5702TIP3    H241302   4.172   5.361  12.940 -0.4832 -0.5718  0.4784
 5703TIP3   OH241303   6.733   3.034  10.591  0.5764  0.5262 -0.6516
 5703TIP3    H141304   6.678   2.982  10.648  2.0136 -0.4636 -0.1181
 5703TIP3    H241305   6.684   3.039  10.508  0.2509 -1.4049 -0.6120
 5704TIP3   OH241306   0.383   5.389  12.425 -0.3043 -0.5775  0.2038
 5704TIP3    H141307   0.341   5.427  12.349 -0.5183  1.6028  1.3441
 5704TIP3    H241308   0.321   5.403  12.497  0.7290 -0.7858  1.1650
 5705TIP3   OH241309   8.269   8.195  12.213  0.4701  0.1160 -0.1943
 5705TIP3    H141310   8.270   8.099  12.213  2.2188  0.0852 -1.0102
 5705TIP3    H241311   8.361   8.219  12.223 -0.1783  1.7730  2.6870
 5706TIP3   OH241312   6.747   5.597  12.157 -0.0753 -0.2433 -0.2826
 5706TIP3    H141313   6.690   5.545  12.101 -0.3750 -1.3624  1.0142
 5706TIP3    H241314   6.806   5.642  12.096  0.4403 -2.3774 -1.4742
 5707TIP3   OH241315   7.820   3.192  12.262  0.0115  0.7945  0.4402
 5707TIP3    H141316   7.841   3.279  12.294 -0.9658  1.1116  0.2517
 5707TIP3    H241317   7.769   3.207  12.182 -0.7032  0.0746  0.7396
 5708TIP3   OH241318   4.526   5.405  11.547  0.0469 -0.3414 -0.3231
 5708TIP3    H141319   4.505   5.381  11.456 -1.1165 -0.5689 -0.0147
 5708TIP3    H241320   4.442   5.401  11.593  0.8689 -1.8273  1.1417
 5709TIP3   OH241321   5.119   7.737  12.029  0.4980  0.0699 -0.3299
 5709TIP3    H141322   5.072   7.784  12.099 -0.4905 -0.0339 -0.9001
 5709TIP3    H241323   5.118   7.798  11.955 -2.2156 -1.3511 -1.6092
 5710TIP3   OH241324   5.759   1.177  12.251 -0.0130 -0.4796  0.0522
 5710TIP3    H141325   5.704   1.199  12.326  0.6379  2.0758 -0.1431
 5710TIP3    H241326   5.698   1.151  12.183 -0.9105  1.0450  0.2418
 5711TIP3   OH241327   7.523   4.161  11.491  0.1070 -0.2739  0.1346
 5711TIP3    H141328   7.476   4.222  11.435 -0.3134  0.0735  0.8434
 5711TIP3    H241329   7.587   4.215  11.537 -0.5881 -0.2615  1.1208
 5712TIP3   OH241330   4.462   0.968  10.865  0.7588  0.0722  0.0150
 5712TIP3    H141331   4.499   1.054  10.883  1.2028  0.4706 -2.4439
 5712TIP3    H241332   4.375   0.985  10.831 -0.3168 -0.6714  2.1968
 5713TIP3   OH241333   7.298   7.353  12.028  0.3232 -0.3295  0.0119
 5713TIP3    H141334   7.364   7.298  11.985 -1.5600 -3.7921  1.1431
 5713TIP3    H241335   7.329   7.361  12.118 -0.2733 -1.1196  0.2964
 5714TIP3   OH241336   7.454   8.067  12.397  0.5274  0.5042 -0.0375
 5714TIP3    H141337   7.534   8.088  12.444  0.2724  1.5660 -0.0424
 5714TIP3    H241338   7.475   8.084  12.305 -0.1566  2.4205  0.1098
 5715TIP3   OH241339   3.278   8.207  12.072 -0.5797  0.2093  0.4498
 5715TIP3    H141340   3.211   8.275  12.065 -0.9532 -0.0972  0.9997
 5715TIP3    H241341   3.253   8.156  12.149  2.3473  2.3555  3.1021
 5716TIP3   OH241342   2.267   4.279  11.269 -0.2492  0.6872 -0.8114
 5716TIP3    H141343   2.262   4.346  11.200 -0.2964  2.2441  0.6408
 5716TIP3    H241344   2.225   4.320  11.345  1.3214 -0.3062  0.6478
 5717TIP3   OH241345   0.888   0.103  11.176 -0.0435 -0.0965  0.4921
 5717TIP3    H141346   0.951   0.139  11.238  0.9209 -1.0469  0.0950
 5717TIP3    H241347   0.935   0.098  11.093 -0.6050 -0.8762  0.2017
 5718TIP3   OH241348   2.221   2.584  12.911  0.1456 -0.0955 -0.6353
 5718TIP3    H141349   2.261   2.549  12.832 -0.8867 -1.2841 -0.6703
 5718TIP3    H241350   2.162   2.653  12.879  0.0820 -0.2502 -0.8516
 5719TIP3   OH241351   7.461   2.559  11.590 -0.2979  0.0092  0.3840
 5719TIP3    H141352   7.487   2.631  11.533 -1.6913  0.6702  0.5281
 5719TIP3    H241353   7.432   2.490  11.530  0.7795 -0.3414  0.2522
 5720TIP3   OH241354   7.317   1.850  12.886  0.3669 -0.3592 -0.2941
 5720TIP3    H141355   7.270   1.827  12.805 -0.3344  0.5125 -0.1562
 5720TIP3    H241356   7.311   1.945  12.890 -2.2213 -0.4897  2.2683
 5721TIP3   OH241357   3.943   1.762  11.624 -0.1428  0.0088 -0.3140
 5721TIP3    H141358   4.016   1.701  11.636  0.9018  1.3091  0.1292
 5721TIP3    H241359   3.973   1.823  11.556 -1.2633 -0.0789 -0.9269
 5722TIP3   OH241360   3.326   0.418  11.064  0.6602  0.1227  0.0729
 5722TIP3    H141361   3.320   0.347  11.000  0.9411 -0.4645  0.6963
 5722TIP3    H241362   3.341   0.375  11.148  0.1882  0.8798  0.5632
 5723TIP3   OH241363   8.389   5.307  11.410  0.3324  0.5885  0.4547
 5723TIP3    H141364   8.382   5.402  11.405 -0.0026  0.5603  0.3940
 5723TIP3    H241365   8.319   5.281  11.471  0.5050  0.3938  0.5709
 5724TIP3   OH241366   3.254   4.903  12.271  0.6899 -0.3094  0.0150
 5724TIP3    H141367   3.222   4.911  12.181  1.5582 -0.9840 -0.3641
 5724TIP3    H241368   3.228   4.985  12.313  1.5304  0.6395 -1.2572
 5725TIP3   OH241369   2.715   2.084  12.932  0.8701  0.2066  0.1597
 5725TIP3    H141370   2.651   2.138  12.886  0.7573  1.1452  1.3518
 5725TIP3    H241371   2.796   2.097  12.883  0.1969 -0.9561 -1.3275
 5726TIP3   OH241372   3.175   1.120  12.470 -0.4483  0.0096 -0.2157
 5726TIP3    H141373   3.233   1.196  12.472 -1.2221  0.6006  0.1953
 5726TIP3    H241374   3.232   1.046  12.489  0.2967  0.5028 -0.5188
 5727TIP3   OH241375   3.575   6.260  11.386  0.5585  0.1393  0.1408
 5727TIP3    H141376   3.635   6.329  11.418  2.0075 -1.0662  0.1378
 5727TIP3    H241377   3.570   6.275  11.292  1.4573 -0.1788  0.0317
 5728TIP3   OH241378   6.464   5.266  12.197  0.4238  0.2262 -0.0154
 5728TIP3    H141379   6.427   5.185  12.163 -0.2187  0.6994 -0.4681
 5728TIP3    H241380   6.399   5.297  12.260  0.7354  0.3154  0.2648
 5729TIP3   OH241381   6.577   1.009  12.906 -0.1139  0.8368 -0.1191
 5729TIP3    H141382   6.654   0.952  12.898  0.6342  1.7184  0.5529
 5729TIP3    H241383   6.518   0.962  12.964 -0.5856 -0.3486 -1.4939
 5730TIP3   OH241384   5.567   2.692  10.562 -0.0524  0.4423 -0.2145
 5730TIP3    H141385   5.580   2.786  10.564  0.3014  0.4008 -0.5094
 5730TIP3    H241386   5.634   2.656  10.620 -0.7401  0.4236  0.5986
 5731TIP3   OH241387   4.951   4.978  11.780 -0.0761 -0.4604 -0.8290
 5731TIP3    H141388   4.932   4.977  11.686 -0.7446  0.3329 -0.7084
 5731TIP3    H241389   4.883   5.033  11.818  0.9222  0.2581 -0.0350
 5732TIP3   OH241390   0.380   6.654  12.150  0.1311 -0.5659 -0.6647
 5732TIP3    H141391   0.426   6.571  12.161  0.2532 -0.8321 -2.7307
 5732TIP3    H241392   0.325   6.641  12.072 -0.0465  1.1973 -0.8764
 5733TIP3   OH241393   5.170   5.313  11.542 -0.5439 -0.3061 -0.1951
 5733TIP3    H141394   5.085   5.356  11.554 -0.8775 -0.7074 -1.0004
 5733TIP3    H241395   5.175   5.296  11.448 -0.2373 -1.6322  0.0328
 5734TIP3   OH241396   4.942   4.808  12.131  0.9408 -0.1890  0.2066
 5734TIP3    H141397   4.935   4.798  12.226 -2.5450  1.3642  0.2747
 5734TIP3    H241398   5.006   4.878  12.119  1.3449 -0.3335  1.4111
 5735TIP3   OH241399   3.340   1.670  10.909 -0.2802  0.7972 -0.8693
 5735TIP3    H141400   3.367   1.728  10.838  0.4050  1.6827  0.0817
 5735TIP3    H241401   3.422   1.640  10.948 -0.6436  0.9094  0.0039
 5736TIP3   OH241402   4.070   1.869  11.407 -0.9156 -0.2570 -0.6132
 5736TIP3    H141403   4.048   1.963  11.407 -0.3011 -0.1107 -0.4866
 5736TIP3    H241404   4.165   1.867  11.413 -1.0068 -0.8853  2.5153
 5737TIP3   OH241405   2.698   0.938  10.621 -0.2418  0.3614 -0.4847
 5737TIP3    H141406   2.604   0.930  10.639 -0.6302  4.9668  0.9125
 5737TIP3    H241407   2.706   0.924  10.527 -1.4876 -4.2567 -0.1311
 5738TIP3   OH241408   3.980   7.963  10.781  0.1967  0.3115  0.0178
 5738TIP3    H141409   3.892   7.988  10.808  0.0538 -1.2841  1.1846
 5738TIP3    H241410   4.035   7.982  10.857  0.5836 -0.1324 -0.1494
 5739TIP3   OH241411   2.805   3.193  11.128 -0.5823 -0.5689  0.5317
 5739TIP3    H141412   2.877   3.248  11.096 -2.0174  0.1030 -1.7755
 5739TIP3    H241413   2.758   3.249  11.190  1.1469 -1.2318  2.5706
 5740TIP3   OH241414   7.906   3.790  12.108  0.4456  0.0713 -0.1877
 5740TIP3    H141415   7.851   3.713  12.091  0.7808 -0.4472  0.9602
 5740TIP3    H241416   7.917   3.790  12.203 -0.3329  2.0913 -0.0514
 5741TIP3   OH241417   2.145   3.358  10.720 -0.9247 -0.2847  0.3827
 5741TIP3    H141418   2.214   3.401  10.770 -2.6967  1.4886  1.4441
 5741TIP3    H241419   2.164   3.381  10.629  0.4114 -0.6610  0.5410
 5742TIP3   OH241420   3.017   1.131  12.066  0.4125 -0.1948 -0.1646
 5742TIP3    H141421   2.979   1.182  12.138  1.0931 -1.1185  0.8780
 5742TIP3    H241422   2.986   1.041  12.082  0.4306 -0.3798 -1.1355
 5743TIP3   OH241423   3.309   3.393  17.932  0.2730 -0.1965  0.7123
 5743TIP3    H141424   3.255   3.440  17.996  0.2158 -0.5412  0.9174
 5743TIP3    H241425   3.264   3.309  17.920 -1.2492  0.8644 -1.8198
 5744TIP3   OH241426   7.797   1.398  12.708 -0.6533  0.2202 -1.0406
 5744TIP3    H141427   7.739   1.400  12.784  0.5552  0.0487 -0.0763
 5744TIP3    H241428   7.864   1.464  12.728  0.0365 -0.2824 -1.6578
 5745TIP3   OH241429   8.407   3.773  11.467 -0.0242 -0.0226  0.2934
 5745TIP3    H141430   8.351   3.850  11.459  2.2138  1.7172  0.6054
 5745TIP3    H241431   8.376   3.714  11.398 -2.1660  0.8479  0.4265
 5746TIP3   OH241432   6.316   0.246  11.140 -0.1118  0.1196  0.7907
 5746TIP3    H141433   6.342   0.337  11.123  1.3768 -0.2128  1.1378
 5746TIP3    H241434   6.382   0.214  11.202 -1.4864 -0.7444  1.8639
 5747TIP3   OH241435   0.105   1.921  11.305  0.6064 -0.5274  0.1326
 5747TIP3    H141436   0.143   2.004  11.276  0.3970  0.5366  2.6228
 5747TIP3    H241437   0.024   1.946  11.350  0.5437 -2.0787  0.9454
 5748TIP3   OH241438   1.937   4.476  10.645  0.3438  0.3123 -0.1573
 5748TIP3    H141439   2.029   4.499  10.636  1.1239 -2.1972  0.5602
 5748TIP3    H241440   1.923   4.409  10.578 -1.3424  1.5030 -1.0799
 5749TIP3   OH241441   3.572   3.554  11.877 -0.1053 -0.6791  0.4232
 5749TIP3    H141442   3.551   3.474  11.829  2.7176 -1.9699  1.1525
 5749TIP3    H241443   3.659   3.579  11.845 -0.4373  1.4676  1.0549
 5750TIP3   OH241444   6.453   8.039  11.619 -0.9377 -0.0382  0.4795
 5750TIP3    H141445   6.522   8.080  11.671 -1.5354  0.9478  0.5318
 5750TIP3    H241446   6.425   7.964  11.671  0.2275 -0.5778  0.3582
 5751TIP3   OH241447   2.967   0.222  10.904 -0.0616 -0.0081 -0.3730
 5751TIP3    H141448   3.004   0.272  10.831 -0.0414  1.0770  0.3646
 5751TIP3    H241449   3.036   0.160  10.929  0.3975  0.4633 -0.4686
 5752TIP3   OH241450   7.383   3.523  12.245  0.2137 -0.4085 -0.5289
 5752TIP3    H141451   7.380   3.575  12.326  0.3041 -2.2766  0.7590
 5752TIP3    H241452   7.319   3.565  12.188 -2.0300 -0.6468  1.6074
 5753TIP3   OH241453   8.046   2.088  10.639  0.1101 -0.4574 -0.5469
 5753TIP3    H141454   8.115   2.153  10.651 -1.0845  1.1573 -1.8751
 5753TIP3    H241455   8.037   2.046  10.724  0.2006  1.9093  0.6930
 5754TIP3   OH241456   5.106   3.003  11.567 -0.1089 -0.5719  0.3763
 5754TIP3    H141457   5.135   3.088  11.535  0.8246 -0.2527  1.9515
 5754TIP3    H241458   5.051   2.967  11.497  0.2202  0.9263 -0.6725
 5755TIP3   OH241459   7.260   6.703  12.786  0.0415 -0.3483  0.2330
 5755TIP3    H141460   7.176   6.746  12.801  0.5631  1.4551 -1.6402
 5755TIP3    H241461   7.247   6.614  12.818 -2.7294 -0.2756 -0.4697
 5756TIP3   OH241462   6.177   7.792  11.568  0.4029  0.2873 -0.3726
 5756TIP3    H141463   6.128   7.732  11.511  0.8371 -0.7973  0.3467
 5756TIP3    H241464   6.268   7.767  11.556  0.5633  0.5924  0.1859
 5757TIP3   OH241465   5.189   6.211  11.084  0.9683  0.1641  0.3787
 5757TIP3    H141466   5.226   6.140  11.136  1.2589 -0.4154 -0.5979
 5757TIP3    H241467   5.163   6.277  11.149 -0.2031 -1.2212  1.3833
 5758TIP3   OH241468   7.152   7.554  11.839 -0.1139  0.2379  0.2409
 5758TIP3    H141469   7.179   7.494  11.908  0.2969  0.5098  0.3270
 5758TIP3    H241470   7.197   7.522  11.761  0.4748  0.6855  0.3822
 5759TIP3   OH241471   2.602   3.661  11.261 -0.1656  0.1835 -0.1728
 5759TIP3    H141472   2.615   3.750  11.227 -1.7405  0.4836 -0.0641
 5759TIP3    H241473   2.566   3.674  11.349  0.1108 -0.5721  0.0609
 5760TIP3   OH241474   4.881   2.123  11.809 -0.5825 -0.6066 -0.6648
 5760TIP3    H141475   4.809   2.064  11.789 -1.4389  0.3136 -0.4084
 5760TIP3    H241476   4.838   2.204  11.837  0.5553 -0.2543  0.1343
 5761TIP3   OH241477   5.051   4.376  12.182 -0.5102  0.2343  0.0061
 5761TIP3    H141478   5.075   4.461  12.145  0.0188  0.8832  1.7386
 5761TIP3    H241479   5.127   4.320  12.164  0.3096  0.9148  1.1918
 5762TIP3   OH241480   4.452   3.848  10.569  0.0143 -0.4009  0.1854
 5762TIP3    H141481   4.491   3.844  10.482  0.4829  1.4073  0.2606
 5762TIP3    H241482   4.427   3.758  10.589 -0.4172 -0.8055 -1.9553
 5763TIP3   OH241483   0.710   0.971  11.944 -0.6394 -0.0420 -0.0303
 5763TIP3    H141484   0.643   1.004  12.004 -1.2365  0.9786 -1.2120
 5763TIP3    H241485   0.681   0.882  11.922 -1.2091  0.1235  0.0396
 5764TIP3   OH241486   4.560   5.451  12.486 -0.3358  0.5991 -0.3845
 5764TIP3    H141487   4.539   5.545  12.484  0.5671  0.8399  0.8890
 5764TIP3    H241488   4.601   5.437  12.571 -0.2003 -0.9109 -0.6774
 5765TIP3   OH241489   1.855   6.410  11.532 -0.1899  0.2931 -0.0174
 5765TIP3    H141490   1.915   6.347  11.492 -0.0377  0.8013 -0.6123
 5765TIP3    H241491   1.768   6.381  11.505 -0.0674  0.8309 -1.0324
 5766TIP3   OH241492   5.621   1.556  12.540  0.0475 -0.2020  0.0031
 5766TIP3    H141493   5.641   1.599  12.623  1.1232 -2.1870  0.8656
 5766TIP3    H241494   5.684   1.592  12.478  1.1258 -0.6747  0.7780
 5767TIP3   OH241495   6.986   2.702  12.357 -0.1766 -0.0355  0.2227
 5767TIP3    H141496   7.003   2.765  12.426  0.6827  0.5071 -0.4638
 5767TIP3    H241497   7.002   2.617  12.398  2.2205  0.3334  0.2417
 5768TIP3   OH241498   5.649   0.971  11.057  0.2619 -0.0526 -0.2938
 5768TIP3    H141499   5.728   1.025  11.049  0.7589 -0.7809 -0.4451
 5768TIP3    H241500   5.595   1.017  11.121  0.0890  1.3062 -1.3551
 5769TIP3   OH241501   6.624   1.518  10.987  0.1614  0.5520 -0.1332
 5769TIP3    H141502   6.595   1.530  11.077 -0.0179 -4.4946  0.7463
 5769TIP3    H241503   6.559   1.566  10.935 -1.5265  1.0942  2.3087
 5770TIP3   OH241504   5.361   3.200  10.865  0.0154 -0.3695 -0.0427
 5770TIP3    H141505   5.409   3.216  10.783  1.3120  1.8572  1.0637
 5770TIP3    H241506   5.428   3.198  10.932 -1.0677 -1.7839  1.0643
 5771TIP3   OH241507   8.447   3.562  12.480  1.2022 -0.3688  0.0068
 5771TIP3    H141508   8.424   3.647  12.517 -0.6824  0.4371 -2.6966
 5771TIP3    H241509   8.525   3.579  12.426  0.2708 -0.0920 -1.2881
 5772TIP3   OH241510   6.946   4.388  12.548 -0.2998  0.7308  0.9685
 5772TIP3    H141511   6.902   4.447  12.487 -2.7700 -0.1379  1.7789
 5772TIP3    H241512   6.974   4.314  12.494 -1.2233  0.6045  0.6479
 5773TIP3   OH241513   4.389   7.631  11.761  1.0008  0.1603 -0.0381
 5773TIP3    H141514   4.370   7.666  11.674 -3.0100 -2.2090 -0.3548
 5773TIP3    H241515   4.434   7.548  11.744 -0.9281 -0.9483 -0.0689
 5774TIP3   OH241516   3.593   1.953  12.973 -0.5006  0.7683 -0.5315
 5774TIP3    H141517   3.598   1.912  12.887 -1.0113  1.2733 -0.8102
 5774TIP3    H241518   3.670   1.921  13.019 -1.8241 -2.0200 -0.0417
 5775TIP3   OH241519   5.797   3.644  11.982  0.1172 -0.6992 -0.2050
 5775TIP3    H141520   5.702   3.657  11.976  0.0762  1.8030  2.8734
 5775TIP3    H241521   5.806   3.558  12.023 -1.1395  0.4170  2.7345
 5776TIP3   OH241522   2.159   1.902  10.791  0.2692 -0.1027  0.2353
 5776TIP3    H141523   2.170   1.987  10.836 -0.3040 -0.3686  0.9029
 5776TIP3    H241524   2.169   1.923  10.698 -0.9241  0.8964  0.3033
 5777TIP3   OH241525   5.002   5.693  10.614  0.8649 -0.4588 -0.3143
 5777TIP3    H141526   4.986   5.750  10.539 -0.5913 -1.1684 -0.5887
 5777TIP3    H241527   5.092   5.711  10.639  1.1572  0.3125 -1.7905
 5778TIP3   OH241528   0.805   1.620  12.415 -0.1548  0.2583 -0.0105
 5778TIP3    H141529   0.867   1.589  12.482 -2.6875 -2.5710  1.2750
 5778TIP3    H241530   0.739   1.668  12.465 -0.2699  1.1836 -1.0215
 5779TIP3   OH241531   3.618   7.966  11.671  1.1352  0.0266  0.4758
 5779TIP3    H141532   3.700   8.000  11.705  0.0302  1.0445  2.2740
 5779TIP3    H241533   3.553   7.988  11.738 -0.3089 -2.3689 -0.0363
 5780TIP3   OH241534   8.141   2.746  10.572 -0.3737 -0.3997 -0.6996
 5780TIP3    H141535   8.115   2.816  10.633  0.6437 -1.6865  1.3308
 5780TIP3    H241536   8.132   2.666  10.623  1.4404 -1.4644 -1.9416
 5781TIP3   OH241537   1.453   0.509  12.142  0.4103  0.2846 -0.4189
 5781TIP3    H141538   1.393   0.506  12.216  1.0124  0.9039  0.1082
 5781TIP3    H241539   1.502   0.427  12.148 -0.2571 -0.1405 -0.7474
 5782TIP3   OH241540   7.532   4.118  12.491 -0.5378 -0.3562  0.3235
 5782TIP3    H141541   7.458   4.120  12.551 -0.5026  1.6544  0.3582
 5782TIP3    H241542   7.492   4.127  12.404 -0.4584 -1.4651  0.1541
 5783TIP3   OH241543   5.688   4.561  11.506 -0.2900  0.0242  0.4241
 5783TIP3    H141544   5.603   4.532  11.538 -0.0193 -0.3867  0.7740
 5783TIP3    H241545   5.697   4.651  11.539 -1.4404  0.8245 -1.2553
 5784TIP3   OH241546   5.939   2.907  10.445  0.3401 -0.1719  0.1268
 5784TIP3    H141547   5.935   2.819  10.408 -0.0276 -0.9334  1.8628
 5784TIP3    H241548   5.862   2.913  10.502  0.4612  1.2131  0.1815
 5785TIP3   OH241549   3.863   6.698  11.202  0.1963  0.3637  0.0946
 5785TIP3    H141550   3.822   6.690  11.116 -2.4493 -1.3898  1.3918
 5785TIP3    H241551   3.927   6.628  11.205  1.5789  1.5245 -1.0233
 5786TIP3   OH241552   0.245   1.348  11.118  0.1169  0.0577 -0.1333
 5786TIP3    H141553   0.236   1.368  11.025  0.7715 -0.8477 -0.3983
 5786TIP3    H241554   0.174   1.286  11.135 -1.1753  1.6135  0.4201
 5787TIP3   OH241555   4.609   6.137  11.743 -0.0751  0.1470  0.2867
 5787TIP3    H141556   4.530   6.083  11.746 -1.3036  1.8993  1.9767
 5787TIP3    H241557   4.671   6.090  11.799 -0.6041 -0.2817  0.5268
 5788TIP3   OH241558   3.341   1.601  12.823  0.5399 -0.6010 -0.8259
 5788TIP3    H141559   3.269   1.563  12.874 -0.1164 -0.3061 -1.5037
 5788TIP3    H241560   3.374   1.528  12.770 -0.2809 -0.4059 -1.6350
 5789TIP3   OH241561   1.842   7.461  11.196 -0.2932  0.0310 -0.2782
 5789TIP3    H141562   1.791   7.404  11.138  0.9277 -0.7048 -0.6659
 5789TIP3    H241563   1.911   7.496  11.140 -0.3160  0.9398  0.2550
 5790TIP3   OH241564   3.888   3.077  10.812 -0.1135 -0.0568  0.1779
 5790TIP3    H141565   3.829   3.087  10.887 -0.5895  0.0433 -0.2051
 5790TIP3    H241566   3.882   2.984  10.789 -0.0071 -0.0770  0.2313
 5791TIP3   OH241567   7.918   3.491  11.511 -0.6531 -0.0546 -0.0145
 5791TIP3    H141568   7.957   3.563  11.561 -0.5736 -1.1689  1.6147
 5791TIP3    H241569   7.921   3.521  11.420 -1.0083  2.1567  0.6402
 5792TIP3   OH241570   2.231   2.975  11.891 -0.5827  0.4141  0.2002
 5792TIP3    H141571   2.299   2.988  11.958  0.7644 -3.3942 -0.1637
 5792TIP3    H241572   2.164   2.924  11.936 -1.0759  0.3493 -0.6060
 5793TIP3   OH241573   4.403   0.745  12.305 -0.0064 -0.3237  0.3860
 5793TIP3    H141574   4.344   0.774  12.374  2.5353  1.3812  2.0166
 5793TIP3    H241575   4.488   0.736  12.348  1.8671  1.4257 -2.5818
 5794TIP3   OH241576   8.321   7.944  10.821  0.5421  0.1005  0.0326
 5794TIP3    H141577   8.383   7.982  10.884  0.8152 -1.3832  0.7130
 5794TIP3    H241578   8.377   7.893  10.762  0.1026 -0.0001 -0.2955
 5795TIP3   OH241579   3.719   2.245  11.467  0.4501  1.0060 -0.7263
 5795TIP3    H141580   3.681   2.277  11.386 -0.9637  1.0518 -0.0807
 5795TIP3    H241581   3.654   2.267  11.534  1.0660 -0.0453  0.2492
 5796TIP3   OH241582   3.751   8.217  12.021  0.2683  0.1709 -0.2229
 5796TIP3    H141583   3.682   8.188  12.080  1.2567  0.5895  1.1935
 5796TIP3    H241584   3.705   8.246  11.942 -1.1046 -0.1984  0.4073
 5797TIP3   OH241585   1.960   3.034  10.521 -0.6757 -0.1029  0.3346
 5797TIP3    H141586   1.976   3.127  10.539 -0.1590  0.0999 -1.0367
 5797TIP3    H241587   2.044   3.001  10.491 -0.8216 -1.0598  0.9671
 5798TIP3   OH241588   7.059   3.339  11.509 -0.0931  0.0764 -0.2618
 5798TIP3    H141589   7.029   3.414  11.458  0.8104 -0.5581 -1.7761
 5798TIP3    H241590   7.099   3.378  11.587  1.3757  1.2632 -1.5529
 5799TIP3   OH241591   5.675   0.375  12.214 -0.0781  0.0090  1.0187
 5799TIP3    H141592   5.584   0.400  12.230 -0.2758 -1.0937  1.7323
 5799TIP3    H241593   5.697   0.317  12.287  0.2557 -2.0828 -0.6364
 5800TIP3   OH241594   6.991   7.715  12.764 -0.1393 -0.0584 -0.8435
 5800TIP3    H141595   6.906   7.701  12.805  1.0592 -1.6208  1.3236
 5800TIP3    H241596   6.985   7.802  12.725 -2.7696 -0.2125 -0.9350
 5801TIP3   OH241597   6.577   3.154  11.976  0.5333  0.1573  0.0640
 5801TIP3    H141598   6.482   3.164  11.971  0.2548 -1.9856  0.1776
 5801TIP3    H241599   6.602   3.119  11.891  1.2846  1.0626 -0.0985
 5802TIP3   OH241600   4.403   5.694  12.622 -0.2127 -0.1228  0.2853
 5802TIP3    H141601   4.343   5.632  12.663 -1.6691  0.6129 -0.6339
 5802TIP3    H241602   4.359   5.720  12.540  1.3911  0.4091 -0.4566
 5803TIP3   OH241603   8.057   2.974  12.484 -0.1075  0.1299  0.2621
 5803TIP3    H141604   8.128   3.037  12.471  0.3689 -0.5456 -0.4847
 5803TIP3    H241605   8.036   2.980  12.577  0.6791  0.5937  0.4148
 5804TIP3   OH241606   7.961   7.699  12.227  0.2202 -0.3841 -0.1765
 5804TIP3    H141607   7.976   7.613  12.188 -1.4897 -0.1430 -1.4678
 5804TIP3    H241608   7.970   7.684  12.321  2.3257 -1.4337 -0.4940
 5805TIP3   OH241609   3.526   7.496  11.124  0.1997  0.3965  0.2652
 5805TIP3    H141610   3.574   7.458  11.050  1.1299  0.7294  0.6777
 5805TIP3    H241611   3.577   7.574  11.147 -1.7349  2.0317 -0.6649
 5806TIP3   OH241612   1.522   8.409  11.066 -0.3893  0.4469  0.3129
 5806TIP3    H141613   1.439   8.441  11.100  0.2615  1.7429  0.7483
 5806TIP3    H241614   1.560   8.360  11.139 -0.1291  1.0835  0.6115
 5807TIP3   OH241615   7.375   3.213  11.534  0.7819 -0.0547  0.3358
 5807TIP3    H141616   7.317   3.266  11.587  1.2284  0.7153  0.0731
 5807TIP3    H241617   7.409   3.147  11.594 -0.2164 -0.4122  0.5291
 5808TIP3   OH241618   5.570   4.229  10.364  0.3603 -0.2181  0.1557
 5808TIP3    H141619   5.614   4.149  10.336 -0.3099 -0.5905  0.1491
 5808TIP3    H241620   5.480   4.202  10.381  0.2806  0.4072  0.7638
 5809TIP3   OH241621   1.425   6.802  10.643  0.3284  0.1551 -0.3140
 5809TIP3    H141622   1.348   6.832  10.690 -0.7047 -2.0881 -0.4261
 5809TIP3    H241623   1.495   6.801  10.708 -0.4835 -0.5808  0.5751
 5810TIP3   OH241624   0.311   6.308  10.757 -0.6529 -0.2646  0.0787
 5810TIP3    H141625   0.315   6.338  10.848 -1.4922 -0.4296  0.1723
 5810TIP3    H241626   0.243   6.242  10.756 -0.5130 -0.4058 -0.6359
 5811TIP3   OH241627   0.648   5.404  11.330 -0.0940 -0.1815  0.1401
 5811TIP3    H141628   0.716   5.351  11.289 -0.4961 -0.9177  0.4039
 5811TIP3    H241629   0.637   5.479  11.272 -0.0748 -0.7861 -0.6652
 5812TIP3   OH241630   6.018   2.385  11.889  0.0358 -0.1721 -0.1543
 5812TIP3    H141631   6.073   2.407  11.815 -0.3548 -0.5196 -0.5509
 5812TIP3    H241632   6.075   2.336  11.948  0.2948 -0.0559 -0.3051
 5813TIP3   OH241633   6.762   4.221  11.836  0.4761 -0.1972  0.3868
 5813TIP3    H141634   6.692   4.155  11.839  0.7458 -0.4807  0.5312
 5813TIP3    H241635   6.717   4.304  11.854  0.5126 -0.6588  3.0553
 5814TIP3   OH241636   5.577   3.857  11.124  0.2934 -0.1218  0.1819
 5814TIP3    H141637   5.630   3.934  11.104  0.6306 -0.5054 -0.4397
 5814TIP3    H241638   5.486   3.889  11.120  0.3854  0.0349 -1.0847
 5815TIP3   OH241639   4.203   1.115  11.019 -0.4115  0.0160  0.3411
 5815TIP3    H141640   4.204   1.153  10.931 -3.3565 -0.7064 -0.1283
 5815TIP3    H241641   4.145   1.174  11.069 -0.0059 -0.4390  1.3793
 5816TIP3   OH241642   7.077   0.782  11.818  0.2676  0.5459 -0.2523
 5816TIP3    H141643   7.116   0.841  11.882  0.4375 -1.7498  1.9222
 5816TIP3    H241644   7.145   0.769  11.752  1.4754  0.2845  0.9886
 5817TIP3   OH241645   3.785   2.840  11.697 -0.0948 -0.6694  0.4270
 5817TIP3    H141646   3.744   2.913  11.651 -0.3782 -0.0021  1.6932
 5817TIP3    H241647   3.805   2.776  11.628 -1.6470 -0.2599 -0.4501
 5818TIP3   OH241648   2.099   7.226  11.139 -0.0069  0.4517  0.1806
 5818TIP3    H141649   2.164   7.159  11.116 -0.6010 -0.4718  1.0833
 5818TIP3    H241650   2.023   7.175  11.168  0.0415  1.5313  2.3293
 5819TIP3   OH241651   1.851   5.424  12.340  0.2063 -0.1079 -0.3309
 5819TIP3    H141652   1.909   5.359  12.379  1.4428  1.5992  0.8346
 5819TIP3    H241653   1.868   5.419  12.246  1.5584 -0.3081 -0.0943
 5820TIP3   OH241654   6.917   1.683  11.377 -0.1015  0.0124  0.0566
 5820TIP3    H141655   6.822   1.669  11.381 -0.2099  0.6174 -0.1368
 5820TIP3    H241656   6.937   1.682  11.283  0.0442  0.1097  0.0860
 5821TIP3   OH241657   0.434   3.959  11.004  0.1612  0.1834 -0.0364
 5821TIP3    H141658   0.427   3.888  11.068 -0.8080  1.5130  1.4302
 5821TIP3    H241659   0.480   4.029  11.051  2.6609  0.0123 -1.9828
 5822TIP3   OH241660   2.744   5.429  11.387  0.4785 -0.4786 -0.0697
 5822TIP3    H141661   2.826   5.383  11.408  0.0010 -1.3880 -0.1195
 5822TIP3    H241662   2.717   5.391  11.303 -0.7197 -1.2448  0.6301
 5823TIP3   OH241663   4.701   0.473  11.610 -0.1212  0.2228  0.5577
 5823TIP3    H141664   4.693   0.567  11.629  2.6180  0.7143 -0.3247
 5823TIP3    H241665   4.709   0.469  11.515  1.9779 -0.6482  0.7310
 5824TIP3   OH241666   4.954   6.920  10.612 -0.1161 -0.3619  0.0403
 5824TIP3    H141667   4.896   6.857  10.654 -0.1700 -0.5642 -0.3315
 5824TIP3    H241668   4.903   6.955  10.539  0.7610 -1.7198 -1.2863
 5825TIP3   OH241669   8.327   4.727  11.883  0.1809  0.1227 -0.0081
 5825TIP3    H141670   8.416   4.738  11.915 -0.4071  4.8220  0.6746
 5825TIP3    H241671   8.277   4.697  11.959  0.6550  0.6069  0.4964
 5826TIP3   OH241672   2.780   0.295  11.313  0.5359  0.6826 -0.4046
 5826TIP3    H141673   2.741   0.378  11.287  1.8967  1.1040 -1.1605
 5826TIP3    H241674   2.846   0.318  11.378  0.1488  0.0509  0.2416
 5827TIP3   OH241675   1.924   7.489  12.219 -0.4426  0.1856  0.2895
 5827TIP3    H141676   1.887   7.546  12.287 -2.5945 -1.2442  0.4264
 5827TIP3    H241677   1.893   7.526  12.137 -0.7987 -0.0619  0.3090
 5828TIP3   OH241678   0.952   6.493  11.666  0.1493 -0.4985  0.0856
 5828TIP3    H141679   0.936   6.422  11.604  0.3025 -0.0697 -0.4539
 5828TIP3    H241680   1.042   6.520  11.649 -0.2601  0.5521 -0.4803
 5829TIP3   OH241681   1.475   3.592  12.658  0.7513  0.3053 -0.3792
 5829TIP3    H141682   1.492   3.536  12.734 -0.7028  0.9575  0.4613
 5829TIP3    H241683   1.491   3.535  12.583  1.2741 -0.6389  0.4262
 5830TIP3   OH241684   5.708   1.977  11.475  0.3318  0.3633 -0.8327
 5830TIP3    H141685   5.679   2.062  11.440  0.4510  0.3645 -0.9319
 5830TIP3    H241686   5.753   1.999  11.556  2.2029  0.6196 -1.8789
 5831TIP3   OH241687   5.601   3.215  12.240 -0.2461 -0.1596 -0.0443
 5831TIP3    H141688   5.645   3.131  12.226  0.1898  0.1978 -0.9066
 5831TIP3    H241689   5.508   3.195  12.235 -0.1341 -0.5287 -0.6372
 5832TIP3   OH241690   1.418   1.632  12.506 -1.0844  0.1945 -0.0913
 5832TIP3    H141691   1.392   1.722  12.487 -1.9367  0.2050  1.0330
 5832TIP3    H241692   1.382   1.614  12.593  0.3509 -0.7362  0.3516
 5833TIP3   OH241693   6.847   3.252  11.968  0.3004 -0.3010 -0.6308
 5833TIP3    H141694   6.754   3.229  11.972 -0.2134  1.6214 -0.3114
 5833TIP3    H241695   6.865   3.262  11.875  0.3012 -1.0477 -0.7177
 5834TIP3   OH241696   6.557   3.002  10.380 -0.3358  0.4780  0.0861
 5834TIP3    H141697   6.473   3.046  10.395 -1.1654 -0.7657 -0.7588
 5834TIP3    H241698   6.586   3.033  10.295 -0.1227  0.6105  0.2053
 5835TIP3   OH241699   5.569   4.735  11.045 -0.4241  0.1573  0.0123
 5835TIP3    H141700   5.477   4.743  11.070 -0.5982  1.9104 -1.0445
 5835TIP3    H241701   5.566   4.708  10.953  0.1690 -1.8005  0.5177
 5836TIP3   OH241702   7.247   7.745  10.737  0.0020  0.0073 -0.7788
 5836TIP3    H141703   7.157   7.715  10.746  0.3071 -0.7904 -0.2623
 5836TIP3    H241704   7.245   7.805  10.663 -0.9077 -0.1952 -0.9306
 5837TIP3   OH241705   3.889   6.122  12.172 -0.3463 -0.1700  0.0377
 5837TIP3    H141706   3.797   6.108  12.195 -0.2675  0.9456  1.1574
 5837TIP3    H241707   3.902   6.217  12.179  0.4284 -0.0716 -2.0019
 5838TIP3   OH241708   5.703   0.685  11.167 -0.3828  0.2730  0.1990
 5838TIP3    H141709   5.615   0.678  11.128 -0.4767 -1.1815  0.5852
 5838TIP3    H241710   5.698   0.630  11.245  0.2895  1.8357  1.3911
 5839TIP3   OH241711   3.309   2.112  11.635 -0.4304 -0.2619 -0.2319
 5839TIP3    H141712   3.337   2.022  11.654 -1.3878 -0.5735 -0.2654
 5839TIP3    H241713   3.325   2.123  11.541  0.3836 -0.1358 -0.0867
 5840TIP3   OH241714   2.298   4.646  12.298 -0.1522 -0.1554 -0.6669
 5840TIP3    H141715   2.215   4.690  12.280  0.6773  1.7531 -0.0953
 5840TIP3    H241716   2.281   4.592  12.374 -0.9581 -0.0611 -0.7735
 5841TIP3   OH241717   1.615   4.095  11.404 -0.0864 -0.7875 -0.0944
 5841TIP3    H141718   1.643   4.185  11.415 -0.3542 -0.9579  2.4480
 5841TIP3    H241719   1.590   4.066  11.491 -3.9238 -2.0737 -1.4255
 5842TIP3   OH241720   7.348   2.046  11.152 -0.4948  1.0030  0.5233
 5842TIP3    H141721   7.315   2.004  11.231 -0.9372  0.0627 -0.1408
 5842TIP3    H241722   7.432   2.004  11.135 -0.8967  0.4262 -0.0918
 5843TIP3   OH241723   6.413   7.248  10.931  0.1489 -0.0914 -0.0918
 5843TIP3    H141724   6.371   7.215  11.011  2.3365 -0.1480  1.1409
 5843TIP3    H241725   6.375   7.334  10.917  0.8376  0.6264  2.0138
 5844TIP3   OH241726   6.499   4.535  12.041  0.2248  0.1467  0.3466
 5844TIP3    H141727   6.420   4.511  11.993  0.5894 -0.6554  0.1534
 5844TIP3    H241728   6.531   4.614  11.997  1.3063 -1.2950 -1.6198
 5845TIP3   OH241729   0.507   6.472  11.616  0.3987 -0.0758  0.0354
 5845TIP3    H141730   0.541   6.394  11.660 -0.9018  0.0783  1.3967
 5845TIP3    H241731   0.560   6.480  11.536  0.9427 -1.9910  0.1632
 5846TIP3   OH241732   1.758   2.193  11.376  0.0345  0.5565 -0.1570
 5846TIP3    H141733   1.740   2.214  11.284  0.9203  0.8447 -0.2724
 5846TIP3    H241734   1.718   2.107  11.389 -0.1501  0.5433 -0.7931
 5847TIP3   OH241735   6.328   4.711  12.177 -0.1500 -0.8015 -0.0057
 5847TIP3    H141736   6.283   4.674  12.253 -1.6836  0.2396 -0.3718
 5847TIP3    H241737   6.385   4.640  12.146  1.1408 -1.0139  2.5465
 5848TIP3   OH241738   5.662   0.212  11.266 -0.2131 -0.1263  0.4022
 5848TIP3    H141739   5.666   0.120  11.291 -0.4503 -0.6700 -1.4682
 5848TIP3    H241740   5.609   0.253  11.336 -1.6873 -1.7528  0.3155
 5849TIP3   OH241741   0.331   5.155  11.613  0.1921  0.0972  0.1568
 5849TIP3    H141742   0.336   5.235  11.560  0.2969 -0.6905 -1.0495
 5849TIP3    H241743   0.421   5.124  11.618  0.0292 -0.4418 -0.1690
 5850TIP3   OH241744   0.332   6.435  11.004 -0.2087 -0.1357  0.3062
 5850TIP3    H141745   0.285   6.442  11.087 -0.2886 -0.6681  0.3124
 5850TIP3    H241746   0.346   6.525  10.976  0.6845  0.0934  1.3943
 5851TIP3   OH241747   8.323   5.118  11.086 -0.0951 -0.3650 -0.3390
 5851TIP3    H141748   8.227   5.121  11.091 -0.1198 -1.2449 -0.2240
 5851TIP3    H241749   8.345   5.025  11.086  0.6888 -0.2128 -1.9084
 5852TIP3   OH241750   5.917   4.253  10.415  0.0800  0.6986 -0.1139
 5852TIP3    H141751   5.863   4.191  10.366 -1.3472  1.2415  0.6957
 5852TIP3    H241752   5.973   4.198  10.470 -0.9605  0.1041  0.3861
 5853TIP3   OH241753   3.779   4.574  12.906  0.0153 -0.1516 -0.1549
 5853TIP3    H141754   3.773   4.660  12.864 -1.0361 -0.6360 -1.0393
 5853TIP3    H241755   3.705   4.572  12.967 -1.6461 -1.3750 -2.0415
 5854TIP3   OH241756   2.627   7.026  12.276 -0.1735  0.0417 -0.3075
 5854TIP3    H141757   2.540   7.049  12.244 -0.2218  0.4976  0.1431
 5854TIP3    H241758   2.637   7.075  12.357  0.0767 -0.8501  0.2103
 5855TIP3   OH241759   6.198   3.089  10.697 -0.1769 -0.0348  0.4595
 5855TIP3    H141760   6.180   2.999  10.670  0.5951  0.4310 -1.8005
 5855TIP3    H241761   6.136   3.106  10.768 -0.1491 -2.4167  1.1327
 5856TIP3   OH241762   2.964   6.039  12.147  0.3789  0.1539  0.3936
 5856TIP3    H141763   2.936   6.056  12.057  0.7463  0.1928  0.2821
 5856TIP3    H241764   2.908   6.096  12.200 -0.5489 -0.6374  0.2811
 5857TIP3   OH241765   0.453   7.122  10.742  0.3894 -0.1975 -0.1214
 5857TIP3    H141766   0.385   7.173  10.698  0.8311 -0.1409 -0.7681
 5857TIP3    H241767   0.523   7.116  10.677  0.8364 -0.5935  0.3885
 5858TIP3   OH241768   2.340   2.938  10.691 -0.1549 -0.1686  0.0965
 5858TIP3    H141769   2.421   2.887  10.686 -0.3072 -0.4013 -0.0404
 5858TIP3    H241770   2.357   3.004  10.758  0.3168  0.0833 -0.2676
 5859TIP3   OH241771   5.554   7.064  10.988  0.2031  0.6835 -0.8086
 5859TIP3    H141772   5.498   7.127  10.943 -0.0071  0.2487 -1.1567
 5859TIP3    H241773   5.545   7.086  11.081 -2.4497 -0.8827 -0.6043
 5860TIP3   OH241774   4.999   8.063  11.516  0.6105 -0.1898 -0.2540
 5860TIP3    H141775   4.909   8.043  11.542  0.7244  0.2085  0.4700
 5860TIP3    H241776   5.052   7.995  11.558  0.6343 -0.5332 -0.8285
 5861TIP3   OH241777   4.373   4.850  11.242  0.1861 -0.0454  0.1790
 5861TIP3    H141778   4.387   4.941  11.214  0.3160 -0.4241 -1.0633
 5861TIP3    H241779   4.379   4.853  11.337  2.0823  0.9476  0.0836
 5862TIP3   OH241780   1.956   2.541  10.261 -0.1693  0.7309 -0.5841
 5862TIP3    H141781   1.973   2.581  10.347 -1.3806  2.0198 -0.9069
 5862TIP3    H241782   1.888   2.475  10.279  1.3006 -0.7436 -0.1797
 5863TIP3   OH241783   6.371   4.840  10.447  0.2142  0.1423  0.9296
 5863TIP3    H141784   6.458   4.876  10.465  0.7842 -0.3162 -0.6653
 5863TIP3    H241785   6.325   4.910  10.400 -0.6833  0.7684  2.6830
 5864TIP3   OH241786   3.780   7.095  12.443  0.2768  0.1223  0.2278
 5864TIP3    H141787   3.795   7.188  12.427 -1.6476  0.4876  0.3067
 5864TIP3    H241788   3.684   7.087  12.450  0.3613 -1.9679 -0.4012
 5865TIP3   OH241789   0.202   2.603  12.047  0.1952  0.7393 -0.3495
 5865TIP3    H141790   0.270   2.545  12.082  0.6744  0.2107 -2.0716
 5865TIP3    H241791   0.229   2.691  12.074 -0.4101  0.2468  2.0856
 5866TIP3   OH241792   1.362   6.096  10.678 -0.2768  0.3566 -0.5673
 5866TIP3    H141793   1.288   6.135  10.631 -1.2398  0.4188  0.9368
 5866TIP3    H241794   1.438   6.146  10.648 -1.5281  4.3120  2.0245
 5867TIP3   OH241795   2.603   3.483  12.414  0.0325  0.2281  0.4777
 5867TIP3    H141796   2.588   3.522  12.500 -1.9050  2.3872 -0.7369
 5867TIP3    H241797   2.635   3.555  12.360  0.6131 -0.9338 -0.7947
 5868TIP3   OH241798   6.158   8.079  11.620  0.1040 -0.4888  0.1126
 5868TIP3    H141799   6.209   8.155  11.651  0.7276 -1.1991  0.8951
 5868TIP3    H241800   6.221   8.007  11.621 -0.6201 -1.1312 -0.1155
 5869TIP3   OH241801   2.082   5.991  12.526 -0.5352  0.0362  0.0846
 5869TIP3    H141802   2.098   6.077  12.487  0.6709  0.1175  0.6940
 5869TIP3    H241803   2.105   6.002  12.618 -1.0967 -0.7535  0.3312
 5870TIP3   OH241804   6.922   2.853  11.776 -0.3536  0.5959  0.0983
 5870TIP3    H141805   6.995   2.790  11.783 -1.1548 -0.5351 -1.2885
 5870TIP3    H241806   6.895   2.868  11.867  2.2391  1.8669  0.7530
 5871TIP3   OH241807   5.483   0.690  11.599  0.0380 -0.6739  0.1007
 5871TIP3    H141808   5.407   0.653  11.644  0.4548  1.0148  2.3822
 5871TIP3    H241809   5.446   0.738  11.524 -0.8303 -2.1808 -0.4836
 5872TIP3   OH241810   5.963   0.173  11.885 -0.2787  0.1994  0.0233
 5872TIP3    H141811   6.019   0.096  11.886 -0.2875  0.1674 -0.7808
 5872TIP3    H241812   5.919   0.169  11.800 -1.2343  0.4169  0.4997
 5873TIP3   OH241813   3.819   4.884  11.894 -0.2425  0.1535  0.3950
 5873TIP3    H141814   3.863   4.933  11.824 -0.3756 -0.9234 -0.4656
 5873TIP3    H241815   3.860   4.916  11.975 -0.1720  1.5142 -0.1475
 5874TIP3   OH241816   2.313   0.047  10.843 -0.1708 -0.4723 -0.7587
 5874TIP3    H141817   2.239   0.020  10.896 -0.8436  1.3939 -0.6575
 5874TIP3    H241818   2.306  -0.004  10.762 -1.8993  0.0443 -0.9663
 5875TIP3   OH241819   1.298   7.388  11.360 -0.1453 -0.4301 -0.0393
 5875TIP3    H141820   1.311   7.391  11.266  2.3142 -0.6398  0.2182
 5875TIP3    H241821   1.371   7.439  11.396 -0.3996 -1.2443  1.7499
 5876TIP3   OH241822   7.058   7.959  10.989  0.3929  0.0998 -0.3346
 5876TIP3    H141823   7.083   7.892  11.053 -0.9278 -2.0318 -1.9256
 5876TIP3    H241824   7.112   7.941  10.913  0.6832  1.4828 -0.4784
 5877TIP3   OH241825   0.370   0.633  12.371 -0.0169 -0.3485  0.0750
 5877TIP3    H141826   0.422   0.554  12.356 -0.4139 -0.5283 -0.3864
 5877TIP3    H241827   0.280   0.605  12.360 -0.1326  0.3201 -0.8147
 5878TIP3   OH241828   5.628   8.403  11.397  0.5782  0.0980  0.7038
 5878TIP3    H141829   5.542   8.391  11.437  0.6721 -0.7443  0.6660
 5878TIP3    H241830   5.649   8.318  11.358  0.3778  0.9177 -1.3562
 5879TIP3   OH241831   5.835   7.072  12.380  0.0338  0.0086  0.1006
 5879TIP3    H141832   5.930   7.071  12.370 -0.0184  2.0029 -1.2094
 5879TIP3    H241833   5.821   7.066  12.475  1.5313  0.8515  0.4142
 5880TIP3   OH241834   6.784   3.415  11.088 -0.4191 -0.2653  0.4031
 5880TIP3    H141835   6.784   3.488  11.150 -1.7067 -0.9531  1.2546
 5880TIP3    H241836   6.691   3.400  11.069 -0.0599  0.2716 -2.1327
 5881TIP3   OH241837   7.875   4.560  11.510  0.6313 -0.5320 -0.4879
 5881TIP3    H141838   7.961   4.555  11.552  0.1503 -0.9080  0.5090
 5881TIP3    H241839   7.868   4.478  11.461 -0.4265 -2.1592  2.1064
 5882TIP3   OH241840   7.027   0.325  12.062 -0.4885  0.3853 -0.3947
 5882TIP3    H141841   7.051   0.296  11.974 -0.1824  2.1460 -0.9287
 5882TIP3    H241842   6.987   0.249  12.102  0.3013 -0.7671 -1.6986
 5883TIP3   OH241843   3.158   1.129  10.659  0.3408  0.0166 -0.3132
 5883TIP3    H141844   3.063   1.129  10.644  0.4689 -0.4123 -1.2037
 5883TIP3    H241845   3.170   1.076  10.737 -0.2059  0.6788  0.2354
 5884TIP3   OH241846   1.371   3.366  11.691 -0.2872 -0.0598 -0.0867
 5884TIP3    H141847   1.295   3.334  11.642  0.3023  1.7065 -2.3107
 5884TIP3    H241848   1.333   3.410  11.767 -1.8221  2.9667 -2.3712
 5885TIP3   OH241849   0.064   3.908  13.047 -0.1144 -0.5633 -0.2853
 5885TIP3    H141850  -0.014   3.916  13.102 -0.9184 -1.4285 -1.2729
 5885TIP3    H241851   0.031   3.906  12.958  0.6889 -4.1131 -0.6557
 5886TIP3   OH241852   8.347   3.448  11.918  0.5535 -0.3139 -0.1996
 5886TIP3    H141853   8.342   3.524  11.859 -1.1718  0.0075  0.3187
 5886TIP3    H241854   8.405   3.387  11.873 -0.0241  0.2870 -1.8372
 5887TIP3   OH241855   2.258   6.190  10.467 -0.5020  0.1452  0.3257
 5887TIP3    H141856   2.304   6.263  10.426  1.3350  0.4534  2.6827
 5887TIP3    H241857   2.173   6.226  10.491 -1.1189  0.3156 -1.8971
 5888TIP3   OH241858   1.062   6.391  10.452 -0.4520  0.8664  0.2577
 5888TIP3    H141859   1.061   6.300  10.422  0.4444  1.1281 -0.6229
 5888TIP3    H241860   0.993   6.395  10.519 -0.6561 -0.3965  0.1492
 5889TIP3   OH241861   7.181   7.812  11.207 -1.0779  0.5519  0.0112
 5889TIP3    H141862   7.096   7.807  11.249 -0.5443 -1.0484  0.9891
 5889TIP3    H241863   7.240   7.848  11.274 -0.7323  0.4527 -0.2337
 5890TIP3   OH241864   3.286   1.916  11.236 -0.4394 -0.1843 -0.8869
 5890TIP3    H141865   3.271   1.824  11.215 -0.3750 -0.7962  1.4586
 5890TIP3    H241866   3.206   1.960  11.207 -0.7690 -1.0788 -1.3902
 5891TIP3   OH241867   4.980   3.327  11.965  0.1277  0.1997  0.5079
 5891TIP3    H141868   4.887   3.327  11.987  0.1957 -1.5514  0.9631
 5891TIP3    H241869   5.022   3.283  12.039  1.0267 -1.0222 -0.6754
 5892TIP3   OH241870   3.471   3.315  11.772 -0.7852  0.0221 -0.2600
 5892TIP3    H141871   3.398   3.268  11.730 -0.1291 -1.6442  0.3991
 5892TIP3    H241872   3.469   3.287  11.863 -0.2372  1.1633  0.1309
 5893TIP3   OH241873   7.165   1.639  11.514  0.6445 -0.1866  0.1381
 5893TIP3    H141874   7.114   1.653  11.434 -0.9902  0.2565  1.2265
 5893TIP3    H241875   7.112   1.676  11.584  1.8616 -0.9281  1.5106
 5894TIP3   OH241876   4.392   7.104  10.674 -0.7642  0.4780  0.0925
 5894TIP3    H141877   4.348   7.177  10.631 -2.4285  0.7365  2.0631
 5894TIP3    H241878   4.325   7.036  10.680 -0.6642  0.5093  2.3118
 5895TIP3   OH241879   6.231   5.429  12.280 -0.4071 -0.3776 -0.2071
 5895TIP3    H141880   6.151   5.378  12.272 -0.7539 -0.1223  1.2660
 5895TIP3    H241881   6.206   5.518  12.253 -0.7654 -0.1938  0.6829
 5896TIP3   OH241882   7.603   5.400  11.471  0.7059 -0.2041 -0.3330
 5896TIP3    H141883   7.638   5.426  11.556  2.2173  0.3836 -1.1107
 5896TIP3    H241884   7.511   5.380  11.489  0.8208  0.5608  1.3002
 5897TIP3   OH241885   4.067   0.407  11.278 -0.1037 -0.8301 -0.0489
 5897TIP3    H141886   4.137   0.459  11.239 -1.0655  0.4411 -0.1463
 5897TIP3    H241887   4.065   0.435  11.370 -2.2528  1.2645 -0.6334
 5898TIP3   OH241888   4.272   2.751  11.250  0.0913 -0.5138 -0.2682
 5898TIP3    H141889   4.342   2.733  11.312  0.2173 -0.3067 -0.3488
 5898TIP3    H241890   4.303   2.828  11.201 -0.4914  0.0044  0.1630
 5899TIP3   OH241891   5.322   3.505  12.745 -0.0890  0.5621  0.1542
 5899TIP3    H141892   5.416   3.518  12.733 -0.2058  0.9880 -0.2998
 5899TIP3    H241893   5.291   3.471  12.661 -0.2568 -0.0877  0.4673
 5900TIP3   OH241894   6.302   5.846  10.760  0.4454 -0.0513 -0.1237
 5900TIP3    H141895   6.333   5.755  10.760 -1.7614 -0.9032 -2.1173
 5900TIP3    H241896   6.217   5.841  10.804  0.2831  1.0454 -0.3003
 5901TIP3   OH241897   5.420   8.234  11.023 -0.4636 -0.4363  0.0035
 5901TIP3    H141898   5.414   8.327  11.003  2.4260 -0.1009  0.4007
 5901TIP3    H241899   5.483   8.200  10.960 -1.2123 -2.0964  0.0920
 5902TIP3   OH241900   0.898   0.221  12.126 -0.4629  0.6270 -0.2050
 5902TIP3    H141901   0.898   0.134  12.086 -0.1796  1.4684 -2.1689
 5902TIP3    H241902   0.805   0.245  12.130 -0.4582  0.9166 -1.3449
 5903TIP3   OH241903   3.231   4.244  12.347 -0.1612  0.2047  0.1677
 5903TIP3    H141904   3.280   4.324  12.366 -0.7494  0.7062 -0.3801
 5903TIP3    H241905   3.203   4.213  12.433  1.5004 -0.3692  0.5467
 5904TIP3   OH241906   4.992   8.135  11.897 -0.2101 -0.0938 -0.5707
 5904TIP3    H141907   4.968   8.134  11.989 -1.6624 -0.3416 -0.9218
 5904TIP3    H241908   4.986   8.043  11.870  0.7970 -0.1111 -0.7860
 5905TIP3   OH241909   0.666   1.724  12.037  0.3815  0.6523  0.4975
 5905TIP3    H141910   0.671   1.762  12.125  0.0472  1.4319  0.1823
 5905TIP3    H241911   0.573   1.727  12.015  0.3885 -0.0786  0.3472
 5906TIP3   OH241912   4.064   8.331  11.978  0.1111  0.7225  0.3437
 5906TIP3    H141913   4.019   8.257  11.936 -1.5629  0.5258  2.3184
 5906TIP3    H241914   4.011   8.408  11.954  0.0042  0.8190  0.8809
 5907TIP3   OH241915   7.991   0.464  11.650 -0.3085 -0.4214  0.0179
 5907TIP3    H141916   8.087   0.470  11.652 -0.1435 -2.2580 -0.4152
 5907TIP3    H241917   7.961   0.536  11.704  1.4204 -1.3679  2.4153
 5908TIP3   OH241918   6.175   3.564  10.664  0.2254  1.1097 -0.1649
 5908TIP3    H141919   6.216   3.509  10.598 -1.3785  0.9210 -1.0502
 5908TIP3    H241920   6.190   3.654  10.632 -0.9972  1.0040 -1.1041
 5909TIP3   OH241921   2.333   6.625  11.804 -0.2872 -0.0802 -0.3637
 5909TIP3    H141922   2.396   6.621  11.877  0.4342 -0.4015 -0.9895
 5909TIP3    H241923   2.348   6.543  11.756 -0.0509  0.5885 -1.4459
 5910TIP3   OH241924   5.181   4.956  12.853 -0.0450 -0.2217  0.1613
 5910TIP3    H141925   5.270   4.923  12.863  0.3788  1.0876  0.9785
 5910TIP3    H241926   5.175   4.986  12.763 -0.0244 -1.2866 -0.2090
 5911TIP3   OH241927   7.476   0.483  11.012  0.1394 -0.3333  0.0842
 5911TIP3    H141928   7.402   0.535  11.043  0.3321 -0.7743  1.3243
 5911TIP3    H241929   7.504   0.527  10.931 -1.2796  0.0058 -0.2461
 5912TIP3   OH241930   4.783   1.679  12.358 -0.1613 -0.1026 -0.6424
 5912TIP3    H141931   4.804   1.714  12.444 -0.2592  0.6257 -0.9051
 5912TIP3    H241932   4.726   1.746  12.318  1.4314  0.5254 -1.9946
 5913TIP3   OH241933   2.336   6.735  11.140  0.3220 -0.1638 -0.2258
 5913TIP3    H141934   2.276   6.692  11.201  1.8033 -3.1315 -0.7143
 5913TIP3    H241935   2.419   6.741  11.188  1.5707 -2.7159 -1.8364
 5914TIP3   OH241936   8.317   7.866  12.012 -0.0984  0.1215  0.1590
 5914TIP3    H141937   8.309   7.919  12.091 -1.5275  2.4494 -1.4046
 5914TIP3    H241938   8.385   7.909  11.961  1.5522 -1.9650  0.4858
 5915TIP3   OH241939   2.740   4.113  10.550 -0.1293 -0.5474  0.1378
 5915TIP3    H141940   2.670   4.061  10.590 -0.7495  0.0468 -0.1586
 5915TIP3    H241941   2.720   4.203  10.573 -0.2913 -0.2241 -1.1810
 5916TIP3   OH241942   1.054   3.115  11.226 -0.1150  0.3820  0.1244
 5916TIP3    H141943   1.132   3.067  11.198 -0.7931 -0.9390  0.4290
 5916TIP3    H241944   1.074   3.207  11.207  0.9940 -0.0683 -1.0136
 5917TIP3   OH241945   0.821   1.937  11.946 -0.0847  0.0480  0.3986
 5917TIP3    H141946   0.820   1.841  11.944 -0.5969 -0.0058  1.8797
 5917TIP3    H241947   0.766   1.963  11.872 -0.3088 -0.8196  0.2490
 5918TIP3   OH241948   8.034   5.486  11.409 -0.8035 -0.2701 -0.6231
 5918TIP3    H141949   7.999   5.399  11.392  0.1099 -0.4563 -1.6708
 5918TIP3    H241950   8.108   5.471  11.468 -1.1445 -0.1035 -0.1433
 5919TIP3   OH241951   7.658   5.927  12.584 -0.3809  0.2054  0.0983
 5919TIP3    H141952   7.566   5.941  12.562 -0.3134  0.4193 -0.0454
 5919TIP3    H241953   7.663   5.834  12.608 -0.4964  0.0180 -0.5938
 5920TIP3   OH241954   4.016   8.078  12.574 -0.0993 -0.5575  0.0537
 5920TIP3    H141955   4.101   8.097  12.615  0.4421 -1.8984 -0.3848
 5920TIP3    H241956   3.969   8.161  12.577  0.2847 -0.3347  2.4953
 5921TIP3   OH241957   5.295   5.804  12.404  0.5274  0.1586 -0.5315
 5921TIP3    H141958   5.345   5.729  12.369 -0.2161 -0.0391 -1.2040
 5921TIP3    H241959   5.349   5.880  12.381  1.3174 -0.1593  0.2025
 5922TIP3   OH241960   7.944   3.491  11.996  0.3643  0.2456  0.0975
 5922TIP3    H141961   7.863   3.457  12.032  1.4992 -1.8178  0.8330
 5922TIP3    H241962   8.012   3.462  12.056  1.9112 -0.0798 -1.7063
 5923TIP3   OH241963   4.222   6.241  10.962  0.1837 -0.2594 -0.2405
 5923TIP3    H141964   4.308   6.281  10.946  0.4473 -1.4820 -2.3762
 5923TIP3    H241965   4.164   6.314  10.981  1.4256  0.7332 -0.1502
 5924TIP3   OH241966   8.264   1.368  13.073 -0.8722  0.5180 -0.5743
 5924TIP3    H141967   8.204   1.360  12.999 -1.6735  2.7712 -0.2336
 5924TIP3    H241968   8.346   1.400  13.035 -0.1702 -1.4774 -0.8784
 5925TIP3   OH241969   6.502   0.146  12.618 -0.4278 -0.3640  0.6373
 5925TIP3    H141970   6.423   0.109  12.578 -0.4483  0.7187 -0.3758
 5925TIP3    H241971   6.573   0.092  12.584 -0.7191 -1.5749  1.8361
 5926TIP3   OH241972   2.686   4.748  10.766  0.0435  0.1721  0.0355
 5926TIP3    H141973   2.613   4.810  10.766  1.4418  1.9052  1.1710
 5926TIP3    H241974   2.734   4.767  10.686  0.3294  0.3878  0.2566
 5927TIP3   OH241975   2.999   4.413  11.711  0.2469  0.3124 -0.5126
 5927TIP3    H141976   3.060   4.351  11.751  0.0840  1.1856  1.2012
 5927TIP3    H241977   2.921   4.360  11.691 -0.4824  0.1413  2.3026
 5928TIP3   OH241978   5.802   7.416  11.410 -0.1555  0.6482 -0.2776
 5928TIP3    H141979   5.726   7.474  11.417 -1.1094 -0.6766  0.7220
 5928TIP3    H241980   5.767   7.334  11.374  1.0792  0.4989 -1.2018
 5929TIP3   OH241981   7.326   5.338  11.473  0.1884  0.1105 -0.2810
 5929TIP3    H141982   7.242   5.301  11.498  0.0988  0.9487  0.6761
 5929TIP3    H241983   7.308   5.388  11.393 -0.7842  2.3486  1.2384
 5930TIP3   OH241984   5.290   2.527  11.905 -0.3972  0.2197 -0.1388
 5930TIP3    H141985   5.361   2.559  11.962 -1.3406  1.2746  0.4843
 5930TIP3    H241986   5.251   2.454  11.954  0.1555 -0.2757 -0.4225
 5931TIP3   OH241987   3.204   4.701  10.749  0.1075 -0.0509  0.1273
 5931TIP3    H141988   3.221   4.746  10.832 -0.2723 -0.5494  0.4797
 5931TIP3    H241989   3.133   4.640  10.768  1.5867 -1.8996  0.0588
 5932TIP3   OH241990   8.299   4.363  12.675  0.0960  0.0872  0.3045
 5932TIP3    H141991   8.280   4.285  12.726 -1.2741 -0.9887 -1.6994
 5932TIP3    H241992   8.394   4.371  12.676  0.4713 -2.8804 -1.1193
 5933TIP3   OH241993   1.025   6.298  11.234  0.0782 -0.8857 -0.8697
 5933TIP3    H141994   0.954   6.267  11.177 -1.2776  0.5732 -0.0572
 5933TIP3    H241995   0.987   6.297  11.322  1.2251 -0.5192 -0.3535
 5934TIP3   OH241996   6.881   2.704  10.617 -0.6361  0.7941  0.4437
 5934TIP3    H141997   6.925   2.764  10.557 -0.7964 -0.2633 -0.7671
 5934TIP3    H241998   6.790   2.702  10.588 -0.4688 -0.6212 -0.0439
 5935TIP3   OH241999   1.669   1.855  12.348 -0.4532 -0.6810 -0.0497
 5935TIP3    H142000   1.740   1.823  12.404 -1.0321  0.0590  1.1320
 5935TIP3    H242001   1.589   1.831  12.395 -0.9605 -0.3798 -0.7481
 5936TIP3   OH242002   5.592   5.550  10.365  0.0235 -0.5472  0.2192
 5936TIP3    H142003   5.685   5.531  10.369 -0.1502 -1.3615  0.5985
 5936TIP3    H242004   5.587   5.645  10.352  0.8985 -0.4561  0.5124
 5937TIP3   OH242005   4.501   7.535  10.667 -0.1443 -0.0270 -0.3154
 5937TIP3    H142006   4.472   7.614  10.711  1.6164  1.0386 -0.9568
 5937TIP3    H242007   4.541   7.482  10.736  0.7096  0.6895 -0.2391
 5938TIP3   OH242008   1.796   5.782  11.128 -0.0694  0.3595  0.1354
 5938TIP3    H142009   1.709   5.801  11.163 -0.8345 -0.2428 -1.3610
 5938TIP3    H242010   1.833   5.719  11.189 -0.6145  0.7307  0.8643
 5939TIP3   OH242011   2.165   0.586  12.099  0.4165 -0.4450 -0.3229
 5939TIP3    H142012   2.086   0.557  12.054  0.6325 -1.3331 -0.1641
 5939TIP3    H242013   2.191   0.666  12.053 -1.0842  0.3865  0.2346
 5940TIP3   OH242014   2.806   6.957  11.936 -0.1465 -0.3472 -0.3373
 5940TIP3    H142015   2.788   6.991  11.848 -1.3883 -2.0650 -0.8092
 5940TIP3    H242016   2.721   6.924  11.967  0.7442 -1.9973  0.4805
 5941TIP3   OH242017   7.454   7.301  11.431  0.3333 -0.2760 -0.2548
 5941TIP3    H142018   7.467   7.322  11.339  1.6934 -0.1524 -0.0558
 5941TIP3    H242019   7.386   7.234  11.431 -0.0323  0.0736 -1.3046
 5942TIP3   OH242020   6.002   7.108  10.659 -0.0898  0.6427 -0.1352
 5942TIP3    H142021   6.026   7.102  10.752 -0.6516  0.2833 -0.0058
 5942TIP3    H242022   5.910   7.080  10.657 -0.2465  1.1892 -0.7257
 5943TIP3   OH242023   2.767   7.166  12.881 -0.1533 -0.2656 -0.1185
 5943TIP3    H142024   2.860   7.146  12.886 -0.0174  0.1474 -0.9018
 5943TIP3    H242025   2.760   7.236  12.816 -0.9156  0.2907  0.5206
 5944TIP3   OH242026   2.331   3.139  11.199 -0.1643 -0.7459  0.0150
 5944TIP3    H142027   2.397   3.094  11.252  0.1452 -0.1269  0.1691
 5944TIP3    H242028   2.296   3.207  11.257  0.8572  0.5747 -0.8464
 5945TIP3   OH242029   7.872   4.368  12.117 -0.2727  0.1861 -0.3163
 5945TIP3    H142030   7.787   4.410  12.107 -0.4538  0.5410  2.1012
 5945TIP3    H242031   7.852   4.274  12.118 -0.7154  0.2713  0.4548
 5946TIP3   OH242032   3.308   5.079  10.254  0.0753 -0.4739 -0.0886
 5946TIP3    H142033   3.272   5.159  10.214  0.1154 -0.9558 -1.1156
 5946TIP3    H242034   3.397   5.104  10.279  0.4751 -0.4959 -1.4118
 5947TIP3   OH242035   1.798   2.377  11.861 -0.1839  0.2352 -0.3654
 5947TIP3    H142036   1.805   2.306  11.798  0.4102  0.2083 -0.2714
 5947TIP3    H242037   1.871   2.436  11.841 -0.2264  0.4337  0.0373
 5948TIP3   OH242038   1.017   6.666  10.794  0.0478  0.0556  0.2929
 5948TIP3    H142039   0.922   6.653  10.789  0.1844 -1.2956  0.6325
 5948TIP3    H242040   1.052   6.578  10.811  1.3200  0.6206  0.7142
 5949TIP3   OH242041   5.923   5.893  10.414 -0.4789 -0.0068 -0.5870
 5949TIP3    H142042   5.869   5.972  10.404  0.0571  0.5022  0.4011
 5949TIP3    H242043   6.005   5.925  10.451  0.3100 -0.8437 -1.5800
 5950TIP3   OH242044   4.092   3.607  12.496  0.1483 -0.5390 -0.1036
 5950TIP3    H142045   4.110   3.514  12.514  0.4692 -0.3971  0.3435
 5950TIP3    H242046   4.148   3.654  12.558  3.3516  0.0614 -3.1379
 5951TIP3   OH242047   5.398   0.860  12.132 -0.0190  0.1104 -0.0413
 5951TIP3    H142048   5.404   0.881  12.225  1.5698 -1.1854  0.2055
 5951TIP3    H242049   5.312   0.818  12.123 -0.4223  0.7369  0.7121
 5952TIP3   OH242050   3.810   3.940  10.707 -0.2077  0.1155  0.2936
 5952TIP3    H142051   3.890   3.943  10.759  0.1536 -2.2122 -0.0356
 5952TIP3    H242052   3.791   4.032  10.687  1.5115  0.8176  1.6539
 5953TIP3   OH242053   6.488   0.768  11.868 -0.0339 -0.5939 -0.6917
 5953TIP3    H142054   6.539   0.795  11.792  0.1039  2.6496  0.3936
 5953TIP3    H242055   6.415   0.830  11.871 -1.4343 -2.2112  0.4381
 5954TIP3   OH242056   2.355   6.933  11.651  0.1100 -0.6024 -0.4182
 5954TIP3    H142057   2.277   6.895  11.691 -0.0684 -0.9262 -1.0563
 5954TIP3    H242058   2.422   6.929  11.719  0.4455 -3.1772 -0.7799
 5955TIP3   OH242059   0.240   4.487  10.968  0.5255  0.1495 -0.0839
 5955TIP3    H142060   0.314   4.504  11.026 -0.1430 -1.6580  1.3958
 5955TIP3    H242061   0.168   4.465  11.026 -1.0617  1.3195 -1.5207
 5956TIP3   OH242062   1.209   5.826  15.955  0.2299 -0.2361 -0.2137
 5956TIP3    H142063   1.247   5.883  16.022 -2.7334  3.5716 -1.4335
 5956TIP3    H242064   1.152   5.766  16.004 -0.2664  1.0651  0.8754
 5957TIP3   OH242065   3.291   3.370  11.184  0.8264  0.0990  0.1438
 5957TIP3    H142066   3.309   3.295  11.241  1.7345  0.1050 -0.1277
 5957TIP3    H242067   3.292   3.334  11.096 -0.3232  0.1409  0.0994
 5958TIP3   OH242068   4.589   5.885  11.451 -0.6749  0.4286  0.3743
 5958TIP3    H142069   4.681   5.906  11.437 -0.8274  1.0713  0.2756
 5958TIP3    H242070   4.564   5.831  11.376 -0.5907  0.9536 -0.0365
 5959TIP3   OH242071   0.604   7.867  10.798  0.5080 -0.5957  0.1691
 5959TIP3    H142072   0.665   7.799  10.767  0.1784  0.1214 -2.2948
 5959TIP3    H242073   0.519   7.840  10.763  0.7229  2.0833 -2.8323
 5960TIP3   OH242074   1.634   2.427  11.460 -0.6923 -0.4472  0.4538
 5960TIP3    H142075   1.711   2.484  11.453 -1.1508 -0.0327 -2.2940
 5960TIP3    H242076   1.665   2.343  11.428 -1.2845 -0.3670 -0.3377
 5961TIP3   OH242077   4.822   3.428  12.170  0.2869  0.0319 -0.2600
 5961TIP3    H142078   4.896   3.463  12.220  0.9196 -1.7488  0.1486
 5961TIP3    H242079   4.754   3.412  12.235 -0.5115  1.6763 -0.6373
 5962TIP3   OH242080   3.911   5.276  12.330  0.5458  0.0770 -0.2177
 5962TIP3    H142081   3.866   5.213  12.386  0.3563 -0.2037 -0.6800
 5962TIP3    H242082   3.870   5.360  12.351  0.7803  0.0514  0.3782
 5963TIP3   OH242083   7.209   1.324  11.999  0.1901 -0.7536  0.2910
 5963TIP3    H142084   7.179   1.414  11.993  0.2345 -0.5458  2.4289
 5963TIP3    H242085   7.146   1.281  12.057  0.3566 -2.0163 -0.4182
 5964TIP3   OH242086   3.834   4.446  11.446 -0.3024 -0.5592  0.2140
 5964TIP3    H142087   3.829   4.539  11.423  1.4924 -0.4098  0.2280
 5964TIP3    H242088   3.850   4.402  11.362  0.2348 -0.6892  0.3807
 5965TIP3   OH242089   7.183   0.790  10.499 -0.0955  0.1126  0.6129
 5965TIP3    H142090   7.170   0.830  10.585  0.0650  0.4276  0.4909
 5965TIP3    H242091   7.187   0.864  10.439  0.6270 -0.0637  0.4382
 5966TIP3   OH242092   4.620   6.122  11.262 -0.2266 -0.0301 -0.0742
 5966TIP3    H142093   4.550   6.185  11.273  1.3515  1.4783  2.5036
 5966TIP3    H242094   4.601   6.053  11.326 -0.9516 -1.2845 -1.5722
 5967TIP3   OH242095   7.217   3.586  10.556  0.1211 -0.5717 -0.4276
 5967TIP3    H142096   7.182   3.663  10.601 -0.3098 -1.4249  0.7544
 5967TIP3    H242097   7.312   3.591  10.570  0.6659  1.8862 -3.8635
 5968TIP3   OH242098   1.998   5.255  11.310  0.4664  0.0598 -0.6686
 5968TIP3    H142099   1.908   5.286  11.304  1.1767  2.5768  0.2716
 5968TIP3    H242100   1.990   5.163  11.337 -1.7900  0.6602  0.9902
 5969TIP3   OH242101   2.148   2.104  11.913  0.0290  0.3175  0.3833
 5969TIP3    H142102   2.082   2.053  11.866 -0.9823  1.3786  0.6083
 5969TIP3    H242103   2.131   2.194  11.888  1.1455  0.6571  0.7816
 5970TIP3   OH242104   8.261   2.506  10.745 -0.2326  0.1176 -0.4856
 5970TIP3    H142105   8.304   2.445  10.806  1.3966  1.8801  0.2247
 5970TIP3    H242106   8.258   2.459  10.662 -0.4443 -1.4924  0.3898
 5971TIP3   OH242107   1.697   7.276  12.186  0.4671 -0.1479  0.4525
 5971TIP3    H142108   1.758   7.351  12.186  0.3186 -0.0263  0.3079
 5971TIP3    H242109   1.683   7.257  12.093 -1.8509  1.5802  0.3514
 5972TIP3   OH242110   7.342   1.293  12.266  0.2920 -0.2595 -0.2703
 5972TIP3    H142111   7.436   1.280  12.268  0.2561 -0.6458 -0.7852
 5972TIP3    H242112   7.325   1.330  12.179 -0.0300 -0.2129 -0.1888
 5973TIP3   OH242113   6.321   3.117  10.450 -0.3174  0.2807  0.0139
 5973TIP3    H142114   6.295   3.115  10.542  1.6798 -0.4958  0.6082
 5973TIP3    H242115   6.329   3.210  10.429  2.2549  0.4789  1.5875
 5974TIP3   OH242116   0.977   0.004  12.478 -0.0289 -0.5797  0.2767
 5974TIP3    H142117   1.063   0.019  12.517  0.3314 -4.2888  1.3071
 5974TIP3    H242118   0.995  -0.040  12.395 -0.9523 -0.2763 -0.1015
 5975TIP3   OH242119   4.309   3.475  11.244  0.2837  0.1787  0.2169
 5975TIP3    H142120   4.222   3.516  11.242 -0.3213 -0.7234  2.9010
 5975TIP3    H242121   4.361   3.534  11.299  1.3228  0.5537 -1.1272
 5976TIP3   OH242122   3.906   6.397  12.286 -0.2154 -0.1286 -0.1400
 5976TIP3    H142123   3.974   6.392  12.219 -1.3014  0.6413 -1.3562
 5976TIP3    H242124   3.911   6.487  12.318  0.6557 -0.6388  1.2537
 5977TIP3   OH242125   6.857   5.405  12.544  0.4908 -0.2638  0.1776
 5977TIP3    H142126   6.863   5.478  12.482 -1.4088  1.2495  1.6572
 5977TIP3    H242127   6.904   5.436  12.622 -1.4004 -0.0147  1.2866
 5978TIP3   OH242128   1.203   1.784  10.502  0.7663 -0.0737  0.6963
 5978TIP3    H142129   1.219   1.729  10.579  0.1621 -0.8687  0.2726
 5978TIP3    H242130   1.188   1.722  10.431  0.0353  0.6327  0.2126
 5979TIP3   OH242131   0.158   0.733  10.835  0.2700  0.3172 -0.2612
 5979TIP3    H142132   0.124   0.702  10.751  0.4641  0.3851 -0.3670
 5979TIP3    H242133   0.114   0.679  10.901 -1.5011  1.6864 -0.2646
 5980TIP3   OH242134   6.156   1.559  11.681 -0.3725 -0.6179  0.4618
 5980TIP3    H142135   6.154   1.467  11.706  0.9847 -1.5000 -2.2632
 5980TIP3    H242136   6.066   1.579  11.655 -0.6792 -1.1195  1.0967
 5981TIP3   OH242137   6.313   6.155  10.523 -0.1218  0.4087  0.0347
 5981TIP3    H142138   6.342   6.246  10.522  1.5713 -0.1134 -0.9498
 5981TIP3    H242139   6.387   6.106  10.560  0.0258 -0.8670 -1.8090
 5982TIP3   OH242140   7.455   6.652  12.570 -0.1596  0.2908 -0.1771
 5982TIP3    H142141   7.481   6.563  12.547 -1.6658 -0.6349  1.4822
 5982TIP3    H242142   7.384   6.641  12.633 -0.4186  2.6814  0.0415
 5983TIP3   OH242143   4.737   4.329  11.387 -0.1932 -0.2329  0.6028
 5983TIP3    H142144   4.698   4.242  11.391  1.9215 -1.2141  1.0182
 5983TIP3    H242145   4.794   4.334  11.464 -1.0159  1.9392  1.1663
 5984TIP3   OH242146   0.904   1.649  12.155 -0.1070 -0.0356  0.3112
 5984TIP3    H142147   0.823   1.643  12.105  0.5676 -2.1655 -0.6566
 5984TIP3    H242148   0.876   1.649  12.246 -1.2224  0.6004 -0.0118
 5985TIP3   OH242149   5.548   2.666  11.522  0.7434  0.3178 -0.2495
 5985TIP3    H142150   5.519   2.602  11.458  0.8756  0.0773 -0.0684
 5985TIP3    H242151   5.612   2.620  11.576 -0.4224  0.0836  0.9796
 5986TIP3   OH242152   7.700   3.915  10.873 -0.1856  0.2730  0.1539
 5986TIP3    H142153   7.690   3.872  10.789  0.2200  0.1196  0.1824
 5986TIP3    H242154   7.621   3.892  10.922  1.1815 -2.7587  1.2013
 5987TIP3   OH242155   4.160   4.743  12.117 -0.7639  0.2399 -0.3844
 5987TIP3    H142156   4.192   4.659  12.085  1.6478  1.1104 -0.5008
 5987TIP3    H242157   4.170   4.739  12.212 -2.4631 -0.2508 -0.1954
 5988TIP3   OH242158   0.462   5.927  12.500  0.1382  0.0988 -0.4263
 5988TIP3    H142159   0.469   5.837  12.471 -1.5164 -0.0150 -0.5153
 5988TIP3    H242160   0.459   5.922  12.596 -0.1656  0.0522 -0.4399
 5989TIP3   OH242161   7.476   4.047  11.196 -0.0942 -0.1369 -0.4940
 5989TIP3    H142162   7.478   4.080  11.286  0.8575  0.6894 -0.8171
 5989TIP3    H242163   7.409   3.978  11.199  0.1837 -0.3926  0.9347
 5990TIP3   OH242164   8.333   1.876  12.288  0.1674 -0.5018  0.0234
 5990TIP3    H142165   8.282   1.839  12.216 -0.2222  1.3485 -0.7041
 5990TIP3    H242166   8.321   1.814  12.360 -2.0512 -0.8074 -0.5345
 5991TIP3   OH242167   3.216   4.880  11.298  0.0599 -0.4259  0.1749
 5991TIP3    H142168   3.134   4.854  11.255 -1.2056 -0.0698  2.2201
 5991TIP3    H242169   3.201   4.860  11.390  0.3691  3.9519  1.3957
 5992TIP3   OH242170   4.643   6.263  10.902 -0.0632 -0.1075  0.3974
 5992TIP3    H142171   4.590   6.342  10.914  1.7649  1.4698 -1.1415
 5992TIP3    H242172   4.717   6.275  10.962  0.8704  0.0035 -0.7415
 5993TIP3   OH242173   4.550   1.542  12.221 -0.2416  0.1478  0.2437
 5993TIP3    H142174   4.561   1.547  12.316  0.5954 -0.3538  0.1914
 5993TIP3    H242175   4.620   1.597  12.186  0.0469 -0.4146 -0.0854
 5994TIP3   OH242176   4.041   3.210  11.317  0.3873  0.1321 -0.6375
 5994TIP3    H142177   3.999   3.282  11.363 -0.1204 -0.8295  0.4558
 5994TIP3    H242178   4.110   3.180  11.376  0.7817 -0.1048 -1.2068
 5995TIP3   OH242179   3.117   8.082  10.684 -0.0644  0.2022  0.4506
 5995TIP3    H142180   3.178   8.154  10.699  0.5910 -0.5072  1.3224
 5995TIP3    H242181   3.057   8.086  10.759  0.3166 -0.4867  0.8015
 5996TIP3   OH242182   7.996   2.884  12.739  0.8933  0.4666  0.5531
 5996TIP3    H142183   7.914   2.888  12.689  0.8912  2.3103  0.6315
 5996TIP3    H242184   8.027   2.794  12.727 -0.6729 -0.0181 -0.2140
 5997TIP3   OH242185   5.793   5.611  12.287  0.2158 -0.0523  0.3745
 5997TIP3    H142186   5.870   5.559  12.264 -0.1091 -0.5028  0.2795
 5997TIP3    H242187   5.810   5.642  12.376  0.6172  0.0651  0.2587
 5998TIP3   OH242188   5.458   4.544  12.543  0.3494 -0.0204 -0.2321
 5998TIP3    H142189   5.363   4.540  12.549  0.3691  0.6238  0.7247
 5998TIP3    H242190   5.486   4.453  12.548 -0.2035 -0.1894 -0.1391
 5999TIP3   OH242191   0.442   3.750  11.258 -0.4494  0.2005  0.4063
 5999TIP3    H142192   0.465   3.796  11.339 -0.1512 -0.1099  0.5027
 5999TIP3    H242193   0.521   3.701  11.235 -0.8746 -0.5508  0.5067
 6000TIP3   OH242194   5.494   4.374  11.637  0.2778 -0.2987 -1.0540
 6000TIP3    H142195   5.532   4.330  11.561 -0.0692 -2.6007 -0.0047
 6000TIP3    H242196   5.402   4.347  11.637  0.4096 -0.8425  0.4815
 6001TIP3   OH242197   5.866   1.903  12.780 -0.2678 -0.0728  0.0977
 6001TIP3    H142198   5.774   1.876  12.786 -0.1306 -0.7293 -0.5770
 6001TIP3    H242199   5.906   1.838  12.722  0.3085  1.0478 -0.7889
 6002TIP3   OH242200   2.482   1.396  12.203 -0.1796 -0.2399  0.2141
 6002TIP3    H142201   2.577   1.388  12.213  0.0966  1.4706 -0.6135
 6002TIP3    H242202   2.446   1.363  12.285  1.1977  0.1367  1.0033
 6003TIP3   OH242203   6.269   6.300  12.626  0.1575 -1.1036 -0.3719
 6003TIP3    H142204   6.318   6.337  12.700 -1.6143  0.2666  0.2043
 6003TIP3    H242205   6.268   6.206  12.641  0.8916 -0.9553  0.6696
 6004TIP3   OH242206   2.152   1.034  10.686  0.2396 -0.8203 -0.3233
 6004TIP3    H142207   2.192   1.120  10.696  0.4055 -0.4120 -3.5838
 6004TIP3    H242208   2.062   1.046  10.716  0.0472  0.7362 -1.4336
 6005TIP3   OH242209   0.535   1.991  12.051 -0.1680  0.7168  0.5545
 6005TIP3    H142210   0.602   1.929  12.079 -0.4376 -0.5228 -1.3715
 6005TIP3    H242211   0.477   1.998  12.126  1.4806  0.9683  1.8693
 6006TIP3   OH242212   8.445   2.081  12.633 -0.1473  0.2741 -0.1114
 6006TIP3    H142213   8.491   2.052  12.554 -0.0625 -3.6105  1.1712
 6006TIP3    H242214   8.512   2.083  12.701 -0.3437  2.9892  0.1157
 6007TIP3   OH242215   5.247   0.352  11.548 -0.2610 -0.0061  0.2275
 6007TIP3    H142216   5.256   0.263  11.583  1.3435  0.2597  0.5783
 6007TIP3    H242217   5.278   0.409  11.619 -1.5106  0.8568  0.0964
 6008TIP3   OH242218   5.530   0.293  12.590  0.2584 -0.5075 -0.3724
 6008TIP3    H142219   5.558   0.291  12.681 -0.8341 -1.9842 -0.0178
 6008TIP3    H242220   5.592   0.237  12.544  1.8181  1.5266 -0.9303
 6009TIP3   OH242221   3.255   6.834  11.336 -0.5075 -0.3251  0.0879
 6009TIP3    H142222   3.201   6.912  11.340  0.3986  0.3210 -0.0406
 6009TIP3    H242223   3.297   6.839  11.250  0.2993 -0.4420  0.4657
 6010TIP3   OH242224   7.531   0.879  12.149 -0.4570 -0.4485  0.1719
 6010TIP3    H142225   7.602   0.821  12.174  2.8925  1.0105 -4.5836
 6010TIP3    H242226   7.567   0.967  12.158 -2.4616  0.4871 -0.3960
 6011TIP3   OH242227   7.788   1.687  12.860 -0.0903 -0.5369 -0.6255
 6011TIP3    H142228   7.702   1.666  12.823 -0.3985 -1.4938  0.5824
 6011TIP3    H242229   7.780   1.778  12.889 -1.4747 -1.2647  1.4974
 6012TIP3   OH242230   7.838   4.337  11.345  0.4266  0.0847 -0.3995
 6012TIP3    H142231   7.824   4.289  11.427 -1.1516  0.4031 -0.4502
 6012TIP3    H242232   7.928   4.316  11.321  1.1198  0.3932  1.6690
 6013TIP3   OH242233   6.908   0.780  12.118 -0.0751  0.1842  0.3055
 6013TIP3    H142234   7.003   0.765  12.118  0.1907  1.3991  2.3990
 6013TIP3    H242235   6.870   0.693  12.108  1.2469 -0.3293 -0.5505
 6014TIP3   OH242236   1.411   8.227  10.827  0.3486 -0.0683  0.1623
 6014TIP3    H142237   1.376   8.313  10.851 -1.1817 -0.6169 -0.0240
 6014TIP3    H242238   1.498   8.246  10.793 -0.1967  1.4925 -0.4595
 6015TIP3   OH242239   8.322   1.594  10.341 -0.9544 -0.0522  0.9516
 6015TIP3    H142240   8.368   1.546  10.271 -1.5882 -0.4486  0.8039
 6015TIP3    H242241   8.251   1.639  10.296  0.0003  1.5719  0.9802
 6016TIP3   OH242242   1.566   0.233  11.392  0.1954 -0.6765 -0.6485
 6016TIP3    H142243   1.618   0.188  11.460  3.8672  0.7375 -2.2633
 6016TIP3    H242244   1.578   0.326  11.411 -2.7808 -0.2357 -0.5353
 6017TIP3   OH242245   2.089   0.006  11.006 -0.3653 -0.2524  0.4406
 6017TIP3    H142246   2.107   0.095  11.036 -0.7045  0.1512 -0.4913
 6017TIP3    H242247   2.140  -0.050  11.064  0.4980  0.6017  0.5369
 6018TIP3   OH242248   7.638   2.465  10.886 -0.5060  0.2973  0.0154
 6018TIP3    H142249   7.716   2.409  10.887 -0.3788  0.4415 -0.6992
 6018TIP3    H242250   7.566   2.407  10.908 -0.0164  0.5042  2.3908
 6019TIP3   OH242251   2.148   1.444  10.674 -0.0126 -0.9848 -0.2079
 6019TIP3    H142252   2.179   1.386  10.743 -0.6375  0.2504  1.1894
 6019TIP3    H242253   2.221   1.451  10.613  0.9836 -1.2347  0.9180
 6020TIP3   OH242254   5.080   1.712  11.954  0.0901 -0.0389  0.2513
 6020TIP3    H142255   5.008   1.757  11.909 -0.5472 -0.4075  0.8840
 6020TIP3    H242256   5.053   1.621  11.959  1.1221 -0.3993 -0.5045
 6021TIP3   OH242257   6.498   3.387  11.049 -0.2137 -0.0557  0.1678
 6021TIP3    H142258   6.434   3.453  11.022 -1.4662 -0.9467  0.9104
 6021TIP3    H242259   6.488   3.316  10.986  0.7518  0.2167 -0.3049
 6022TIP3   OH242260   5.410   4.390  10.629 -0.2631  0.1768  0.8232
 6022TIP3    H142261   5.328   4.357  10.592  0.6251 -0.3282 -0.8049
 6022TIP3    H242262   5.471   4.393  10.555  1.2829  0.2709  2.0267
 6023TIP3   OH242263   1.054   0.222  11.394  0.0675 -0.2495  0.4328
 6023TIP3    H142264   1.001   0.187  11.465  1.7272 -0.8250  1.4462
 6023TIP3    H242265   1.056   0.316  11.409 -0.4967 -0.2411  0.4837
 6024TIP3   OH242266   1.075   8.356  10.915 -0.0401 -0.5124 -0.1851
 6024TIP3    H142267   1.171   8.366  10.912 -0.1283  0.3562 -2.0574
 6024TIP3    H242268   1.053   8.360  11.008  1.6681  0.0354  0.2375
 6025TIP3   OH242269   3.764   0.298  12.158  0.4294  0.3918 -0.4251
 6025TIP3    H142270   3.706   0.344  12.096 -0.9552 -0.1580  0.4228
 6025TIP3    H242271   3.736   0.206  12.153  1.8414 -0.0536 -0.6339
 6026TIP3   OH242272   2.431   5.132  11.542  0.3991 -0.0308  0.1533
 6026TIP3    H142273   2.397   5.170  11.461 -0.4727  0.1490  0.5963
 6026TIP3    H242274   2.495   5.067  11.512  0.5971  0.5104 -0.6585
 6027TIP3   OH242275   4.775   4.056  13.229  0.4304 -0.4956  0.0867
 6027TIP3    H142276   4.778   4.081  13.136 -1.6633 -1.4579 -0.2950
 6027TIP3    H242277   4.786   3.961  13.229  0.9489 -0.4486  0.9035
 6028TIP3   OH242278   5.626   3.823  11.416  0.3668 -0.0065  0.3196
 6028TIP3    H142279   5.650   3.750  11.358 -0.9949 -2.2219  2.3515
 6028TIP3    H242280   5.542   3.853  11.383 -0.0346 -0.7425  0.6540
 6029TIP3   OH242281   5.597   4.448  10.886  0.1163  0.0360 -0.3913
 6029TIP3    H142282   5.538   4.373  10.884 -0.5534  0.4431  1.7346
 6029TIP3    H242283   5.551   4.516  10.837 -0.4661 -0.1481 -0.1120
 6030TIP3   OH242284   3.928   4.499  12.510 -0.9346 -0.0743 -0.7363
 6030TIP3    H142285   3.952   4.474  12.599 -0.4822 -2.5122 -1.4593
 6030TIP3    H242286   3.921   4.594  12.512  0.9923  0.0898  1.4291
 6031TIP3   OH242287   6.192   4.871  10.886 -0.3083 -0.1493  0.2597
 6031TIP3    H142288   6.138   4.861  10.807 -1.0076 -2.4078  0.9326
 6031TIP3    H242289   6.276   4.904  10.853 -0.7826 -0.4416 -1.3526
 6032TIP3   OH242290   5.285   5.162  10.864  0.4302  0.0100 -0.5757
 6032TIP3    H142291   5.350   5.152  10.795  0.8918 -0.1884 -0.1265
 6032TIP3    H242292   5.202   5.172  10.819  0.4608 -1.9709 -1.1420
 6033TIP3   OH242293   4.655   3.358  12.400  0.0860 -0.1618 -0.3323
 6033TIP3    H142294   4.565   3.387  12.395  0.0114 -0.2554  0.3922
 6033TIP3    H242295   4.695   3.413  12.467  0.3249 -0.7304  0.0018
 6034TIP3   OH242296   2.213   2.026  10.536 -0.0041  0.1199  0.2881
 6034TIP3    H142297   2.226   2.120  10.526  0.7418  0.0210  0.2785
 6034TIP3    H242298   2.265   1.987  10.466 -2.0088 -0.2378 -1.0982
 6035TIP3   OH242299   5.486   3.249  12.876 -0.3056  0.4389 -0.2795
 6035TIP3    H142300   5.480   3.228  12.783 -0.0199 -0.2801 -0.1423
 6035TIP3    H242301   5.579   3.262  12.892 -0.0053 -2.1884  0.4619
 6036TIP3   OH242302   1.355   3.392  10.848 -0.0618  0.5201 -0.0040
 6036TIP3    H142303   1.382   3.476  10.886 -0.1622 -0.0451  1.3494
 6036TIP3    H242304   1.298   3.417  10.774 -0.8208  1.6448  0.9204
 6037TIP3   OH242305   5.519   3.312  11.553  0.1080  0.6664 -0.1937
 6037TIP3    H142306   5.494   3.221  11.534 -2.1277  1.1601  0.0365
 6037TIP3    H242307   5.594   3.305  11.612  0.2416 -1.0234 -0.5257
 6038TIP3   OH242308   0.818   0.702  11.500 -0.3748  0.1166  0.0400
 6038TIP3    H142309   0.735   0.704  11.548 -0.2548 -0.0466  0.2576
 6038TIP3    H242310   0.837   0.794  11.482  0.1922  0.2970  1.3882
 6039TIP3   OH242311   6.045   3.488  13.037  0.4460 -0.2192  0.1620
 6039TIP3    H142312   6.068   3.405  13.079 -2.0247 -1.4029 -0.6422
 6039TIP3    H242313   6.054   3.471  12.944  1.0855  0.8272  0.0224
 6040TIP3   OH242314   5.727   4.209  10.619  0.0363  0.1577 -0.0855
 6040TIP3    H142315   5.653   4.207  10.558  2.3317  0.8767 -3.0735
 6040TIP3    H242316   5.801   4.239  10.567  2.7202 -1.4581  2.5087
 6041TIP3   OH242317   4.069   4.775  10.734 -0.2730  0.1248 -0.3200
 6041TIP3    H142318   4.030   4.738  10.813  1.2114 -0.1544  0.3228
 6041TIP3    H242319   4.070   4.703  10.671  2.3134 -0.9886  0.8205
 6042TIP3   OH242320   8.226   0.849  11.265  0.1785 -0.0830 -0.1537
 6042TIP3    H142321   8.201   0.772  11.316 -0.9029  0.4123  0.0818
 6042TIP3    H242322   8.304   0.882  11.309 -0.5875  0.1882  1.0474
 6043TIP3   OH242323   4.729   6.423  12.421 -0.6013  0.3491  0.2760
 6043TIP3    H142324   4.802   6.365  12.444  0.4666  2.3525  2.3566
 6043TIP3    H242325   4.652   6.381  12.458 -0.1893 -0.7411 -0.0556
 6044TIP3   OH242326   3.193   3.728  10.570  0.1411 -0.0662 -0.2192
 6044TIP3    H142327   3.136   3.742  10.494  0.3210 -0.0062 -0.3455
 6044TIP3    H242328   3.249   3.654  10.544 -1.2951 -1.5355  0.7260
 6045TIP3   OH242329   7.209   0.182  11.574  0.5015 -0.2027  0.1299
 6045TIP3    H142330   7.189   0.236  11.498  0.0393  0.1288  0.4772
 6045TIP3    H242331   7.267   0.114  11.541 -0.6499 -0.7842 -0.7810
 6046TIP3   OH242332   3.022   2.396  11.832 -0.5933  0.2810  0.0412
 6046TIP3    H142333   2.936   2.437  11.844 -0.4573  0.6388 -0.1954
 6046TIP3    H242334   3.084   2.455  11.875 -0.1199  1.5068 -2.1929
 6047TIP3   OH242335   3.666   1.694  11.720  0.5290  0.3872  0.0637
 6047TIP3    H142336   3.746   1.718  11.672  0.6747 -0.9420 -0.4191
 6047TIP3    H242337   3.599   1.688  11.652  0.0783  1.1855  0.4263
 6048TIP3   OH242338   5.788   2.520  11.984 -0.0110 -0.5011  0.3028
 6048TIP3    H142339   5.873   2.488  11.954 -0.7217 -1.5041 -0.7063
 6048TIP3    H242340   5.724   2.469  11.934 -1.2052  0.9801  0.2619
 6049TIP3   OH242341   0.993   4.217  11.105  0.3530 -0.0241 -0.0379
 6049TIP3    H142342   1.069   4.160  11.090  2.4057  2.1759  1.2611
 6049TIP3    H242343   0.972   4.204  11.198 -1.0563 -0.7635 -0.4306
 6050TIP3   OH242344   0.571   3.932  11.406 -0.1771  0.3518 -0.6254
 6050TIP3    H142345   0.540   4.013  11.364  0.4720  0.0633 -1.6842
 6050TIP3    H242346   0.648   3.907  11.355 -0.4204 -0.9827 -0.3555
 6051TIP3   OH242347   3.151   2.213  11.096  0.1445 -0.4585  0.3851
 6051TIP3    H142348   3.210   2.163  11.040 -0.0722 -0.4848  0.1776
 6051TIP3    H242349   3.079   2.152  11.115  0.7957 -0.8545  1.6809
 6052TIP3   OH242350   4.190   7.809  11.297 -0.1304  0.3635  0.1218
 6052TIP3    H142351   4.118   7.871  11.304 -1.9409 -1.7992  2.1063
 6052TIP3    H242352   4.156   7.738  11.241  0.2002 -0.9131  1.4690
 6053TIP3   OH242353   6.491   7.783  11.216  0.3195  0.1859 -0.0053
 6053TIP3    H142354   6.502   7.695  11.179 -0.4898  0.3289 -0.5980
 6053TIP3    H242355   6.572   7.828  11.192 -0.1515  0.2574 -1.5861
 6054TIP3   OH242356   6.351   2.632  10.527 -0.0475  0.3303  0.4584
 6054TIP3    H142357   6.318   2.722  10.523  0.6658  0.5660 -2.2288
 6054TIP3    H242358   6.276   2.578  10.505 -0.3038  0.2852  1.3867
 6055TIP3   OH242359   0.009   3.034  12.049  0.4685  0.0319  0.4663
 6055TIP3    H142360  -0.079   2.998  12.059 -0.3428  1.7454 -0.1315
 6055TIP3    H242361   0.018   3.051  11.955  1.5913 -0.4712  0.4682
 6056TIP3   OH242362   2.138   2.549  12.060 -0.7078  0.2555  0.8107
 6056TIP3    H142363   2.148   2.463  12.099 -2.3048 -0.2108  0.2637
 6056TIP3    H242364   2.076   2.536  11.988  1.0763  1.3419 -1.0294
 6057TIP3   OH242365   7.833   1.884  10.566  0.3126  0.0535 -0.2491
 6057TIP3    H142366   7.738   1.898  10.576  0.7255  2.5523  0.9319
 6057TIP3    H242367   7.871   1.970  10.580  2.8726 -1.0941  0.3431
 6058TIP3   OH242368   3.346   5.260  11.719  0.1524 -0.0644 -0.5550
 6058TIP3    H142369   3.265   5.287  11.763  0.3165 -1.1996  0.4839
 6058TIP3    H242370   3.397   5.341  11.712 -0.3614  0.3466  0.3048
 6059TIP3   OH242371   6.914   4.485  10.582  0.2011  0.8450 -0.1264
 6059TIP3    H142372   7.009   4.495  10.570  0.6231 -0.6217  1.5997
 6059TIP3    H242373   6.905   4.419  10.651 -2.1013  0.3106 -0.8423
 6060TIP3   OH242374   2.116   5.475  11.429  0.4872  0.1417  0.3372
 6060TIP3    H142375   2.212   5.476  11.428  0.5235 -0.9158  0.8597
 6060TIP3    H242376   2.093   5.391  11.389 -0.2887  1.1077 -1.3247
 6061TIP3   OH242377   3.741   1.849  12.224 -0.0625  0.5353  0.1691
 6061TIP3    H142378   3.681   1.797  12.278 -1.4454  0.4143 -1.3870
 6061TIP3    H242379   3.791   1.784  12.174 -1.4799  0.6181 -1.4503
 6062TIP3   OH242380   4.885   2.164  11.231  0.1146 -0.3328  0.2898
 6062TIP3    H142381   4.879   2.258  11.219 -0.7866 -0.1789  1.6891
 6062TIP3    H242382   4.921   2.131  11.148 -0.5559  1.1137 -0.6191
 6063TIP3   OH242383   1.082   0.407  12.100 -0.0534 -0.0812 -0.1580
 6063TIP3    H142384   1.008   0.347  12.094 -1.1943  0.6589  3.7212
 6063TIP3    H242385   1.154   0.353  12.132  1.0200 -0.6424 -3.2212
 6064TIP3   OH242386   3.693   6.321  10.449  0.5279  0.0173  0.0393
 6064TIP3    H142387   3.619   6.259  10.447  0.9887 -0.5974  0.9522
 6064TIP3    H242388   3.687   6.369  10.367  0.7209 -1.9147 -1.1665
 6065TIP3   OH242389   2.510   2.946  12.422  0.0908  0.1748 -0.2786
 6065TIP3    H142390   2.541   3.028  12.460  0.7026 -0.7493  1.3375
 6065TIP3    H242391   2.502   2.887  12.497  0.9794 -1.6359 -1.5276
 6066TIP3   OH242392   6.485   3.796  13.008  0.2436  0.2293 -0.2816
 6066TIP3    H142393   6.445   3.736  13.071 -0.6568  0.0884 -0.9528
 6066TIP3    H242394   6.536   3.739  12.951  0.0071  0.1871 -0.4549
 6067TIP3   OH242395   6.973   1.281  12.166  0.2196  0.2052 -0.5489
 6067TIP3    H142396   6.906   1.307  12.103  1.0167  0.7895 -1.1678
 6067TIP3    H242397   6.946   1.324  12.248 -0.5450 -0.1568 -0.6001
 6068TIP3   OH242398   0.215   6.991  12.610 -0.2820  0.3656 -0.2119
 6068TIP3    H142399   0.182   7.051  12.677  0.5814 -0.2888  0.8309
 6068TIP3    H242400   0.247   7.048  12.541  1.4975  1.2071  1.2149
 6069TIP3   OH242401   4.343   2.580  11.633 -0.2792 -0.3840  0.0978
 6069TIP3    H142402   4.260   2.532  11.624 -0.3262 -0.4623  0.8911
 6069TIP3    H242403   4.350   2.598  11.727  1.0837 -1.2336  0.1843
 6070TIP3   OH242404   1.442   7.788  10.838 -0.6747 -0.1784  0.6838
 6070TIP3    H142405   1.407   7.717  10.786  0.1663 -1.0865  1.3185
 6070TIP3    H242406   1.424   7.867  10.786 -1.4528 -0.8593 -0.1121
 6071TIP3   OH242407   6.445   7.559  12.826 -0.3415  0.4979 -0.1556
 6071TIP3    H142408   6.441   7.472  12.788  0.8798  0.2683  0.1992
 6071TIP3    H242409   6.382   7.611  12.774 -0.7198 -0.4590 -0.6778
 6072TIP3   OH242410   5.872   4.445  10.786 -0.6763 -0.2964 -0.0975
 6072TIP3    H142411   5.785   4.429  10.823 -0.1178 -1.0085  0.9787
 6072TIP3    H242412   5.915   4.503  10.850 -0.6596  0.8094 -1.0794
 6073TIP3   OH242413   6.588   2.376  13.038 -0.1472 -0.0458  0.1591
 6073TIP3    H142414   6.656   2.312  13.059  1.2580  1.2605 -0.2684
 6073TIP3    H242415   6.557   2.407  13.124 -3.0361 -3.3433  0.5664
 6074TIP3   OH242416   6.908   5.605  11.920 -0.4845  0.1260  0.2254
 6074TIP3    H142417   7.001   5.627  11.911 -0.6201  0.4047 -0.6495
 6074TIP3    H242418   6.905   5.510  11.911 -0.3783  0.2072 -0.9307
 6075TIP3   OH242419   5.039   5.211  10.751  0.1916  0.0179  0.3344
 6075TIP3    H142420   4.951   5.247  10.753 -0.3574 -1.3076  1.3892
 6075TIP3    H242421   5.069   5.226  10.662 -2.0424 -1.6648 -0.7809
 6076TIP3   OH242422   6.250   1.331  10.651  0.2539  0.1381  0.9786
 6076TIP3    H142423   6.225   1.423  10.645 -2.9055 -0.6634 -0.5479
 6076TIP3    H242424   6.314   1.319  10.581  0.9411  1.1943  1.3963
 6077TIP3   OH242425   3.020   3.285  12.336 -0.3073 -0.2496 -0.4016
 6077TIP3    H142426   2.998   3.288  12.430 -1.9736  1.0708 -0.7791
 6077TIP3    H242427   2.937   3.263  12.293  0.5999 -1.5786 -1.5488
 6078TIP3   OH242428   3.826   7.529  11.212  0.3291  0.3129  0.1029
 6078TIP3    H142429   3.812   7.461  11.147  0.3039  0.1531  0.2728
 6078TIP3    H242430   3.831   7.610  11.162 -0.4356  0.2829 -0.0250
 6079TIP3   OH242431   0.855   4.456  12.748  0.1593 -0.1159  0.1141
 6079TIP3    H142432   0.798   4.379  12.742  0.9498 -0.7627  0.6787
 6079TIP3    H242433   0.897   4.462  12.663 -0.6130  0.2719 -0.2530
 6080TIP3   OH242434   1.193   1.914  12.735  0.1274  0.2345 -0.0856
 6080TIP3    H142435   1.187   2.010  12.731 -0.3714  0.2366  0.5397
 6080TIP3    H242436   1.275   1.897  12.782  0.0349  0.3597  0.1218
 6081TIP3   OH242437   2.669   7.050  10.854 -0.6611 -0.2176 -0.3558
 6081TIP3    H142438   2.694   7.129  10.903 -1.2246  0.0289 -0.4531
 6081TIP3    H242439   2.749   7.023  10.810 -0.7857  1.1415 -1.4810
 6082TIP3   OH242440   6.215   4.427  11.092 -0.4023 -0.0998  0.4632
 6082TIP3    H142441   6.163   4.402  11.168 -1.2960 -0.1690 -0.1527
 6082TIP3    H242442   6.247   4.515  11.112 -0.9608  0.0376  0.7457
 6083TIP3   OH242443   1.153   6.520  11.399 -0.0069  0.3012 -0.4823
 6083TIP3    H142444   1.237   6.473  11.399 -0.3465 -0.3314 -0.0725
 6083TIP3    H242445   1.096   6.465  11.345 -0.1831  0.6695 -0.6663
 6084TIP3   OH242446   4.750   4.564  12.249  0.6434  0.4942  0.0781
 6084TIP3    H142447   4.799   4.513  12.313 -1.4749 -0.6457  0.8731
 6084TIP3    H242448   4.742   4.506  12.174  1.3199  1.0605 -0.4567
 6085TIP3   OH242449   3.977   5.884  11.346 -0.0305  0.2258  0.4817
 6085TIP3    H142450   3.979   5.800  11.391 -3.0469  0.5466  1.4262
 6085TIP3    H242451   3.949   5.863  11.257 -0.5689  0.1832  0.6570
 6086TIP3   OH242452   0.027   5.291  11.856 -0.1669 -0.3791 -0.1959
 6086TIP3    H142453  -0.058   5.333  11.839 -0.5439 -0.5753  1.1104
 6086TIP3    H242454   0.085   5.328  11.790 -0.7551  1.3636  0.2095
 6087TIP3   OH242455   3.653   7.891  10.929 -0.1243  0.5924 -0.5215
 6087TIP3    H142456   3.563   7.896  10.894 -0.9569 -0.3066  1.3491
 6087TIP3    H242457   3.696   7.969  10.894 -2.0596  1.8131 -0.3671
 6088TIP3   OH242458   7.029   4.072  12.164 -0.7953 -0.3830  0.4850
 6088TIP3    H142459   6.946   4.118  12.155 -0.0403  0.7032 -1.8470
 6088TIP3    H242460   7.064   4.102  12.248 -0.8595  2.5418 -0.4050
 6089TIP3   OH242461   3.545   2.221  10.897 -0.1111  0.1574 -0.2275
 6089TIP3    H142462   3.560   2.192  10.987 -1.0784 -0.8793 -0.3895
 6089TIP3    H242463   3.529   2.140  10.848  2.3135  0.4749 -1.7543
 6090TIP3   OH242464   0.182   4.376  11.904 -0.9631  0.1907 -0.3996
 6090TIP3    H142465   0.182   4.410  11.994 -0.7225  0.7555 -0.6049
 6090TIP3    H242466   0.101   4.410  11.866 -0.7036  0.5752 -0.6167
 6091TIP3   OH242467   3.798   5.675  11.773 -0.5207  0.6056 -0.3463
 6091TIP3    H142468   3.815   5.596  11.824  0.3464  0.4559 -0.8526
 6091TIP3    H242469   3.878   5.689  11.723  0.1335  2.9553  1.2107
 6092TIP3   OH242470   1.764   8.127  12.329  0.2247  0.1560 -0.2826
 6092TIP3    H142471   1.853   8.103  12.355 -0.0613 -2.1014 -1.1819
 6092TIP3    H242472   1.736   8.057  12.270 -2.2851  0.6151  0.2380
 6093TIP3   OH242473   0.849   2.091  10.883 -0.2061 -0.2824 -0.0779
 6093TIP3    H142474   0.868   2.030  10.954 -2.6704 -0.2106  0.7093
 6093TIP3    H242475   0.891   2.051  10.806  0.6395 -1.4908  0.9641
 6094TIP3   OH242476   6.755   1.792  10.915  0.1319 -0.0256 -0.0510
 6094TIP3    H142477   6.670   1.784  10.958  0.7884 -1.4334  1.0702
 6094TIP3    H242478   6.752   1.727  10.844  1.1640 -2.0541  1.6421
 6095TIP3   OH242479   6.799   0.627  12.376  0.2860 -0.0282 -0.1078
 6095TIP3    H142480   6.770   0.601  12.288  0.7458 -1.2689  0.0837
 6095TIP3    H242481   6.891   0.650  12.365  0.4275 -0.4791  0.0881
 6096TIP3   OH242482   2.356   3.675  12.626 -0.0158  0.3640  0.1599
 6096TIP3    H142483   2.354   3.709  12.537  0.3541  3.1365  1.1193
 6096TIP3    H242484   2.443   3.635  12.634 -0.3438 -0.6167 -0.9167
 6097TIP3   OH242485   0.162   7.304  11.147  0.3601  0.6314 -0.3280
 6097TIP3    H142486   0.195   7.326  11.060 -0.7255  2.2570 -0.3802
 6097TIP3    H242487   0.240   7.300  11.202  1.0015  0.2263 -1.2487
 6098TIP3   OH242488   3.115   0.877  11.917  0.0998  0.3762  0.2652
 6098TIP3    H142489   3.199   0.832  11.924  0.0575  0.3158  0.3957
 6098TIP3    H242490   3.137   0.970  11.925  0.0991  0.3324  0.8721
 6099TIP3   OH242491   4.325   5.911  12.342 -0.3569  0.1331 -0.1369
 6099TIP3    H142492   4.272   5.832  12.351  0.5139 -0.3403  1.0617
 6099TIP3    H242493   4.298   5.968  12.414 -0.7777  0.8174 -0.8253
 6100TIP3   OH242494   0.389   1.697  10.933 -0.3053  0.0084  0.1100
 6100TIP3    H142495   0.350   1.721  11.017 -0.1694 -0.8758  0.4378
 6100TIP3    H242496   0.447   1.770  10.911  0.6542 -0.3268  1.4184
 6101TIP3   OH242497   3.831   1.584  11.169 -0.5908 -0.0142 -0.0509
 6101TIP3    H142498   3.869   1.515  11.114 -0.8301 -0.8327  0.7902
 6101TIP3    H242499   3.876   1.664  11.141  0.9902 -0.7881  0.1736
 6102TIP3   OH242500   0.476   2.397  12.756  0.3174  0.1938 -0.8671
 6102TIP3    H142501   0.445   2.359  12.838 -0.1613 -0.1519 -1.2034
 6102TIP3    H242502   0.419   2.473  12.742  0.2521  0.1200 -0.9966
 6103TIP3   OH242503   2.610   5.903  10.726  0.1223  0.2913 -0.4582
 6103TIP3    H142504   2.527   5.949  10.713 -0.5636 -1.2703 -2.0767
 6103TIP3    H242505   2.677   5.965  10.696 -0.6613  0.6995 -1.4164
 6104TIP3   OH242506   3.013   4.465  12.477  0.6669  0.0625  0.2952
 6104TIP3    H142507   2.932   4.516  12.474  0.4581 -0.2824  0.0342
 6104TIP3    H242508   3.076   4.517  12.427  0.8845  0.8019  1.2944
 6105TIP3   OH242509   6.481   2.158  12.065 -0.0139  0.6039  0.3086
 6105TIP3    H142510   6.503   2.249  12.081 -1.2399  1.1186 -0.7908
 6105TIP3    H242511   6.395   2.160  12.024  1.1147 -0.8280 -2.4128
 6106TIP3   OH242512   6.497   5.650  11.467  0.5521  0.9698 -0.0249
 6106TIP3    H142513   6.501   5.728  11.523 -0.6717  1.9418 -1.2098
 6106TIP3    H242514   6.584   5.610  11.475  0.2523  0.6565  3.0590
 6107TIP3   OH242515   8.016   6.054  11.090 -0.0821  0.1433  0.0879
 6107TIP3    H142516   8.038   5.999  11.014  2.4523  0.4164  0.5296
 6107TIP3    H242517   8.077   6.127  11.084 -1.1975  1.2128  1.3229
 6108TIP3   OH242518   4.773   7.270  10.637  0.0586  0.3050  0.3393
 6108TIP3    H142519   4.690   7.308  10.666 -0.6536  0.0806 -1.3109
 6108TIP3    H242520   4.750   7.181  10.611  0.6715  0.4592 -0.7679
 6109TIP3   OH242521   4.299   6.739  12.172  0.4498 -0.4491  0.0444
 6109TIP3    H142522   4.388   6.704  12.181  0.7584  0.1857 -0.4523
 6109TIP3    H242523   4.284   6.787  12.253  0.1816 -1.3631  0.5489
 6110TIP3   OH242524   6.621   2.835  11.125  0.0818 -0.0901  0.0282
 6110TIP3    H142525   6.529   2.821  11.144  0.4514 -0.9633  1.3357
 6110TIP3    H242526   6.656   2.747  11.107  0.9627  0.0222  1.0821
 6111TIP3   OH242527   2.846   3.211  11.616 -0.0278 -0.6967  0.4621
 6111TIP3    H142528   2.850   3.120  11.645 -2.9997 -1.5471 -1.3332
 6111TIP3    H242529   2.888   3.212  11.531  0.1546 -0.3428  0.5531
 6112TIP3   OH242530   7.027   1.072  12.845  0.6139 -0.5569 -0.0260
 6112TIP3    H142531   7.106   1.019  12.858  0.7820  0.0569  1.7680
 6112TIP3    H242532   6.958   1.022  12.888  0.3979 -0.2046  0.0349
 6113TIP3   OH242533   6.808   8.008  12.416  0.0472 -0.2006  0.5039
 6113TIP3    H142534   6.772   7.925  12.446  0.9388 -0.1367  1.8077
 6113TIP3    H242535   6.746   8.074  12.447 -0.6035 -0.3515 -0.4376
 6114TIP3   OH242536   5.577   6.904  12.565  0.7023 -1.1184  0.4749
 6114TIP3    H142537   5.550   6.966  12.498  0.9567  0.7197  1.9645
 6114TIP3    H242538   5.660   6.939  12.598  1.0329 -2.4587  1.1599
 6115TIP3   OH242539   4.447   6.488  10.938 -0.3439  0.2806  0.2595
 6115TIP3    H142540   4.391   6.514  11.012 -1.5895 -2.1214  0.2705
 6115TIP3    H242541   4.489   6.569  10.910 -1.6593  1.6871  2.0936
 6116TIP3   OH242542   3.238   3.737  12.187  0.3980 -0.3049  0.4422
 6116TIP3    H142543   3.264   3.648  12.210  0.7357 -0.5821 -0.9386
 6116TIP3    H242544   3.313   3.791  12.210  0.1587 -0.3599  1.3673
 6117TIP3   OH242545   8.431   1.497  11.602  0.4572  0.3462  0.5498
 6117TIP3    H142546   8.401   1.406  11.605 -0.3494  0.5728 -0.2008
 6117TIP3    H242547   8.454   1.512  11.510 -0.0129  1.0792  0.5388
 6118TIP3   OH242548   2.046   1.171  11.085  0.5025  0.1553  0.0654
 6118TIP3    H142549   2.002   1.199  11.005  1.3800  0.1354 -0.4377
 6118TIP3    H242550   2.042   1.075  11.082 -0.9740  0.1712  0.9177
 6119TIP3   OH242551   8.346   7.326  11.041 -0.0146  0.1113  0.0576
 6119TIP3    H142552   8.427   7.377  11.043  0.5512 -0.7727  2.0398
 6119TIP3    H242553   8.300   7.351  11.121  0.5709 -2.7841  1.4589
 6120TIP3   OH242554   3.278   0.876  11.317  0.0329 -0.3262 -0.2170
 6120TIP3    H142555   3.259   0.784  11.297  0.7488 -0.0985 -2.1505
 6120TIP3    H242556   3.233   0.892  11.400 -1.1025 -2.0867 -0.4339
 6121TIP3   OH242557   0.006   5.788  10.472  0.0039  0.0096 -0.3650
 6121TIP3    H142558  -0.023   5.824  10.556  1.1324 -0.4619  0.2501
 6121TIP3    H242559  -0.062   5.815  10.410 -1.2648 -0.2985  0.8333
 6122TIP3   OH242560   7.552   3.786  11.991  0.2480 -0.0705 -0.0241
 6122TIP3    H142561   7.567   3.860  11.932  0.2638 -0.0517  0.0032
 6122TIP3    H242562   7.458   3.772  11.989  0.4681 -1.8127 -2.1589
 6123TIP3   OH242563   0.656   3.872  12.045 -0.2436 -0.3813  0.5738
 6123TIP3    H142564   0.665   3.811  11.972 -1.2788  0.6448 -0.4634
 6123TIP3    H242565   0.693   3.826  12.120 -0.7898 -2.1736 -0.2152
 6124TIP3   OH242566   3.290   5.371  10.353  0.0789  0.2578  0.7089
 6124TIP3    H142567   3.309   5.465  10.350 -0.6604  0.3990  0.3291
 6124TIP3    H242568   3.374   5.330  10.374  0.3082  1.0379  1.3426
 6125TIP3   OH242569   2.171   3.430  11.335 -0.1901 -0.1756  0.0302
 6125TIP3    H142570   2.134   3.366  11.396 -1.7090 -0.1235 -0.7871
 6125TIP3    H242571   2.101   3.493  11.320  0.8953  1.0592 -0.0771
 6126TIP3   OH242572   1.305   0.597  11.553  0.3150 -0.5561  0.4270
 6126TIP3    H142573   1.277   0.546  11.629  0.2649 -0.7040  0.3089
 6126TIP3    H242574   1.265   0.553  11.478  2.9496 -2.3381 -0.0612
 6127TIP3   OH242575   4.777   6.066  12.320  0.3912 -0.3207 -0.3874
 6127TIP3    H142576   4.695   6.109  12.345 -0.1252 -1.0966 -0.7082
 6127TIP3    H242577   4.807   6.024  12.400  0.8205  0.4929 -0.1089
 6128TIP3   OH242578   0.258   7.374  10.887 -0.7634  0.3749  0.2694
 6128TIP3    H142579   0.346   7.410  10.897  0.9249 -2.7337 -1.9539
 6128TIP3    H242580   0.209   7.443  10.842  1.4803  1.0383 -1.3363
 6129TIP3   OH242581   0.610   4.631  12.070  0.0565  0.0943 -0.3717
 6129TIP3    H142582   0.563   4.695  12.124  1.9779  1.5120 -0.2788
 6129TIP3    H242583   0.664   4.582  12.132 -0.4924 -0.8201 -0.5973
 6130TIP3   OH242584   3.448   1.699  12.157  0.3553 -1.0655 -0.6270
 6130TIP3    H142585   3.529   1.666  12.198  1.3644  0.5348 -1.2138
 6130TIP3    H242586   3.476   1.728  12.070 -0.9634 -0.9306 -1.0174
 6131TIP3   OH242587   2.306   5.550  12.010  0.2899  0.0873 -0.0508
 6131TIP3    H142588   2.361   5.582  11.938 -1.2051  1.3568 -0.6902
 6131TIP3    H242589   2.296   5.456  11.993 -0.8185  0.5187 -2.0952
 6132TIP3   OH242590   7.848   6.633  11.539 -0.3672  0.3310 -0.5784
 6132TIP3    H142591   7.925   6.690  11.539 -0.7251  0.8176 -1.1086
 6132TIP3    H242592   7.798   6.660  11.462 -1.2654  0.2729 -0.0175
 6133TIP3   OH242593   1.737   5.658  11.972 -0.5448 -0.2933  0.3348
 6133TIP3    H142594   1.762   5.580  12.020  1.9335  1.1294  1.5605
 6133TIP3    H242595   1.675   5.627  11.906 -2.2167 -2.7152  2.8293
 6134TIP3   OH242596   6.581   3.613  10.678  0.3053 -0.8173 -0.2260
 6134TIP3    H142597   6.641   3.579  10.611 -0.9251 -2.5047 -0.5298
 6134TIP3    H242598   6.546   3.535  10.721  0.1580  0.2108  1.5952
 6135TIP3   OH242599   3.712   4.295  12.342  0.3066  0.1509 -0.1161
 6135TIP3    H142600   3.803   4.265  12.340  0.0506 -0.6873  0.2346
 6135TIP3    H242601   3.706   4.351  12.419 -0.0508 -1.7871  1.3295
 6136TIP3   OH242602   5.385   1.663  10.935 -0.3898  0.1464  0.4562
 6136TIP3    H142603   5.378   1.707  11.019 -0.6140  0.2074  0.4066
 6136TIP3    H242604   5.475   1.633  10.931 -0.4865 -0.2105  0.8929
 6137TIP3   OH242605   2.369   4.621  10.954 -0.3024  0.3171  0.8629
 6137TIP3    H142606   2.380   4.712  10.925 -2.9211  0.9526  1.6735
 6137TIP3    H242607   2.444   4.606  11.013  0.3208  1.8412  0.5142
 6138TIP3   OH242608   8.027   2.387  10.465  0.7858  0.1302  0.0513
 6138TIP3    H142609   8.118   2.366  10.484  0.7588 -1.2875 -1.1825
 6138TIP3    H242610   8.031   2.459  10.403  1.1538 -0.8921 -1.1552
 6139TIP3   OH242611   1.463   0.705  11.021  0.3217  0.1500  0.1125
 6139TIP3    H142612   1.554   0.685  11.044  1.0645 -1.1969 -3.3527
 6139TIP3    H242613   1.462   0.703  10.925 -3.0545  1.7702 -0.0250
 6140TIP3   OH242614   5.711   1.328  10.825  0.1902  0.2662  0.3774
 6140TIP3    H142615   5.782   1.390  10.809 -1.5757  2.0780 -0.8358
 6140TIP3    H242616   5.746   1.243  10.796  0.7928  1.6300 -3.4590
 6141TIP3   OH242617   5.390   0.219  12.072  0.0955  0.3560 -0.2910
 6141TIP3    H142618   5.400   0.204  12.166 -1.8129  0.2520 -0.0582
 6141TIP3    H242619   5.375   0.132  12.035  0.6001  0.4231 -0.6635
 6142TIP3   OH242620   5.072   1.878  11.596 -0.5446 -0.8408  0.1831
 6142TIP3    H142621   5.123   1.910  11.671 -1.4540 -0.3633  0.6155
 6142TIP3    H242622   5.093   1.939  11.525 -1.6363  0.2699  0.7749
 6143TIP3   OH242623   6.407   0.817  12.949 -0.2993  0.2309  0.0821
 6143TIP3    H142624   6.315   0.840  12.934 -0.9747 -0.9083  2.0989
 6143TIP3    H242625   6.407   0.722  12.960  1.0895  0.2393  0.3540
 6144TIP3   OH242626   4.834   1.407  12.403 -0.3008  0.0611 -0.8090
 6144TIP3    H142627   4.872   1.454  12.477 -0.1520 -1.0904 -0.1294
 6144TIP3    H242628   4.756   1.457  12.380  0.2516  1.0381 -0.5907
 6145TIP3   OH242629   6.743   6.629  11.148  0.0413 -0.2456 -0.3990
 6145TIP3    H142630   6.834   6.658  11.133 -0.0377  1.5784  2.1192
 6145TIP3    H242631   6.709   6.613  11.060  2.7194 -0.8536 -1.4455
 6146TIP3   OH242632   7.732   0.003  11.333  0.3422  0.3802 -0.0142
 6146TIP3    H142633   7.765   0.090  11.355  0.5567 -0.1162  1.7341
 6146TIP3    H242634   7.745  -0.049  11.412 -0.0087 -1.1887 -0.9421
 6147TIP3   OH242635   6.214   6.761  10.774  0.4581  0.0607 -0.2192
 6147TIP3    H142636   6.243   6.674  10.801 -0.1939 -0.1778 -0.2779
 6147TIP3    H242637   6.292   6.802  10.737  1.2332  0.1688  1.4272
 6148TIP3   OH242638   4.366   7.156  11.538 -0.2477  0.1839  0.5213
 6148TIP3    H142639   4.326   7.243  11.536  0.5304  0.5491  0.2947
 6148TIP3    H242640   4.314   7.106  11.600  0.0863  1.2110  1.6666
 6149TIP3   OH242641   5.141   3.583  12.272 -0.0438 -0.0925 -0.0848
 6149TIP3    H142642   5.190   3.626  12.202  0.8507  1.7109  1.5837
 6149TIP3    H242643   5.171   3.492  12.270  0.4834  0.0865 -1.5619
 6150TIP3   OH242644   2.230   5.285  11.909  0.2361 -0.1511 -0.2371
 6150TIP3    H142645   2.302   5.228  11.883 -0.1173 -0.6426 -0.1506
 6150TIP3    H242646   2.153   5.247  11.866 -0.0879 -0.0410  0.2427
 6151TIP3   OH242647   0.400   0.574  11.425  0.2540 -0.6470 -0.0122
 6151TIP3    H142648   0.484   0.535  11.399  0.4920 -1.5277  1.9218
 6151TIP3    H242649   0.352   0.502  11.465  0.0621  0.6468  2.2318
 6152TIP3   OH242650   1.924   3.393  11.045 -0.1123  0.0840  0.8239
 6152TIP3    H142651   2.009   3.348  11.047  0.9966  1.9751 -0.2845
 6152TIP3    H242652   1.917   3.434  11.131  1.2416  1.7516  0.2126
 6153TIP3   OH242653   1.304   6.752  11.109  0.3173  0.2517 -0.2643
 6153TIP3    H142654   1.209   6.738  11.115  0.3142 -0.5849 -1.6337
 6153TIP3    H242655   1.342   6.682  11.162  0.1652  0.5279  0.2075
 6154TIP3   OH242656   7.632   3.847  11.721 -0.0910 -0.5631  0.3777
 6154TIP3    H142657   7.658   3.777  11.780 -0.6483 -1.2735 -0.1884
 6154TIP3    H242658   7.635   3.807  11.634 -1.9497 -0.3901  0.1795
 6155TIP3   OH242659   2.464   1.439  10.677  0.4502 -0.5032 -0.4636
 6155TIP3    H142660   2.464   1.449  10.773  2.0025 -0.7006 -0.4075
 6155TIP3    H242661   2.556   1.448  10.653 -0.1411  2.0600 -2.2302
 6156TIP3   OH242662   0.623   2.768  11.123  0.9345  0.5428 -0.6693
 6156TIP3    H142663   0.655   2.849  11.163  1.6234  0.6114 -1.3393
 6156TIP3    H242664   0.542   2.794  11.078 -0.4650  0.2490  1.5165
 6157TIP3   OH242665   7.485   5.356  10.786 -0.2624 -0.0159  0.6231
 6157TIP3    H142666   7.407   5.411  10.792 -0.5576 -0.2068 -0.9134
 6157TIP3    H242667   7.550   5.401  10.841 -0.9702  1.0216  0.6463
 6158TIP3   OH242668   7.607   7.733  11.333  0.1396  0.2993  0.3360
 6158TIP3    H142669   7.638   7.673  11.400  0.0753 -0.2979 -0.1627
 6158TIP3    H242670   7.660   7.713  11.256 -0.0435  0.7193  0.0943
 6159TIP3   OH242671   3.001   0.242  11.780 -0.0044  0.7149  0.4780
 6159TIP3    H142672   3.015   0.151  11.809  1.7844  0.7288 -0.2150
 6159TIP3    H242673   2.923   0.270  11.827 -0.7215 -1.2550  0.5602
 6160TIP3   OH242674   7.723   3.183  10.675 -0.0994  0.0832  0.0350
 6160TIP3    H142675   7.674   3.254  10.715 -0.0438 -0.0535  0.3509
 6160TIP3    H242676   7.775   3.225  10.606  1.1811  0.6178  1.2901
 6161TIP3   OH242677   1.186   7.435  10.357  0.1032  0.1412  0.0923
 6161TIP3    H142678   1.273   7.426  10.395  1.1271 -2.3016 -2.4631
 6161TIP3    H242679   1.201   7.477  10.272 -1.2193 -0.2663 -0.3652
 6162TIP3   OH242680   2.547   2.900  11.675 -0.4817 -0.1545 -0.4252
 6162TIP3    H142681   2.606   2.975  11.685 -0.5702 -0.2012  0.4603
 6162TIP3    H242682   2.564   2.846  11.751 -1.3444 -0.4013 -0.4032
 6163TIP3   OH242683   6.925   3.626  12.271 -0.1324 -0.0400 -0.3936
 6163TIP3    H142684   6.906   3.539  12.237  0.8059 -0.4676  0.1476
 6163TIP3    H242685   6.992   3.612  12.338 -0.5270  1.0067  0.2458
 6164TIP3   OH242686   3.973   4.640  10.948 -0.3149 -0.5675 -0.0238
 6164TIP3    H142687   3.901   4.578  10.961 -0.5467 -0.6091 -1.4029
 6164TIP3    H242688   4.024   4.634  11.029 -0.2690 -2.6468 -0.1462
 6165TIP3   OH242689   2.615   5.742  10.446  0.0623 -0.1423 -0.0145
 6165TIP3    H142690   2.710   5.753  10.435 -0.0238 -0.1455 -0.8221
 6165TIP3    H242691   2.587   5.820  10.494  0.5257 -0.3231  0.5658
 6166TIP3   OH242692   1.692   6.627  11.623  0.0393  0.2195 -0.1421
 6166TIP3    H142693   1.741   6.545  11.617 -0.1518  0.1712 -1.2247
 6166TIP3    H242694   1.747   6.692  11.580 -0.5687  0.2943 -0.8236
 6167TIP3   OH242695   0.831   0.771  12.155 -0.7332  0.1703 -0.0611
 6167TIP3    H142696   0.872   0.698  12.201 -1.5864 -1.0406 -1.1403
 6167TIP3    H242697   0.776   0.813  12.221  0.3456  0.3255  0.7630
 6168TIP3   OH242698   2.386   3.734  12.335 -0.3690  0.7043  0.0092
 6168TIP3    H142699   2.302   3.709  12.297  1.6483  0.4375 -5.1093
 6168TIP3    H242700   2.370   3.820  12.374 -2.7704  1.3973 -2.2088
 6169TIP3   OH242701   3.412   2.286  16.205  0.1869  0.1048 -0.0586
 6169TIP3    H142702   3.376   2.253  16.123 -2.1628 -2.7567  1.8969
 6169TIP3    H242703   3.506   2.267  16.200  0.1334  0.2343 -2.1400
 6170TIP3   OH242704   7.491   5.695  11.503 -0.0939  0.2608  0.4073
 6170TIP3    H142705   7.567   5.735  11.460 -0.4373  2.1018  1.4140
 6170TIP3    H242706   7.523   5.670  11.590 -0.8806  2.3121  1.3722
 6171TIP3   OH242707   4.458   4.317  11.150  0.1594  0.1584 -0.5222
 6171TIP3    H142708   4.450   4.226  11.122  0.7660  0.3056 -1.2025
 6171TIP3    H242709   4.551   4.338  11.140 -0.0791  1.0504 -1.0093
 6172TIP3   OH242710   0.586   8.022  11.503  0.6106  0.1500 -0.1589
 6172TIP3    H142711   0.521   8.078  11.546  0.9746  0.0707  0.5144
 6172TIP3    H242712   0.595   8.058  11.415  3.0112  3.1121  1.0889
 6173TIP3   OH242713   7.311   3.526  10.953  0.4935 -0.1713  0.4906
 6173TIP3    H142714   7.218   3.548  10.948  0.5127 -0.2493 -0.6646
 6173TIP3    H242715   7.314   3.447  11.007 -0.1460 -0.3311  0.3097
 6174TIP3   OH242716   0.138   2.022  12.879  0.5526  0.3799 -0.1393
 6174TIP3    H142717   0.053   2.046  12.914  0.5567 -0.2141  0.2866
 6174TIP3    H242718   0.195   2.015  12.956  0.8918  0.4130 -0.3856
 6175TIP3   OH242719   1.096   6.127  10.597 -0.0453  0.2227  0.5534
 6175TIP3    H142720   1.072   6.212  10.633 -0.5369 -0.6825  2.5215
 6175TIP3    H242721   1.020   6.100  10.545 -0.2377  0.6016  0.6367
 6176TIP3   OH242722   4.352   7.784  12.380 -0.4261 -0.0659 -0.1413
 6176TIP3    H142723   4.265   7.798  12.342  0.0334  1.0817 -0.8075
 6176TIP3    H242724   4.391   7.871  12.385  0.8289 -0.6006 -0.1802
 6177TIP3   OH242725   2.551   4.798  11.922  0.4357 -0.1582 -0.1694
 6177TIP3    H142726   2.586   4.885  11.906 -0.6455 -0.1104 -2.7851
 6177TIP3    H242727   2.517   4.770  11.837 -1.2418 -2.2381  1.0942
 6178TIP3   OH242728   7.182   6.312  12.605  0.1924 -0.5306 -0.3697
 6178TIP3    H142729   7.118   6.336  12.672 -0.5326 -0.8828 -0.9250
 6178TIP3    H242730   7.258   6.282  12.654  0.9557  2.3030  0.3605
 6179TIP3   OH242731   1.086   8.221  10.665 -0.3884 -0.9112  0.6040
 6179TIP3    H142732   1.059   8.217  10.757  1.4474 -1.6203  1.1593
 6179TIP3    H242733   1.105   8.313  10.649  1.9579 -1.1112  1.8210
 6180TIP3   OH242734   5.843   1.687  11.606 -0.5045 -0.8442  0.1014
 6180TIP3    H142735   5.907   1.727  11.548 -0.9758 -0.2494 -0.0143
 6180TIP3    H242736   5.764   1.677  11.553 -1.3874  0.9862  0.9971
 6181TIP3   OH242737   0.665   2.221  11.263  0.2351 -0.1156 -0.0068
 6181TIP3    H142738   0.653   2.273  11.184  0.8324 -1.0325 -0.7289
 6181TIP3    H242739   0.601   2.151  11.256 -1.1628  0.9424  1.3862
 6182TIP3   OH242740   3.452   8.137  12.523 -0.2245 -0.0241  0.1424
 6182TIP3    H142741   3.493   8.052  12.533  0.3475  0.1742 -0.4468
 6182TIP3    H242742   3.480   8.187  12.600  1.2524  0.3433 -0.5985
 6183TIP3   OH242743   7.737   2.806  10.258 -0.4422  0.7472  0.3360
 6183TIP3    H142744   7.668   2.762  10.307 -0.3704  1.3775  1.0166
 6183TIP3    H242745   7.809   2.743  10.255 -1.1548 -0.0495 -0.6800
 6184TIP3   OH242746   0.795   0.913  10.475  0.3401  0.7082 -0.1043
 6184TIP3    H142747   0.735   0.960  10.534 -2.5288 -2.6449 -0.0212
 6184TIP3    H242748   0.782   0.956  10.390 -2.4261  0.0524 -0.1101
 6185TIP3   OH242749   3.547   5.117  10.372  0.0420 -0.0277  0.3503
 6185TIP3    H142750   3.587   5.033  10.396  0.2276  0.1964  0.8325
 6185TIP3    H242751   3.602   5.183  10.414  0.2715  0.3700 -0.5584
 6186TIP3   OH242752   3.437   5.942  12.136  0.3122  0.7932 -0.3518
 6186TIP3    H142753   3.493   5.985  12.201  1.3469  0.7604 -1.1862
 6186TIP3    H242754   3.499   5.896  12.079 -0.6312  0.1347 -0.8645
 6187TIP3   OH242755   0.837   3.251  12.824  0.3184 -0.1041 -0.2460
 6187TIP3    H142756   0.744   3.265  12.807  0.1981  0.6801  0.9102
 6187TIP3    H242757   0.853   3.160  12.800 -0.4001  0.1737 -1.8601
 6188TIP3   OH242758   7.879   5.285  10.543 -0.1507 -0.2032 -0.4495
 6188TIP3    H142759   7.843   5.289  10.632 -1.1662 -1.8410 -0.7388
 6188TIP3    H242760   7.970   5.257  10.555 -0.3891 -0.7819  0.0611
 6189TIP3   OH242761   6.056   3.695  11.059 -0.0863 -0.1836 -0.2398
 6189TIP3    H142762   6.092   3.784  11.057 -0.3672 -0.0847 -0.9737
 6189TIP3    H242763   6.130   3.639  11.034 -0.0766 -0.0977 -0.4076
 6190TIP3   OH242764   3.990   7.155  11.867  0.2425  0.3647 -0.4137
 6190TIP3    H142765   4.017   7.121  11.781 -0.0321 -0.4850 -0.1729
 6190TIP3    H242766   3.971   7.247  11.851 -1.3760 -0.1177 -1.6569
 6191TIP3   OH242767   0.272   7.769  10.878  0.1571 -0.5544  0.1314
 6191TIP3    H142768   0.226   7.851  10.857 -1.8168 -1.0534  2.1322
 6191TIP3    H242769   0.299   7.735  10.793 -1.6261  0.7031 -1.0197
 6192TIP3   OH242770   4.098   6.631  11.907 -0.6244 -0.9834 -0.5291
 6192TIP3    H142771   4.106   6.550  11.857  0.5740 -0.3292 -1.4294
 6192TIP3    H242772   4.188   6.654  11.931 -0.9445  0.0884 -0.2985
 6193TIP3   OH242773   0.176   1.424  10.660  0.6207 -0.0823 -0.0191
 6193TIP3    H142774   0.138   1.502  10.619  0.3611 -0.3404 -0.2761
 6193TIP3    H242775   0.236   1.389  10.594 -1.5156 -1.8224 -1.1628
 6194TIP3   OH242776   1.987   0.492  11.504  0.4052  0.1474  0.5734
 6194TIP3    H142777   1.954   0.449  11.583 -0.1872 -0.0446  0.2309
 6194TIP3    H242778   1.920   0.475  11.438  0.5140  0.9941  0.2382
 6195TIP3   OH242779   8.146   3.861  11.925  0.2214  0.4869  0.0138
 6195TIP3    H142780   8.115   3.945  11.892  1.3780  1.2617  0.8291
 6195TIP3    H242781   8.074   3.828  11.979 -0.0804  1.1582  0.0277
 6196TIP3   OH242782   5.920   3.341  11.747 -0.4585  0.0506  0.4758
 6196TIP3    H142783   5.943   3.422  11.701  1.7905 -0.2913  0.8679
 6196TIP3    H242784   5.995   3.283  11.732 -0.7466 -0.9420  2.4874
 6197TIP3   OH242785   5.344   3.922  10.918 -0.1606  0.4839  0.2367
 6197TIP3    H142786   5.365   4.015  10.926  1.1265  0.1882  0.5229
 6197TIP3    H242787   5.416   3.885  10.868  0.3622 -0.6883  1.7669
 6198TIP3   OH242788   6.091   0.438  10.768  0.2867  0.0751 -0.1989
 6198TIP3    H142789   6.141   0.472  10.843  1.2413  1.7194 -1.5160
 6198TIP3    H242790   6.001   0.464  10.786 -0.0221 -1.9134  1.6399
 6199TIP3   OH242791   2.750   4.732  11.038 -0.5720  0.5749 -0.6356
 6199TIP3    H142792   2.694   4.658  11.059  1.8027 -1.1255  0.0814
 6199TIP3    H242793   2.740   4.743  10.943 -0.1297 -1.4506 -0.9594
 6200TIP3   OH242794   6.911   0.113  11.533  0.5389 -0.0304 -0.2200
 6200TIP3    H142795   6.977   0.048  11.560 -0.2891 -0.4986  0.7468
 6200TIP3    H242796   6.937   0.138  11.445  2.1643 -0.0134  0.2257
 6201TIP3   OH242797   6.601   3.020  11.749 -0.7220 -0.0350 -0.0956
 6201TIP3    H142798   6.565   3.076  11.680 -1.8331 -0.8487 -0.2037
 6201TIP3    H242799   6.529   2.961  11.772  0.4924 -1.5973 -0.1604
 6202TIP3   OH242800   6.717   7.604  12.803  0.2593 -0.2014 -0.1487
 6202TIP3    H142801   6.729   7.519  12.760  0.1185 -0.6120  0.6053
 6202TIP3    H242802   6.626   7.603  12.833  0.2211  0.2710 -0.2434
 6203TIP3   OH242803   3.613   2.215  12.889  0.6593 -0.1483  0.3638
 6203TIP3    H142804   3.569   2.152  12.947  0.4336  0.2568  0.6329
 6203TIP3    H242805   3.559   2.216  12.810  0.9588 -0.6899  0.1446
 6204TIP3   OH242806   4.906   7.811  10.544 -0.9517 -0.7493  0.0464
 6204TIP3    H142807   4.959   7.862  10.483 -1.5819  0.8074  0.7442
 6204TIP3    H242808   4.915   7.856  10.627 -2.7052 -0.9196  0.3646
 6205TIP3   OH242809   3.608   0.465  12.013  0.2471 -0.2181 -0.0213
 6205TIP3    H142810   3.637   0.486  11.924  0.4274 -1.8145 -0.3655
 6205TIP3    H242811   3.547   0.535  12.036  1.9550  1.5056 -0.4850
 6206TIP3   OH242812   6.408   3.838  10.994 -0.5246  0.3386 -0.3290
 6206TIP3    H142813   6.478   3.890  10.953 -0.3665  0.5445  0.1961
 6206TIP3    H242814   6.405   3.869  11.084 -1.0918  0.1108 -0.2685
 6207TIP3   OH242815   5.307   1.200  11.707  0.5905  0.1743  0.6070
 6207TIP3    H142816   5.389   1.158  11.731  0.1837 -2.0046 -1.4514
 6207TIP3    H242817   5.242   1.162  11.767  0.7766  0.6678  1.1396
 6208TIP3   OH242818   0.275   0.959  11.622  1.2572  0.0718 -0.1141
 6208TIP3    H142819   0.301   0.923  11.537 -0.2750 -1.5858  0.0749
 6208TIP3    H242820   0.309   0.898  11.686  0.7297  0.2662  0.3596
 6209TIP3   OH242821   0.480   5.333  10.609  0.2963 -0.1702 -0.0801
 6209TIP3    H142822   0.492   5.427  10.619  0.5095  0.0297 -1.8210
 6209TIP3    H242823   0.385   5.321  10.602  0.3124  0.0116 -0.6155
 6210TIP3   OH242824   0.548   5.804  11.554  0.4984  0.0425 -0.0838
 6210TIP3    H142825   0.535   5.898  11.548  1.2329  0.1789  0.4368
 6210TIP3    H242826   0.497   5.768  11.480  1.2941  0.9315 -1.0929
 6211TIP3   OH242827   0.351   1.364  11.437 -0.0653 -0.2642 -0.4506
 6211TIP3    H142828   0.303   1.299  11.488  1.3642 -1.4210 -0.5445
 6211TIP3    H242829   0.435   1.323  11.418  0.0695  0.7925 -2.3354
 6212TIP3   OH242830   0.872   7.589  11.353 -0.7439  0.6400  0.0803
 6212TIP3    H142831   0.827   7.672  11.339 -0.8790  0.5448 -0.0502
 6212TIP3    H242832   0.960   7.614  11.382 -1.2601  0.8177  1.5652
 6213TIP3   OH242833   0.456   4.554  11.131  0.2728 -0.2811 -0.2416
 6213TIP3    H142834   0.384   4.615  11.145 -1.2048 -1.7279 -1.0727
 6213TIP3    H242835   0.525   4.583  11.191 -1.1378  0.9404  0.8654
 6214TIP3   OH242836   4.179   2.431  11.973 -0.0593  0.1934 -0.1218
 6214TIP3    H142837   4.230   2.376  12.033 -0.9611  0.2258  0.7150
 6214TIP3    H242838   4.238   2.502  11.949  0.3866  0.0820  0.6037
 6215TIP3   OH242839   0.967   1.898  12.271  0.2035  0.6160  0.5002
 6215TIP3    H142840   0.982   1.822  12.214 -0.2255  0.2013  0.9250
 6215TIP3    H242841   0.871   1.908  12.271  0.2441  0.9933  0.6593
 6216TIP3   OH242842   6.720   1.018  12.510  0.0670  0.1829 -0.1388
 6216TIP3    H142843   6.631   0.983  12.508  0.4715 -0.8746 -0.3833
 6216TIP3    H242844   6.726   1.075  12.434 -0.4410  0.3640 -0.0444
 6217TIP3   OH242845   2.840   7.705  11.947  0.4044 -0.3776 -0.2427
 6217TIP3    H142846   2.923   7.661  11.962  0.0067 -1.0489  0.0342
 6217TIP3    H242847   2.822   7.692  11.854  0.8990  0.2939 -0.4382
 6218TIP3   OH242848   3.262   0.070  12.653  0.2894 -0.3101  0.5281
 6218TIP3    H142849   3.331   0.022  12.699  1.2519  0.9166  0.4126
 6218TIP3    H242850   3.302   0.098  12.571 -0.0901  1.0178  0.7656
 6219TIP3   OH242851   0.895   4.244  12.446 -0.2167 -0.1606  0.4510
 6219TIP3    H142852   0.951   4.198  12.384  2.4185  0.3479  2.2743
 6219TIP3    H242853   0.934   4.331  12.453 -1.0339  0.1149  2.0384
 6220TIP3   OH242854   1.563   6.298  12.150  0.1101  0.4154  0.2750
 6220TIP3    H142855   1.530   6.220  12.105 -1.2816  0.4407  1.2053
 6220TIP3    H242856   1.544   6.370  12.089 -1.3701  0.3965  0.6754
 6221TIP3   OH242857   4.838   3.383  11.293 -0.2993  0.5934  0.2089
 6221TIP3    H142858   4.891   3.329  11.235 -0.9351  1.4754 -1.2559
 6221TIP3    H242859   4.899   3.412  11.361  0.4527 -0.4967  0.0325
 6222TIP3   OH242860   5.637   1.873  12.467 -0.1026  0.2247  0.3645
 6222TIP3    H142861   5.706   1.820  12.425 -1.1722 -1.5169  0.6877
 6222TIP3    H242862   5.679   1.956  12.487  1.7926 -0.6263  0.1393
 6223TIP3   OH242863   7.803   0.490  10.553 -0.3384 -0.4907 -0.5113
 6223TIP3    H142864   7.760   0.406  10.565  0.5335 -0.8919 -0.1681
 6223TIP3    H242865   7.782   0.515  10.463 -1.6892 -0.4374 -0.2093
 6224TIP3   OH242866   6.240   5.633  11.485 -0.0703  0.2373  0.2503
 6224TIP3    H142867   6.218   5.572  11.415 -0.4964  0.6009  0.0668
 6224TIP3    H242868   6.335   5.642  11.480 -0.2410  1.7411 -1.5381
 6225TIP3   OH242869   0.192   0.197  10.955 -0.2106  0.5874 -0.1993
 6225TIP3    H142870   0.179   0.275  10.901 -0.7259  0.8618  0.3184
 6225TIP3    H242871   0.112   0.146  10.943  0.1469  0.0980 -0.5809
 6226TIP3   OH242872   1.598   0.489  11.550 -0.1454 -0.3867  0.2557
 6226TIP3    H142873   1.628   0.574  11.517 -1.2200  0.6310  1.7238
 6226TIP3    H242874   1.519   0.510  11.601  0.2954 -2.0952  1.7328
 6227TIP3   OH242875   1.766   4.884  12.048  0.3859  0.3196  0.1230
 6227TIP3    H142876   1.699   4.943  12.013  0.5348  0.0991 -0.5595
 6227TIP3    H242877   1.847   4.935  12.045  0.2142  0.6617  1.1555
 6228TIP3   OH242878   8.338   4.038  11.310  0.1202  0.0179  0.1841
 6228TIP3    H142879   8.266   4.005  11.257 -0.1127  0.3126  0.3155
 6228TIP3    H242880   8.299   4.057  11.395  0.9432 -2.7870  1.3056
 6229TIP3   OH242881   0.109   6.066  11.659  0.7317 -0.6801  0.3404
 6229TIP3    H142882   0.065   6.011  11.724 -1.3223  4.4503  3.9505
 6229TIP3    H242883   0.171   6.119  11.711  1.2880  1.6060 -2.3972
 6230TIP3   OH242884   2.633   2.991  10.895  0.0526 -0.4232 -0.4306
 6230TIP3    H142885   2.542   3.009  10.917  0.6678 -1.1667  3.3336
 6230TIP3    H242886   2.669   3.076  10.870 -1.5323 -0.0777 -1.7183
 6231TIP3   OH242887   6.897   4.499  11.485  0.1337 -1.1118  0.1808
 6231TIP3    H142888   6.974   4.505  11.542  0.9101 -1.7149 -0.7826
 6231TIP3    H242889   6.872   4.590  11.468  1.2425 -0.8880 -0.3041
 6232TIP3   OH242890   2.761   4.582  12.373 -0.0791 -0.2200 -0.4728
 6232TIP3    H142891   2.785   4.510  12.314  1.0653  0.6908 -1.1707
 6232TIP3    H242892   2.688   4.548  12.425  1.6758 -2.6076  0.6220
 6233TIP3   OH242893   2.858   8.361  11.326  0.7578  0.1670 -0.3885
 6233TIP3    H142894   2.880   8.403  11.242  0.8433 -0.9145 -0.9151
 6233TIP3    H242895   2.808   8.428  11.373  1.3333  1.0521 -0.9978
 6234TIP3   OH242896   5.856   5.652  11.980  0.4025  0.1269 -0.2126
 6234TIP3    H142897   5.816   5.697  11.906 -1.7584 -1.1417  0.0935
 6234TIP3    H242898   5.782   5.625  12.034  1.8080 -0.8219  1.3210
 6235TIP3   OH242899   0.783   2.548  12.304  0.0829  0.0798  0.0999
 6235TIP3    H142900   0.779   2.458  12.273  0.2216 -0.3670  1.3423
 6235TIP3    H242901   0.712   2.593  12.259  0.4103 -0.4820 -1.0172
 6236TIP3   OH242902   2.896   2.343  12.155  0.2946  0.5199  0.6452
 6236TIP3    H142903   2.955   2.411  12.122  0.6243 -0.4880 -0.9229
 6236TIP3    H242904   2.945   2.261  12.145 -0.2374 -0.0170  2.1585
 6237TIP3   OH242905   8.198   6.473  10.895  0.2915  0.0928 -0.1079
 6237TIP3    H142906   8.192   6.406  10.827  0.9633 -0.4462  0.3475
 6237TIP3    H242907   8.107   6.493  10.917  0.0562 -1.4773  0.5252
 6238TIP3   OH242908   3.692   8.295  11.430  0.0498 -0.2328 -0.4488
 6238TIP3    H142909   3.708   8.308  11.523 -0.7544 -0.7998 -0.2148
 6238TIP3    H242910   3.778   8.278  11.392  0.7368  2.4348 -0.2485
 6239TIP3   OH242911   7.149   3.521  10.299 -0.1256 -0.1102  0.4530
 6239TIP3    H142912   7.193   3.549  10.379 -1.4774 -0.3178  1.3058
 6239TIP3    H242913   7.072   3.473  10.329  0.2383 -1.6924 -0.9816
 6240TIP3   OH242914   7.173   0.220  11.836  1.1731  0.2240  0.1499
 6240TIP3    H142915   7.170   0.179  11.749  1.9946  1.1537 -0.3458
 6240TIP3    H242916   7.190   0.147  11.896  2.2409 -0.2379 -0.6635
 6241TIP3   OH242917   2.876   7.299  10.716 -0.1222 -0.2500 -0.1168
 6241TIP3    H142918   2.797   7.330  10.671  0.8021  0.5248 -1.2512
 6241TIP3    H242919   2.849   7.288  10.807 -1.4976  0.1459 -0.4569
 6242TIP3   OH242920   0.063   1.404  10.897 -0.5270  0.1947 -0.6619
 6242TIP3    H142921   0.109   1.422  10.816 -0.6264 -0.1570 -0.7989
 6242TIP3    H242922   0.018   1.321  10.881  0.7895 -0.7602  0.3072
 6243TIP3   OH242923   7.626   1.133  12.081  0.0482  0.1076 -0.2358
 6243TIP3    H142924   7.692   1.175  12.026 -0.4322 -0.1835 -1.0414
 6243TIP3    H242925   7.623   1.187  12.160 -0.3337  1.4026 -1.1069
 6244TIP3   OH242926   5.618   6.654  11.663 -0.5627 -0.2875 -0.2172
 6244TIP3    H142927   5.697   6.601  11.660  0.2998  0.9888 -0.8023
 6244TIP3    H242928   5.625   6.702  11.746 -0.0913  0.7213 -0.8160
 6245TIP3   OH242929   1.719   6.262  11.368  0.6928  0.1706  0.0572
 6245TIP3    H142930   1.663   6.255  11.291 -1.3275 -1.7797  1.5768
 6245TIP3    H242931   1.728   6.172  11.400  2.8983  0.7057  1.1712
 6246TIP3   OH242932   0.476   0.179  11.548  0.1770  0.6817  0.1165
 6246TIP3    H142933   0.559   0.160  11.503 -0.5983  2.4863 -2.2898
 6246TIP3    H242934   0.503   0.201  11.637  2.0537 -0.7644 -0.0183
 6247TIP3   OH242935   7.555   5.079  11.268 -0.4268  0.5051 -0.1999
 6247TIP3    H142936   7.491   5.097  11.199 -0.2340  1.5620 -0.1122
 6247TIP3    H242937   7.605   5.160  11.277 -1.2903  0.8683  2.0648
 6248TIP3   OH242938   3.137   6.686  10.933  0.3451  0.0337 -0.1209
 6248TIP3    H142939   3.077   6.703  11.006  0.6634  2.6005 -0.3619
 6248TIP3    H242940   3.223   6.712  10.965  0.8157 -0.5759 -0.8304
 6249TIP3   OH242941   6.714   7.906  11.153 -0.0625  0.2865  0.0121
 6249TIP3    H142942   6.702   7.993  11.191  0.0810  0.5669 -0.5801
 6249TIP3    H242943   6.739   7.922  11.062  2.9964 -0.2755  0.6438
 6250TIP3   OH242944   1.745   0.866  11.322  0.1253 -0.0010  0.4703
 6250TIP3    H142945   1.763   0.799  11.256 -0.1206  0.6418 -0.2604
 6250TIP3    H242946   1.705   0.818  11.395 -0.4271 -0.5922 -0.2109
 6251TIP3   OH242947   2.904   7.405  11.186 -0.4882  0.7087  0.7606
 6251TIP3    H142948   2.906   7.453  11.103 -1.2522 -0.2966  0.1462
 6251TIP3    H242949   2.956   7.459  11.246 -1.7331  2.5772  0.2388
 6252TIP3   OH242950   2.512   5.106  11.148  0.5155 -0.1868 -0.3404
 6252TIP3    H142951   2.581   5.093  11.083  1.9365  0.1299  1.0604
 6252TIP3    H242952   2.523   5.196  11.177  0.5565 -0.6166  1.0597
 6253TIP3   OH242953   2.623   3.556  10.910 -0.2908 -0.0903 -0.2171
 6253TIP3    H142954   2.705   3.570  10.959 -0.4291  0.4566 -0.1330
 6253TIP3    H242955   2.586   3.644  10.901 -0.2643 -0.1788 -1.3238
 6254TIP3   OH242956   5.546   6.911  10.569 -0.0701  0.4296  0.4888
 6254TIP3    H142957   5.521   6.897  10.478  1.6868  0.5330 -0.0447
 6254TIP3    H242958   5.563   6.824  10.604  0.6991  0.4737  0.2542
 6255TIP3   OH242959   4.035   1.434  12.469 -0.2171  0.3474  0.1711
 6255TIP3    H142960   4.096   1.445  12.541  0.5405 -0.2405 -0.3611
 6255TIP3    H242961   3.963   1.494  12.488  0.0527  0.3187  1.3186
 6256TIP3   OH242962   0.697   5.166  10.958 -0.8410  0.4774  0.2233
 6256TIP3    H142963   0.611   5.178  10.997 -1.3086 -0.3213 -0.5462
 6256TIP3    H242964   0.730   5.085  10.996 -0.2794  0.9476  0.7646
 6257TIP3   OH242965   0.011   6.493  10.989  0.4402 -0.1906 -0.6150
 6257TIP3    H142966  -0.073   6.494  10.942  0.2176 -0.5481 -0.2382
 6257TIP3    H242967   0.028   6.585  11.009 -0.2485 -0.1791 -0.0381
 6258TIP3   OH242968   0.351   2.801  12.390  0.0570  0.6590 -0.2407
 6258TIP3    H142969   0.280   2.816  12.327 -0.6034 -0.8174  0.1050
 6258TIP3    H242970   0.348   2.878  12.447 -1.7946  0.2956  0.2278
 6259TIP3   OH242971   2.553   7.110  11.267  0.4107  0.5110 -0.4092
 6259TIP3    H142972   2.552   7.017  11.288  0.0087  0.8475  1.2253
 6259TIP3    H242973   2.618   7.147  11.327 -1.0412  1.5943  0.5648
 6260TIP3   OH242974   3.606   3.003  11.071  1.3745  0.3215 -0.0109
 6260TIP3    H142975   3.645   2.919  11.048 -1.2650 -1.2317  0.6919
 6260TIP3    H242976   3.527   2.979  11.119  0.6206  3.2499  0.3650
 6261TIP3   OH242977   3.823   8.000  12.264  0.8011  0.5051  0.1956
 6261TIP3    H142978   3.749   7.967  12.213  0.1133  0.6661  1.0556
 6261TIP3    H242979   3.824   7.946  12.343  0.0197  2.0812  1.3462
 6262TIP3   OH242980   7.184   0.710  11.368 -0.2178  0.4736 -0.3247
 6262TIP3    H142981   7.220   0.668  11.289  1.3434  1.4323 -0.1726
 6262TIP3    H242982   7.225   0.663  11.441 -2.0217 -0.7239 -0.0371
 6263TIP3   OH242983   8.201   4.069  11.571  0.2220 -0.3153  0.5101
 6263TIP3    H142984   8.146   3.992  11.554  1.2521 -1.2542  1.3087
 6263TIP3    H242985   8.176   4.097  11.659 -0.1840  0.3201  0.2040
 6264TIP3   OH242986   7.165   6.132  10.814  0.4178  0.2079  0.3112
 6264TIP3    H142987   7.079   6.130  10.858  0.8760 -0.6458  1.1998
 6264TIP3    H242988   7.224   6.170  10.879  0.9753 -0.4442  0.1969
 6265TIP3   OH242989   3.126   5.677  10.913 -0.0380  0.1926  0.0127
 6265TIP3    H142990   3.038   5.691  10.949 -0.2297 -2.4178  0.7528
 6265TIP3    H242991   3.178   5.748  10.950 -1.4654  0.8150  0.9313
 6266TIP3   OH242992   7.810   4.054  11.770  0.0834  0.3746 -0.3754
 6266TIP3    H142993   7.840   4.067  11.860 -1.4530  1.3269  0.0309
 6266TIP3    H242994   7.794   3.960  11.763  0.3671  0.2757  0.2854
 6267TIP3   OH242995   8.060   6.763  12.449 -0.1038 -0.9615 -0.3032
 6267TIP3    H142996   8.014   6.712  12.516 -1.4673  0.4565 -0.1240
 6267TIP3    H242997   8.129   6.704  12.418 -0.6727 -2.3538  0.9579
 6268TIP3   OH242998   5.929   1.083  10.907  0.0792 -0.7748  0.2329
 6268TIP3    H142999   5.996   1.057  10.843 -0.8362 -1.0083 -0.6617
 6268TIP3    H243000   5.973   1.147  10.963  0.9189 -0.5864 -0.6082
 6269TIP3   OH243001   3.291   6.732  11.944 -0.0851 -0.4625 -0.4927
 6269TIP3    H143002   3.276   6.717  12.037  1.2023  0.9165 -0.0254
 6269TIP3    H243003   3.271   6.648  11.903 -0.3345 -1.2034  1.0612
 6270TIP3   OH243004   6.107   5.853  11.084 -0.4133  0.2010 -0.1632
 6270TIP3    H143005   6.058   5.841  11.003 -1.0836 -2.2421  0.5119
 6270TIP3    H243006   6.174   5.785  11.082  1.0071  1.5208  0.3651
 6271TIP3   OH243007   3.164   6.137  10.753  0.1008  0.5880 -0.0397
 6271TIP3    H143008   3.180   6.226  10.785 -0.5918  1.0255 -0.8868
 6271TIP3    H243009   3.090   6.106  10.805 -0.2417  0.8430 -0.3776
 6272TIP3   OH243010   2.992   3.570  11.391  0.3191  0.6817  0.5635
 6272TIP3    H143011   3.060   3.616  11.442 -1.0074  3.3453  0.1098
 6272TIP3    H243012   2.909   3.604  11.426 -0.6770  1.2027 -2.0688
 6273TIP3   OH243013   2.143   5.851  11.293 -0.0890  0.3806 -0.2580
 6273TIP3    H143014   2.103   5.937  11.282  0.8166  1.0925  1.6585
 6273TIP3    H243015   2.136   5.832  11.386  0.2363 -1.3841 -0.5555
 6274TIP3   OH243016   5.519   1.018  11.757  0.3711  0.1168  0.4104
 6274TIP3    H143017   5.514   0.926  11.781 -0.9918  0.2061  0.5534
 6274TIP3    H243018   5.611   1.041  11.767  0.5496 -0.9606  1.3756
 6275TIP3   OH243019   5.578   6.415  11.901  0.2784  0.0487  0.4138
 6275TIP3    H143020   5.670   6.400  11.881  0.3112 -0.3235  0.8385
 6275TIP3    H243021   5.548   6.333  11.939 -0.2487  0.1433  0.2089
 6276TIP3   OH243022   6.800   2.314  10.382 -0.2402  0.4167  0.2681
 6276TIP3    H143023   6.896   2.314  10.376 -0.2745 -1.1478 -1.0897
 6276TIP3    H243024   6.773   2.387  10.327  0.1511  0.2744 -0.1179
 6277TIP3   OH243025   5.885   2.657  11.324 -0.0343 -0.4348  0.4486
 6277TIP3    H143026   5.859   2.598  11.395 -0.6991 -1.5623 -0.6928
 6277TIP3    H243027   5.967   2.620  11.291  1.5157  1.3752  2.0392
 6278TIP3   OH243028   6.831   3.748  12.913  0.1873 -0.3194 -0.1648
 6278TIP3    H143029   6.882   3.690  12.857 -0.2838 -0.3543 -0.5612
 6278TIP3    H243030   6.741   3.718  12.903  0.1242 -0.4842  0.8030
 6279TIP3   OH243031   0.538   5.422  12.026  0.4549  0.2527  0.0919
 6279TIP3    H143032   0.480   5.348  12.008  3.1445 -1.6449 -1.7004
 6279TIP3    H243033   0.578   5.400  12.110 -0.9761  1.3327  1.1021
 6280TIP3   OH243034   6.973   8.012  11.936 -0.4768 -0.1990  0.3080
 6280TIP3    H143035   6.987   8.105  11.915  0.6840  0.2424  2.7181
 6280TIP3    H243036   7.037   7.993  12.005 -1.1272 -2.6428  0.3291
 6281TIP3   OH243037   3.014   7.954  11.801 -0.3063 -0.4013  1.1671
 6281TIP3    H143038   2.954   8.005  11.856 -1.3246  0.3999 -0.6036
 6281TIP3    H243039   3.053   7.890  11.861 -1.6922  0.1367  2.7198
 6282TIP3   OH243040   4.378   5.536  11.097  0.4230  0.2305 -0.2796
 6282TIP3    H143041   4.385   5.553  11.003 -1.8666 -2.6124 -1.1331
 6282TIP3    H243042   4.298   5.582  11.124 -0.0008 -0.5055 -0.2305
 6283TIP3   OH243043   6.611   3.574  12.076  0.1919 -0.0587  0.7775
 6283TIP3    H143044   6.613   3.557  11.982 -1.2392 -1.6186  0.9883
 6283TIP3    H243045   6.689   3.532  12.111  0.6331  0.3738  0.3295
 6284TIP3   OH243046   3.471   0.928  12.805  0.4208  0.2154  0.0816
 6284TIP3    H143047   3.560   0.951  12.833  0.0705 -0.3648  1.7524
 6284TIP3    H243048   3.459   0.838  12.836  0.5483 -1.1369 -3.3901
 6285TIP3   OH243049   7.183   3.301  11.777 -0.5172 -0.0498  0.1305
 6285TIP3    H143050   7.127   3.275  11.850  0.4040  1.4942  1.4663
 6285TIP3    H243051   7.240   3.369  11.813  1.3432 -0.6189 -1.4993
 6286TIP3   OH243052   4.497   6.749  10.745 -0.4657  0.4221  0.4101
 6286TIP3    H143053   4.449   6.791  10.816 -0.0479  0.1646  0.8532
 6286TIP3    H243054   4.431   6.732  10.678 -1.4009 -1.5497  1.7124
 6287TIP3   OH243055   8.206   0.336  11.457 -0.9547 -0.6069  0.0178
 6287TIP3    H143056   8.254   0.275  11.514 -0.7045  0.4350  0.9563
 6287TIP3    H243057   8.245   0.324  11.370 -1.6507 -2.5602 -0.0708
 6288TIP3   OH243058   0.694   6.220  10.190 -0.0176 -0.2939 -0.3544
 6288TIP3    H143059   0.724   6.293  10.136 -1.1275  0.1065 -0.4528
 6288TIP3    H243060   0.733   6.143  10.149  0.2637  0.1352 -0.9143
 6289TIP3   OH243061   6.189   3.315  11.130 -0.0845  0.0513 -0.1562
 6289TIP3    H143062   6.191   3.401  11.172 -1.7234 -0.6705  1.5448
 6289TIP3    H243063   6.228   3.329  11.044  2.5014  1.8370  1.1772
 6290TIP3   OH243064   5.592   2.687  11.881  0.5494  0.2931  0.4090
 6290TIP3    H143065   5.541   2.679  11.962  1.0810 -0.3213  0.6929
 6290TIP3    H243066   5.548   2.756  11.832  1.4588  2.2755  2.1917
 6291TIP3   OH243067   8.051   2.997  11.730 -0.0857 -0.2018  0.3420
 6291TIP3    H143068   7.982   2.976  11.793 -2.1498  0.7610 -1.4305
 6291TIP3    H243069   8.109   3.058  11.776 -0.9644 -0.2973  1.6095
 6292TIP3   OH243070   0.315   2.495  10.595 -0.1647  0.4263 -0.8145
 6292TIP3    H143071   0.309   2.492  10.691  2.2173 -0.7109 -0.6428
 6292TIP3    H243072   0.367   2.572  10.576  3.4703 -1.8170 -0.8051
 6293TIP3   OH243073   5.194   3.080  12.914  0.6437 -0.4529  0.1569
 6293TIP3    H143074   5.199   3.010  12.850 -1.1412 -0.9445  0.4985
 6293TIP3    H243075   5.112   3.065  12.961  1.0389  0.8886  1.3935
 6294TIP3   OH243076   7.495   1.101  11.260 -0.1946  0.8651 -0.1067
 6294TIP3    H143077   7.405   1.084  11.289 -0.4808  1.5328 -0.5789
 6294TIP3    H243078   7.521   1.020  11.215 -0.9217  1.0083 -0.8131
 6295TIP3   OH243079   2.155   6.561  10.459 -0.2494  0.6709 -0.4253
 6295TIP3    H143080   2.067   6.544  10.425  0.3460 -3.2331 -0.4560
 6295TIP3    H243081   2.145   6.638  10.514 -4.0625 -0.4171  0.6917
 6296TIP3   OH243082   2.249   3.386  10.440 -0.4205 -0.0518  0.3038
 6296TIP3    H143083   2.267   3.311  10.382 -1.5225  0.0599 -0.2210
 6296TIP3    H243084   2.324   3.390  10.499 -0.0173 -1.1465 -0.1115
 6297TIP3   OH243085   3.917   0.973  12.390  0.6090 -0.3123  0.1540
 6297TIP3    H143086   3.854   1.044  12.404  1.4746  0.2401  1.4411
 6297TIP3    H243087   3.879   0.921  12.319 -1.8541 -0.6369  1.5803
 6298TIP3   OH243088   4.658   1.913  12.216  0.1463  0.2547 -0.0202
 6298TIP3    H143089   4.719   1.978  12.250 -1.6121  0.9315  2.1519
 6298TIP3    H243090   4.618   1.955  12.140  0.8705  0.6518 -0.1903
 6299TIP3   OH243091   1.295   5.315  10.811  0.1460  0.0397  0.5050
 6299TIP3    H143092   1.204   5.326  10.784  0.8904  0.9371 -1.8671
 6299TIP3    H243093   1.317   5.397  10.856  0.2316  0.5311 -0.4063
 6300TIP3   OH243094   6.227   5.066  11.103 -0.1712  0.8818  0.5305
 6300TIP3    H143095   6.148   5.113  11.133 -0.3740  0.1473  1.1848
 6300TIP3    H243096   6.199   5.022  11.023  0.1558  2.2356 -0.3635
 6301TIP3   OH243097   1.259   7.162  12.428 -0.1832 -0.0675 -0.2512
 6301TIP3    H143098   1.282   7.073  12.402  0.1265  0.0547 -0.4062
 6301TIP3    H243099   1.329   7.216  12.391  0.2133  0.1273  0.7566
 6302TIP3   OH243100   2.415   1.707  11.164 -0.0601  0.3111 -0.6150
 6302TIP3    H143101   2.437   1.615  11.151  1.1200  0.7794 -2.3613
 6302TIP3    H243102   2.445   1.727  11.252  0.2028 -0.8217 -0.4350
 6303TIP3   OH243103   7.318   0.631  12.049  0.0455 -0.0246 -0.0863
 6303TIP3    H143104   7.294   0.708  12.100  2.0091 -0.8928  2.3243
 6303TIP3    H243105   7.288   0.557  12.101  0.6742 -0.9383 -0.9824
 6304TIP3   OH243106   4.202   5.555  12.724  0.3705 -0.3943 -0.2530
 6304TIP3    H143107   4.122   5.573  12.674  0.3527  1.7821  0.4714
 6304TIP3    H243108   4.172   5.541  12.813  0.7799  0.3581  0.0094
 6305TIP3   OH243109   2.028   4.979  11.336  0.8309  0.1564 -0.1686
 6305TIP3    H143110   2.015   4.905  11.276  0.1240 -0.3815  0.6362
 6305TIP3    H243111   2.048   4.939  11.420 -0.0683  0.8611  0.3962
 6306TIP3   OH243112   8.231   2.168  11.834  0.3773 -0.0096  0.1877
 6306TIP3    H143113   8.257   2.254  11.802  2.5704 -0.4790  0.5736
 6306TIP3    H243114   8.234   2.112  11.756 -3.8331  0.6898 -0.7135
 6307TIP3   OH243115   2.664   2.837  11.942 -0.0919  0.1910  0.0907
 6307TIP3    H143116   2.607   2.763  11.919  1.2462 -0.4261 -1.4382
 6307TIP3    H243117   2.747   2.796  11.967  1.2833  1.1342 -2.5048
 6308TIP3   OH243118   0.158   8.261  10.796 -0.1033  0.4885  0.6857
 6308TIP3    H143119   0.097   8.334  10.802 -0.2404  0.4946 -0.4369
 6308TIP3    H243120   0.244   8.298  10.817  0.0567  1.3407 -1.2485
 6309TIP3   OH243121   5.213   6.871  10.538 -0.1370  0.4109  0.1553
 6309TIP3    H143122   5.127   6.900  10.569  0.0505  2.5329 -1.0932
 6309TIP3    H243123   5.242   6.941  10.480  1.9021 -0.8521 -0.4484
 6310TIP3   OH243124   2.841   5.888  10.482  0.1900 -0.0604 -0.1292
 6310TIP3    H143125   2.823   5.975  10.519  0.9793  0.9527 -1.9895
 6310TIP3    H243126   2.926   5.897  10.439  0.5616 -1.9450  0.1185
 6311TIP3   OH243127   5.079   2.753  10.730 -0.0038 -0.7053  0.3643
 6311TIP3    H143128   5.077   2.665  10.691 -1.7877 -0.5420  0.0136
 6311TIP3    H243129   5.073   2.812  10.655 -1.1059 -0.3456  0.7198
 6312TIP3   OH243130   6.870   1.054  11.455 -0.2391 -0.1825  0.0985
 6312TIP3    H143131   6.861   1.008  11.539 -1.1265  1.8866  1.1957
 6312TIP3    H243132   6.962   1.040  11.431 -0.1749 -1.5160  0.9567
 6313TIP3   OH243133   0.475   4.170  11.274  0.5041  0.1410 -0.2528
 6313TIP3    H143134   0.459   4.246  11.330  1.3900  0.1908 -0.0426
 6313TIP3    H243135   0.549   4.196  11.220  0.2986 -0.2842 -0.7434
 6314TIP3   OH243136   6.778   1.276  11.971  0.5421 -0.0225 -0.4610
 6314TIP3    H143137   6.792   1.301  11.879 -0.0079 -0.6658 -0.7247
 6314TIP3    H243138   6.820   1.191  11.980  0.0053 -0.2731 -0.2944
 6315TIP3   OH243139   4.572   2.468  11.461 -0.3832 -0.0621  0.4668
 6315TIP3    H143140   4.659   2.459  11.501 -0.2406 -0.5692  0.0414
 6315TIP3    H243141   4.519   2.512  11.528 -0.0801 -0.6837  1.1162
 6316TIP3   OH243142   4.265   7.187  12.044  0.0415  0.1838  0.5077
 6316TIP3    H143143   4.193   7.169  11.984  0.7485  0.5119 -0.4707
 6316TIP3    H243144   4.228   7.173  12.131 -1.0712 -0.0842  0.0106
 6317TIP3   OH243145   7.338   3.384  11.293 -0.2718  0.2641 -0.3684
 6317TIP3    H143146   7.361   3.333  11.216  0.1452  0.0135 -0.0794
 6317TIP3    H243147   7.335   3.321  11.364  2.2081  0.8685  0.3927
 6318TIP3   OH243148   6.359   6.101  10.929  0.2829 -0.9971 -0.2991
 6318TIP3    H143149   6.376   6.030  10.991  0.2250 -1.1228 -0.4266
 6318TIP3    H243150   6.405   6.075  10.849  1.2435 -0.3355  0.0171
 6319TIP3   OH243151   8.184   6.293  11.100  0.1292 -0.3380  0.8247
 6319TIP3    H143152   8.214   6.352  11.031 -2.0815 -1.4330 -1.2326
 6319TIP3    H243153   8.259   6.286  11.160  2.9408 -0.7807 -2.4119
 6320TIP3   OH243154   4.223   3.608  12.746  0.3879  0.0570  0.4035
 6320TIP3    H143155   4.293   3.584  12.806  0.0825  0.2136  0.8307
 6320TIP3    H243156   4.144   3.609  12.801  0.1434  0.4375  0.0508
 6321TIP3   OH243157   7.259   4.990  12.075 -0.2795 -0.2089  0.1276
 6321TIP3    H143158   7.286   4.917  12.019 -2.1085 -0.3446 -0.6499
 6321TIP3    H243159   7.215   4.949  12.149  0.1745  0.0615  0.5543
 6322TIP3   OH243160   2.222   8.265  12.032 -0.2268 -0.4723 -0.1833
 6322TIP3    H143161   2.242   8.295  11.943  0.3513 -0.1907  0.0308
 6322TIP3    H243162   2.286   8.196  12.049 -1.3141 -1.5778 -0.5307
 6323TIP3   OH243163   7.112   0.109  12.304  0.2090  0.1316  0.2425
 6323TIP3    H143164   7.145   0.022  12.328 -1.1581 -0.2444  0.8949
 6323TIP3    H243165   7.087   0.148  12.388  1.3940  1.4354  0.0232
 6324TIP3   OH243166   5.195   1.413  12.412  0.4916 -0.7902 -0.4505
 6324TIP3    H143167   5.186   1.438  12.321 -0.6233 -3.1094 -1.0473
 6324TIP3    H243168   5.289   1.394  12.422  0.6712 -0.2316 -1.0149
 6325TIP3   OH243169   7.531   5.890  10.906  0.1054 -0.2523 -0.1139
 6325TIP3    H143170   7.591   5.893  10.831  1.5418  0.3845  1.0090
 6325TIP3    H243171   7.586   5.913  10.981 -1.8294  1.5667  0.8211
 6326TIP3   OH243172   0.763   5.611  11.519  0.5193 -0.6090 -0.1610
 6326TIP3    H143173   0.698   5.549  11.484  0.0795  0.0895 -0.6135
 6326TIP3    H243174   0.711   5.686  11.547  0.7161 -1.5559  3.0697
 6327TIP3   OH243175   0.717   4.488  12.280  0.2972 -0.1292 -0.7012
 6327TIP3    H143176   0.802   4.454  12.308  0.4378 -0.3773 -1.3992
 6327TIP3    H243177   0.657   4.415  12.294  0.2112  0.0270 -0.2618
 6328TIP3   OH243178   3.635   3.045  11.554  0.1538  0.1410  0.1148
 6328TIP3    H143179   3.663   3.131  11.525 -1.5409  0.3858 -0.9430
 6328TIP3    H243180   3.541   3.043  11.537 -0.1918 -1.2486  1.8552
 6329TIP3   OH243181   2.712   4.011  10.239 -0.4366  0.2638 -0.6897
 6329TIP3    H143182   2.784   4.031  10.298  0.6143 -0.7334 -1.5858
 6329TIP3    H243183   2.638   4.060  10.275  0.4256  0.5477  0.8150
 6330TIP3   OH243184   3.487   1.862  11.428  0.3831  0.5782 -0.7412
 6330TIP3    H143185   3.420   1.877  11.361 -0.3549 -2.4646 -0.8536
 6330TIP3    H243186   3.535   1.785  11.396  2.8409  1.6206  0.2140
 6331TIP3   OH243187   1.965   4.198  12.502 -0.2460 -0.3927  0.5966
 6331TIP3    H143188   1.889   4.169  12.451 -1.4453 -0.1511  2.1438
 6331TIP3    H243189   2.000   4.117  12.540  1.4794 -0.7562 -1.5738
 6332TIP3   OH243190   1.503   7.537  10.989  0.7194  0.0580 -0.1461
 6332TIP3    H143191   1.443   7.607  10.962  0.6218 -0.7209 -2.1029
 6332TIP3    H243192   1.455   7.490  11.057 -0.7725 -0.2857 -1.3701
 6333TIP3   OH243193   5.854   2.290  12.244  0.0460 -0.1662 -0.4241
 6333TIP3    H143194   5.929   2.271  12.300 -0.2604 -1.6259 -0.4723
 6333TIP3    H243195   5.816   2.370  12.280  1.6322  0.6187 -0.4280
 6334TIP3   OH243196   1.627   1.313  11.389  0.2410  0.6317  0.8147
 6334TIP3    H143197   1.643   1.380  11.323 -0.5552 -1.5466 -1.7885
 6334TIP3    H243198   1.690   1.244  11.369 -2.1456 -1.5149  0.0259
 6335TIP3   OH243199   0.370   7.529  11.259 -0.2398 -0.2303 -0.0748
 6335TIP3    H143200   0.312   7.546  11.185  2.0196  1.3225 -1.6515
 6335TIP3    H243201   0.347   7.595  11.324 -0.9734 -0.3378 -0.2231
 6336TIP3   OH243202   4.355   5.296  11.822  0.4852 -0.0189  0.0504
 6336TIP3    H143203   4.297   5.364  11.787 -0.5983 -1.1279 -0.3868
 6336TIP3    H243204   4.339   5.220  11.766  1.3670 -0.7612  0.7772
 6337TIP3   OH243205   3.082   8.065  12.252 -0.3888  0.3950  0.1207
 6337TIP3    H143206   2.999   8.111  12.260 -0.2679  0.8483 -1.0487
 6337TIP3    H243207   3.124   8.077  12.338 -1.5793  0.0163  0.7793
 6338TIP3   OH243208   4.193   7.394  11.580 -0.0217  0.1292  0.3087
 6338TIP3    H143209   4.106   7.365  11.551 -0.2734  1.4646 -0.3610
 6338TIP3    H243210   4.177   7.439  11.662 -0.1088  1.1624 -0.2612
 6339TIP3   OH243211   4.307   4.845  11.829  0.0751 -0.8492  0.1528
 6339TIP3    H143212   4.402   4.846  11.839  0.1270  0.4594 -0.2405
 6339TIP3    H243213   4.284   4.752  11.827  1.3718 -1.1900 -0.0374
 6340TIP3   OH243214   2.761   3.503  10.273 -0.0652  0.2820 -0.0263
 6340TIP3    H143215   2.734   3.432  10.215  0.1371  0.6773 -0.6193
 6340TIP3    H243216   2.763   3.581  10.217 -1.4025  0.9866  0.8535
 6341TIP3   OH243217   8.285   3.755  12.644  0.3853  0.4762  0.0531
 6341TIP3    H143218   8.365   3.786  12.686  0.8546 -1.1250  0.4035
 6341TIP3    H243219   8.254   3.685  12.701  0.0933 -0.5951 -1.3717
 6342TIP3   OH243220   3.675   7.030  10.629 -0.2816 -0.1710 -0.5262
 6342TIP3    H143221   3.731   7.107  10.628  0.5159 -0.7513 -1.1113
 6342TIP3    H243222   3.675   7.002  10.721  0.4993 -0.2408 -0.5426
 6343TIP3   OH243223   3.120   3.416  12.108 -0.0189  0.8191  0.0439
 6343TIP3    H143224   3.109   3.382  12.197 -1.6263 -0.1829 -0.4852
 6343TIP3    H243225   3.152   3.341  12.058  0.9221  1.3896 -0.2425
 6344TIP3   OH243226   0.069   1.153  10.668  0.1249  0.2420  0.2367
 6344TIP3    H143227  -0.026   1.165  10.661 -0.3793  1.0244  5.0613
 6344TIP3    H243228   0.100   1.231  10.713  2.2680 -1.8045  2.6424
 6345TIP3   OH243229   0.399   3.389  12.100 -0.0756  0.1192 -0.1356
 6345TIP3    H143230   0.331   3.457  12.098 -0.2100  0.0968  1.9805
 6345TIP3    H243231   0.452   3.407  12.022 -1.1172  1.5827 -0.5620
 6346TIP3   OH243232   2.476   6.578  11.507  0.0530  0.3597 -0.4098
 6346TIP3    H143233   2.484   6.503  11.566 -0.0944 -0.0944 -0.9612
 6346TIP3    H243234   2.539   6.641  11.540 -0.2837  0.2617  0.4618
 6347TIP3   OH243235   6.636   3.099  10.128  0.5695 -0.1102 -0.6598
 6347TIP3    H143236   6.587   3.089  10.046 -0.0385 -1.3896 -0.1600
 6347TIP3    H243237   6.728   3.090  10.103  0.3195 -2.2472 -0.9982
 6348TIP3   OH243238   8.310   7.064  11.434  0.0727  0.1965  0.2778
 6348TIP3    H143239   8.350   6.977  11.442 -0.0204  0.1839  0.6115
 6348TIP3    H243240   8.321   7.087  11.342 -1.1163 -0.7409 -0.1130
 6349TIP3   OH243241   7.362   2.319  11.008  0.5251 -0.1479 -0.6054
 6349TIP3    H143242   7.301   2.380  10.965  0.1406  1.0790  1.5349
 6349TIP3    H243243   7.306   2.263  11.061  1.1491 -0.0087  0.2121
 6350TIP3   OH243244   0.759   7.319  12.498 -0.6367 -0.0398 -0.8299
 6350TIP3    H143245   0.743   7.283  12.410 -0.0455  0.2921 -1.0792
 6350TIP3    H243246   0.809   7.252  12.543  1.2561  0.7817 -1.5913
 6351TIP3   OH243247   6.571   7.339  12.239 -0.7990  0.1701 -0.2370
 6351TIP3    H143248   6.531   7.361  12.324 -1.9132  0.8811 -0.9277
 6351TIP3    H243249   6.497   7.317  12.183 -0.2371  1.3513 -1.5054
 6352TIP3   OH243250   0.437   7.407  12.272  0.3433  0.0462  0.1887
 6352TIP3    H143251   0.353   7.362  12.274 -0.2288  1.0383 -0.6397
 6352TIP3    H243252   0.461   7.417  12.365 -0.7860  0.3695  0.4597
 6353TIP3   OH243253   0.576   3.215  12.505 -0.2567  0.2271  0.2362
 6353TIP3    H143254   0.498   3.212  12.450 -0.8208  0.7091  0.9822
 6353TIP3    H243255   0.585   3.126  12.538  0.5115 -0.2511 -1.1788
 6354TIP3   OH243256   4.736   0.112  11.136  0.3450 -0.2806  0.3382
 6354TIP3    H143257   4.689   0.194  11.124 -0.3621 -0.5159  1.2940
 6354TIP3    H243258   4.817   0.136  11.181 -0.4801 -0.2205  1.8625
 6355TIP3   OH243259   7.035   8.307  11.621  0.2877 -0.4241  0.4192
 6355TIP3    H143260   7.125   8.294  11.590  0.5164 -2.3783  1.6821
 6355TIP3    H243261   6.988   8.230  11.589 -0.5685 -0.1622  1.0251
 6356TIP3   OH243262   1.760   1.853  12.102 -0.4206 -0.0475  0.3542
 6356TIP3    H143263   1.693   1.842  12.169 -1.2944 -0.2117 -0.5130
 6356TIP3    H243264   1.835   1.890  12.148 -0.4306 -1.6093  1.7201
 6357TIP3   OH243265   2.863   4.430  12.165 -0.2818 -0.3212  0.1203
 6357TIP3    H143266   2.805   4.450  12.092 -1.0904 -1.7971  0.3034
 6357TIP3    H243267   2.916   4.508  12.176  0.2385 -0.2377 -2.3828
 6358TIP3   OH243268   2.084   2.642  12.311  0.3551  0.5472  0.3050
 6358TIP3    H143269   2.082   2.553  12.347  3.3515  0.2788 -0.0058
 6358TIP3    H243270   2.089   2.629  12.216 -1.1566  1.1332  0.1153
 6359TIP3   OH243271   5.405   4.154  11.160  0.1162  0.6756 -0.2332
 6359TIP3    H143272   5.425   4.213  11.087  0.7196  0.2036 -0.4553
 6359TIP3    H243273   5.482   4.158  11.216  1.5097 -2.1096 -1.7236
 6360TIP3   OH243274   2.182   3.947  12.329  0.0649 -0.3654  0.1318
 6360TIP3    H143275   2.123   3.952  12.404 -0.2686  0.0483 -0.1511
 6360TIP3    H243276   2.123   3.943  12.253  0.3948 -0.9054 -0.1016
 6361TIP3   OH243277   6.321   2.364  10.644 -0.1733 -0.0482  0.3154
 6361TIP3    H143278   6.344   2.456  10.661 -0.7907 -0.1438  1.8660
 6361TIP3    H243279   6.406   2.319  10.644  0.0124  0.2590  1.4668
 6362TIP3   OH243280   8.004   2.588  12.663  0.1446  0.1420  0.3558
 6362TIP3    H143281   7.999   2.549  12.750 -2.2959 -1.6094 -0.4409
 6362TIP3    H243282   7.931   2.548  12.615  1.0630  1.4529 -2.3365
 6363TIP3   OH243283   0.676   1.814  12.578  0.1235  0.4717  0.2220
 6363TIP3    H143284   0.642   1.843  12.663  0.9559  0.3445  0.6153
 6363TIP3    H243285   0.770   1.834  12.583 -0.2231  3.1003 -1.7439
 6364TIP3   OH243286   6.610   0.528  10.848 -0.1211 -0.1514  0.3152
 6364TIP3    H143287   6.585   0.440  10.821  1.0410  0.1343 -1.9360
 6364TIP3    H243288   6.531   0.581  10.834  0.0026 -0.3184 -1.1193
 6365TIP3   OH243289   7.737   0.430  11.148  0.0139 -0.7212  1.1905
 6365TIP3    H143290   7.679   0.429  11.072 -1.8751 -2.0623  2.5557
 6365TIP3    H243291   7.794   0.354  11.135 -0.1495 -0.8130  0.9984
 6366TIP3   OH243292   8.316   6.108  11.903  0.2865 -0.2196 -0.4522
 6366TIP3    H143293   8.379   6.057  11.953  0.1251  0.1041  0.0850
 6366TIP3    H243294   8.307   6.189  11.952  0.1430  0.1096 -1.0199
 6367TIP3   OH243295   1.855   7.803  10.665 -0.0797 -0.0162 -0.1366
 6367TIP3    H143296   1.804   7.883  10.653  0.3763 -0.0542 -3.4357
 6367TIP3    H243297   1.945   7.833  10.675  0.2287 -0.0195 -2.3376
 6368TIP3   OH243298   2.272   3.719  11.453  0.0595  0.1098  0.4097
 6368TIP3    H143299   2.324   3.651  11.495 -0.0804 -1.0782 -1.2340
 6368TIP3    H243300   2.225   3.761  11.525  2.3630  0.4622  1.7981
 6369TIP3   OH243301   0.579   2.344  11.496 -0.1225 -0.4493  0.1626
 6369TIP3    H143302   0.494   2.380  11.471 -0.3015 -0.2911  0.9690
 6369TIP3    H243303   0.609   2.298  11.418 -0.6225  0.0964 -0.3633
 6370TIP3   OH243304   7.280   1.561  10.661  0.5519  0.5973 -0.3382
 6370TIP3    H143305   7.298   1.474  10.626 -0.7342 -1.3452  3.2694
 6370TIP3    H243306   7.355   1.614  10.634  1.0606 -1.3894 -3.1936
 6371TIP3   OH243307   2.387   6.040  10.963  0.5555  0.1797  0.0626
 6371TIP3    H143308   2.298   6.059  10.994  0.4250 -1.7015  1.0222
 6371TIP3    H243309   2.392   6.082  10.877 -1.0278  0.8768  0.2739
 6372TIP3   OH243310   0.871   3.545  12.644  0.1763 -0.7315  0.2128
 6372TIP3    H143311   0.790   3.592  12.626  0.4639  0.1047  1.0177
 6372TIP3    H243312   0.860   3.461  12.600 -0.1945  0.2105 -1.5896
 6373TIP3   OH243313   1.601   5.761  11.522  0.1171 -0.0132 -0.0534
 6373TIP3    H143314   1.654   5.834  11.553  0.6389  0.1235 -1.2258
 6373TIP3    H243315   1.656   5.716  11.458 -0.4549 -1.0302  0.1359
 6374TIP3   OH243316   7.283   2.779  10.472 -0.4841  0.5654  0.0831
 6374TIP3    H143317   7.282   2.695  10.518 -0.7209  0.5895  0.1221
 6374TIP3    H243318   7.194   2.812  10.480 -0.7773  0.1488 -1.1477
 6375TIP3   OH243319   7.266   4.990  11.220  0.0628 -0.1564  0.1878
 6375TIP3    H143320   7.184   5.018  11.260  1.4063  2.2539  1.4307
 6375TIP3    H243321   7.297   5.067  11.172  1.9194 -0.7695  0.3213
 6376TIP3   OH243322   7.726   6.977  11.467 -0.0903 -0.1801 -0.2464
 6376TIP3    H143323   7.635   6.976  11.437  0.5368 -1.1747 -2.2929
 6376TIP3    H243324   7.768   7.043  11.412  0.2828  0.9361  1.3097
 6377TIP3   OH243325   1.315   4.228  11.161 -0.2989 -0.0057 -0.2930
 6377TIP3    H143326   1.279   4.140  11.150 -0.0866 -0.1709  0.3043
 6377TIP3    H243327   1.409   4.216  11.148 -0.1310 -0.0734  0.8904
 6378TIP3   OH243328   5.637   3.332  13.139  0.5121  0.5695 -0.1549
 6378TIP3    H143329   5.600   3.249  13.169  0.6801  1.3196  2.3677
 6378TIP3    H243330   5.567   3.374  13.090  0.5736 -1.1950 -1.8824
 6379TIP3   OH243331   7.381   4.458  11.383  0.2227 -0.2306  0.6090
 6379TIP3    H143332   7.292   4.469  11.349  0.7969 -1.8300 -1.6399
 6379TIP3    H243333   7.417   4.547  11.383 -0.7847  0.2052 -0.2018
 6380TIP3   OH243334   0.546   0.736  11.605 -0.5564 -0.2490 -0.3527
 6380TIP3    H143335   0.511   0.702  11.523 -0.8358 -0.0429 -0.3223
 6380TIP3    H243336   0.489   0.697  11.672 -0.0565 -0.7669 -0.2252
 6381TIP3   OH243337   5.354   7.201  11.477 -0.1430 -0.3512 -0.3801
 6381TIP3    H143338   5.272   7.250  11.478 -0.0065 -0.1183 -0.7382
 6381TIP3    H243339   5.328   7.110  11.491 -0.3413 -0.1009  1.0618
 6382TIP3   OH243340   5.611   1.807  12.746 -0.1287 -0.4740  0.2359
 6382TIP3    H143341   5.530   1.838  12.785  0.4149  0.3627  0.7426
 6382TIP3    H243342   5.609   1.838  12.656 -0.5285 -0.7599  0.1479
 6383TIP3   OH243343   1.254   0.170  12.147 -0.8314  0.2034 -0.0927
 6383TIP3    H143344   1.235   0.116  12.070  0.0649  0.2861 -0.3863
 6383TIP3    H243345   1.350   0.172  12.152 -0.8685  0.7418  0.6465
 6384TIP3   OH243346   4.265   5.795  11.547  0.0190  0.1415 -0.4006
 6384TIP3    H143347   4.228   5.718  11.503 -2.2369  0.4305  0.8329
 6384TIP3    H243348   4.344   5.815  11.497 -0.5829 -1.5657 -2.1917
 6385TIP3   OH243349   2.571   2.376  10.912  0.0645  0.4574 -0.1702
 6385TIP3    H143350   2.546   2.342  10.998 -0.9285 -0.3686 -0.7570
 6385TIP3    H243351   2.495   2.359  10.857  1.7183 -1.7549 -1.9602
 6386TIP3   OH243352   4.744   6.966  10.891 -0.0712  0.5404  0.2931
 6386TIP3    H143353   4.745   6.886  10.839  0.4673  0.3469  0.5963
 6386TIP3    H243354   4.710   7.033  10.832 -0.9287  0.0088  0.1647
 6387TIP3   OH243355   7.547   3.188  10.241 -0.0036  0.1180 -0.0441
 6387TIP3    H143356   7.511   3.275  10.225 -4.0065 -1.5788 -1.6636
 6387TIP3    H243357   7.537   3.142  10.157  1.5285 -2.0357  0.8614
 6388TIP3   OH243358   6.736   1.545  10.716  0.2192 -0.2419 -0.1358
 6388TIP3    H143359   6.819   1.528  10.672 -1.3560 -1.3368 -2.9609
 6388TIP3    H243360   6.746   1.506  10.803  2.6739 -0.1852 -0.3356
 6389TIP3   OH243361   6.124   4.333  11.756 -0.0442  0.1437  0.0809
 6389TIP3    H143362   6.044   4.342  11.704  0.8417  0.1230 -1.3566
 6389TIP3    H243363   6.139   4.239  11.762 -0.4621  0.1212  0.9156
 6390TIP3   OH243364   4.731   1.636  11.999 -0.1469  0.7115 -0.4599
 6390TIP3    H143365   4.636   1.627  12.003 -0.2345  1.7419  0.0160
 6390TIP3    H243366   4.747   1.708  11.938  0.1224  3.1780  2.3249
 6391TIP3   OH243367   3.536   8.193  11.202  0.5203  0.0403  0.3100
 6391TIP3    H143368   3.491   8.109  11.189  1.0982 -0.0520 -1.2735
 6391TIP3    H243369   3.575   8.185  11.289 -0.5132 -0.8138  0.7259
 6392TIP3   OH243370   6.615   5.927  12.905 -0.0035 -0.1868 -0.0205
 6392TIP3    H143371   6.710   5.920  12.899  0.1406  1.6614 -0.3027
 6392TIP3    H243372   6.585   5.917  12.814 -0.0114  0.0716 -0.0467
 6393TIP3   OH243373   4.870   0.394  10.956 -0.1607 -0.2609 -0.0050
 6393TIP3    H143374   4.858   0.325  10.890 -1.7474 -0.8999  0.8923
 6393TIP3    H243375   4.784   0.402  10.997  0.7589  0.1942  1.9118
 6394TIP3   OH243376   4.746   1.279  10.627 -0.0149  0.3791 -0.0299
 6394TIP3    H143377   4.725   1.370  10.605 -0.7153  0.9573  2.7039
 6394TIP3    H243378   4.670   1.229  10.596  0.2237  0.7411 -1.2443
 6395TIP3   OH243379   2.116   2.584  11.182 -0.2123 -0.4039  0.5715
 6395TIP3    H143380   2.062   2.656  11.149  0.2055 -0.7356 -0.9168
 6395TIP3    H243381   2.206   2.614  11.170  0.0215 -1.7276 -1.5552
 6396TIP3   OH243382   6.162   6.077  16.315  0.0556 -0.0988 -0.4188
 6396TIP3    H143383   6.119   6.160  16.295  0.2451 -0.0635 -0.6919
 6396TIP3    H243384   6.166   6.074  16.411  1.2966  0.8577 -0.4217
 6397TIP3   OH243385   4.242   7.020  11.714  0.0045  0.1260  0.8570
 6397TIP3    H143386   4.237   6.997  11.807  2.9288 -0.5154  0.9677
 6397TIP3    H243387   4.181   6.961  11.671  0.9399 -1.8588  2.1058
 6398TIP3   OH243388   0.514   2.457  10.895 -0.3589  0.4920 -0.0312
 6398TIP3    H143389   0.571   2.387  10.863  1.4903  1.6218  0.6533
 6398TIP3    H243390   0.528   2.530  10.835 -2.0724  0.4027 -0.5821
 6399TIP3   OH243391   0.088   5.050  11.405 -0.4953 -0.2715 -0.3198
 6399TIP3    H143392   0.096   5.143  11.386  1.8395 -0.4936 -0.7147
 6399TIP3    H243393   0.062   5.047  11.497 -1.2286  0.7445 -0.4709
 6400TIP3   OH243394   1.652   5.043  10.708 -0.0677  0.1769 -0.1004
 6400TIP3    H143395   1.611   5.125  10.680 -1.3129 -0.3644  0.0771
 6400TIP3    H243396   1.616   5.026  10.795 -0.0460 -0.6982 -0.2518
 6401TIP3   OH243397   5.013   2.069  11.017 -0.6652 -0.0385 -0.5313
 6401TIP3    H143398   5.037   1.978  10.999 -2.9327 -0.3857 -2.2406
 6401TIP3    H243399   4.997   2.107  10.931 -0.8014  1.6734  0.2181
 6402TIP3   OH243400   3.466   6.138  10.468  0.4334  0.3852  0.4509
 6402TIP3    H143401   3.396   6.183  10.421  0.2793  1.4170  1.6032
 6402TIP3    H243402   3.423   6.065  10.511 -0.0108  1.1382  1.3262
 6403TIP3   OH243403   5.928   6.855  11.930  0.6729 -0.0667  0.4497
 6403TIP3    H143404   5.936   6.829  11.838 -0.2243  1.8254 -0.2204
 6403TIP3    H243405   5.848   6.812  11.960  1.2386 -1.1054  0.5381
 6404TIP3   OH243406   4.975   7.483  12.016 -0.0539  0.0904  0.3441
 6404TIP3    H143407   4.961   7.471  12.110 -0.3524 -2.1044  0.0600
 6404TIP3    H243408   5.043   7.550  12.010  2.1422 -1.7972  2.2232
 6405TIP3   OH243409   3.994   5.295  12.034 -0.1010 -0.1524 -0.2230
 6405TIP3    H143410   4.023   5.208  12.007 -0.2413 -0.2014 -0.2146
 6405TIP3    H243411   3.937   5.280  12.108 -0.0956 -0.0499 -0.1980
 6406TIP3   OH243412   5.052   4.223  13.197  0.7761 -0.9158  0.3141
 6406TIP3    H143413   5.086   4.188  13.115 -0.0691 -2.2888  0.5026
 6406TIP3    H243414   4.965   4.256  13.175 -0.1125 -2.7107  0.8973
 6407TIP3   OH243415   4.896   6.263  12.565  0.0681 -0.3864 -0.0488
 6407TIP3    H143416   4.979   6.292  12.527  1.1137  0.1920  2.4436
 6407TIP3    H243417   4.909   6.170  12.583  0.7300 -0.0163  1.5395
 6408TIP3   OH243418   0.396   2.312  12.360 -0.1199 -0.2775 -0.1840
 6408TIP3    H143419   0.387   2.374  12.288  0.6953 -1.3570 -1.2424
 6408TIP3    H243420   0.319   2.328  12.415 -0.9683  0.2893 -1.4995
 6409TIP3   OH243421   2.032   6.897  12.227  0.4866 -0.1074  0.0567
 6409TIP3    H143422   2.066   6.971  12.278 -2.1183  0.3651  1.2493
 6409TIP3    H243423   2.086   6.823  12.254 -0.4196  0.2267  3.1979
 6410TIP3   OH243424   8.005   3.105  12.064 -0.4262  0.0880 -0.2596
 6410TIP3    H143425   8.083   3.143  12.024  0.1527 -0.9194 -0.1161
 6410TIP3    H243426   7.934   3.165  12.040 -0.0771 -0.3589 -2.6401
 6411TIP3   OH243427   6.608   3.791  11.460  0.0892  0.6229 -0.1713
 6411TIP3    H143428   6.646   3.879  11.468  0.1747  0.4972  0.9653
 6411TIP3    H243429   6.515   3.803  11.480 -0.4039  0.8410 -2.4281
 6412TIP3   OH243430   8.427   2.323  11.680  0.6964 -0.0093 -0.6371
 6412TIP3    H143431   8.495   2.263  11.648  0.6886 -0.4543  0.1455
 6412TIP3    H243432   8.460   2.353  11.765  0.8697  1.3946 -1.1646
 6413TIP3   OH243433   7.401   3.842  12.802  0.1376  0.1185 -0.1090
 6413TIP3    H143434   7.407   3.874  12.892  1.8082 -0.4506  0.0115
 6413TIP3    H243435   7.365   3.916  12.753  1.3069  1.2498  0.6603
 6414TIP3   OH243436   2.582   4.287  11.038  0.0824  0.4234 -0.0207
 6414TIP3    H143437   2.519   4.305  11.108 -2.4760  1.1583 -2.3206
 6414TIP3    H243438   2.620   4.202  11.061 -1.2895  0.2549  1.8194
 6415TIP3   OH243439   8.402   4.459  11.782 -0.3700 -0.1420  0.6942
 6415TIP3    H143440   8.404   4.488  11.691 -0.9829  0.3588  0.8272
 6415TIP3    H243441   8.357   4.530  11.828 -2.1976 -1.4071  0.9860
 6416TIP3   OH243442   1.766   5.991  10.957  0.1649  0.1572 -0.1433
 6416TIP3    H143443   1.796   5.915  11.007 -2.1614 -1.6609 -1.3052
 6416TIP3    H243444   1.735   6.053  11.024  0.1191 -0.8315  0.7732
 6417TIP3   OH243445   0.526   6.538  10.592  0.1636  0.0496  0.5481
 6417TIP3    H143446   0.585   6.486  10.538  1.3134  1.4172  0.4227
 6417TIP3    H243447   0.439   6.524  10.555  0.8818  0.7102 -1.4825
 6418TIP3   OH243448   4.303   2.275  10.728 -0.0997  0.1010 -0.0516
 6418TIP3    H143449   4.336   2.259  10.640 -0.1706  0.4804 -0.1486
 6418TIP3    H243450   4.208   2.280  10.717 -0.2909 -1.7653  0.3419
 6419TIP3   OH243451   7.823   0.594  12.621  0.1853  0.5245 -0.2163
 6419TIP3    H143452   7.867   0.510  12.638 -2.5102 -0.7116  1.2674
 6419TIP3    H243453   7.856   0.652  12.690  0.6549  0.1147 -0.0880
 6420TIP3   OH243454   0.449   7.260  11.373 -0.5530  0.0559 -0.5862
 6420TIP3    H143455   0.452   7.356  11.375 -0.4835  0.0528  1.9226
 6420TIP3    H243456   0.507   7.236  11.301 -2.3599  1.9143 -2.8305
 6421TIP3   OH243457   3.845   3.460  12.057  0.0954 -0.4708  0.3858
 6421TIP3    H143458   3.887   3.476  12.141  2.4661 -2.6359 -0.2451
 6421TIP3    H243459   3.752   3.448  12.078  0.2624  1.2333  2.3342
 6422TIP3   OH243460   4.507   7.045  11.924  0.2633 -0.3392  0.5830
 6422TIP3    H143461   4.574   7.050  11.992  1.3260 -2.5092 -0.2137
 6422TIP3    H243462   4.426   7.076  11.967  1.9081  3.9699  1.1375
 6423TIP3   OH243463   5.966   3.913  11.762 -0.3865  0.2079 -0.1192
 6423TIP3    H143464   5.878   3.890  11.734 -0.2743 -0.0951 -0.2259
 6423TIP3    H243465   5.953   3.977  11.832 -0.7110 -0.7886  0.7393
 6424TIP3   OH243466   3.876   0.341  11.091 -0.4525 -0.0325  0.5328
 6424TIP3    H143467   3.945   0.353  11.156  1.1326  0.1205 -1.1233
 6424TIP3    H243468   3.868   0.425  11.047 -3.6495  0.8272  2.4168
 6425TIP3   OH243469   2.922   1.187  11.790  0.0413  0.0759  0.1011
 6425TIP3    H143470   2.874   1.105  11.778  0.7930 -0.4870  0.8419
 6425TIP3    H243471   3.002   1.162  11.836 -1.0129  1.5453  3.0248
 6426TIP3   OH243472   6.989   4.898  12.655  0.3400  0.9394  0.0641
 6426TIP3    H143473   6.993   4.959  12.581  2.7580  1.1489  0.3039
 6426TIP3    H243474   6.988   4.955  12.732 -1.8451  0.7134  0.2585
 6427TIP3   OH243475   1.051   0.646  10.488 -0.6353  0.7167 -0.9470
 6427TIP3    H143476   0.980   0.709  10.493 -1.2126  0.0058  0.2021
 6427TIP3    H243477   1.016   0.574  10.435  0.3073  1.6636 -2.9749
 6428TIP3   OH243478   7.747   5.641  11.396 -0.1144  0.0729  0.9200
 6428TIP3    H143479   7.818   5.622  11.456 -0.4291 -1.8438  0.7429
 6428TIP3    H243480   7.681   5.574  11.413  0.1071 -1.0675 -2.0192
 6429TIP3   OH243481   7.254   6.365  11.271 -0.3416 -0.1719  0.4550
 6429TIP3    H143482   7.295   6.289  11.230  1.3099  1.5147 -1.1831
 6429TIP3    H243483   7.280   6.360  11.363 -0.4132 -1.6427  0.4197
 6430TIP3   OH243484   1.504   4.768  11.909  0.2091  0.0187  0.4808
 6430TIP3    H143485   1.542   4.687  11.945  1.5182  0.2635 -0.2699
 6430TIP3    H243486   1.410   4.751  11.904  0.3248 -1.0301  1.3931
 6431TIP3   OH243487   4.863   4.637  11.749  0.5966 -0.0322 -0.2078
 6431TIP3    H143488   4.799   4.675  11.688  0.4757 -0.0315 -0.0824
 6431TIP3    H243489   4.817   4.635  11.833 -0.2101 -2.4760 -0.6213
 6432TIP3   OH243490   0.478   7.892  11.037 -0.3466 -0.5153 -0.4107
 6432TIP3    H143491   0.395   7.854  11.009 -0.3299  0.1776 -1.4537
 6432TIP3    H243492   0.532   7.894  10.958  0.5687 -0.6916  0.1839
 6433TIP3   OH243493   2.592   5.814  11.019  0.0800 -0.0683 -0.0877
 6433TIP3    H143494   2.555   5.854  10.941  2.1586  0.5683 -0.8309
 6433TIP3    H243495   2.559   5.725  11.019 -1.0277  0.3272 -0.9311
 6434TIP3   OH243496   1.754   5.890  12.133  0.1418  0.1599 -0.3156
 6434TIP3    H143497   1.765   5.878  12.228 -2.1269  0.0415 -0.0254
 6434TIP3    H243498   1.685   5.828  12.109 -0.9553  1.8336 -1.6134
 6435TIP3   OH243499   1.337   0.704  12.417 -0.4500  0.1509 -0.2058
 6435TIP3    H143500   1.310   0.612  12.410  1.4097 -0.4575 -0.0221
 6435TIP3    H243501   1.335   0.737  12.327 -0.5212 -0.2664 -0.3575
 6436TIP3   OH243502   4.596   2.860  11.774 -0.3938  0.3270 -0.6640
 6436TIP3    H143503   4.561   2.942  11.740  1.0811  1.4976  0.5336
 6436TIP3    H243504   4.638   2.818  11.699 -0.2907  1.1475 -1.0733
 6437TIP3   OH243505   2.980   0.377  11.501  0.1208  0.0949 -0.3457
 6437TIP3    H143506   2.991   0.345  11.590 -0.6678 -0.4269 -0.4307
 6437TIP3    H243507   2.976   0.472  11.510  1.1770  0.1103  0.0478
 6438TIP3   OH243508   8.057   1.335  12.397  0.5989 -0.0467  0.0474
 6438TIP3    H143509   8.140   1.381  12.408  1.4871 -1.9491  1.9222
 6438TIP3    H243510   8.056   1.309  12.305  1.4930  1.0349 -0.2910
 6439TIP3   OH243511   6.819   1.709  10.277 -0.4595 -0.6633  0.2591
 6439TIP3    H143512   6.848   1.640  10.336 -2.2070 -0.1363  1.8366
 6439TIP3    H243513   6.768   1.663  10.210 -0.4233 -1.0365  0.4836
 6440TIP3   OH243514   1.117   4.826  10.576 -0.0070 -0.5190 -0.5635
 6440TIP3    H143515   1.125   4.893  10.644  1.5813 -2.2433  1.0674
 6440TIP3    H243516   1.028   4.792  10.586  0.1211 -0.5767  0.5325
 6441TIP3   OH243517   3.138   5.377  10.865 -0.7388 -0.3006  0.3424
 6441TIP3    H143518   3.147   5.463  10.905 -1.1546 -0.4226  0.7004
 6441TIP3    H243519   3.183   5.385  10.780 -1.5350  0.5201 -0.0127
 6442TIP3   OH243520   7.395   7.884  11.380 -0.4684 -0.3343 -0.1782
 6442TIP3    H143521   7.471   7.835  11.348 -0.6137  0.6287 -2.1205
 6442TIP3    H243522   7.376   7.947  11.311 -1.2093  1.4809  1.5735
 6443TIP3   OH243523   4.303   8.127  11.596  0.3336 -0.0251  0.3208
 6443TIP3    H143524   4.384   8.150  11.642  0.4615 -0.0094  0.0856
 6443TIP3    H243525   4.331   8.098  11.509  0.4322 -3.3832  1.3172
 6444TIP3   OH243526   2.600   4.008  12.233 -0.5407  0.8244 -0.1443
 6444TIP3    H143527   2.668   4.068  12.203 -0.4958  0.3252 -1.0766
 6444TIP3    H243528   2.585   4.033  12.324 -0.8553  2.5613 -0.6334
 6445TIP3   OH243529   2.294   3.506  13.312  0.2957 -1.0404  0.8018
 6445TIP3    H143530   2.354   3.432  13.326  0.9493 -0.4892  0.9690
 6445TIP3    H243531   2.207   3.467  13.316  0.6333 -1.8006  0.9253
 6446TIP3   OH243532   3.891   5.642  11.425 -0.1151  0.0909 -0.3945
 6446TIP3    H143533   3.824   5.626  11.358 -0.1039  1.1588 -0.6805
 6446TIP3    H243534   3.858   5.596  11.503  0.4738 -2.2424 -1.4160
 6447TIP3   OH243535   4.396   3.579  10.584  0.2918 -0.1131  0.7065
 6447TIP3    H143536   4.448   3.499  10.575  0.2613  0.1141 -2.7216
 6447TIP3    H243537   4.306   3.550  10.574  0.3241  0.3591 -1.3404
 6448TIP3   OH243538   4.033   5.487  12.952 -0.3448  0.3232  0.3818
 6448TIP3    H143539   3.946   5.449  12.958 -1.1121  1.9456 -0.1156
 6448TIP3    H243540   4.019   5.581  12.949  1.4468  0.6398  0.6104
 6449TIP3   OH243541   3.161   6.582  12.603  0.3355 -0.3678  0.4073
 6449TIP3    H143542   3.190   6.608  12.690  1.7886 -0.0407 -0.1455
 6449TIP3    H243543   3.099   6.649  12.577 -0.1349 -0.4849  1.1878
 6450TIP3   OH243544   2.447   0.882  11.441 -0.4103 -0.0487 -0.2166
 6450TIP3    H143545   2.389   0.941  11.491  1.2476  0.8627  0.7074
 6450TIP3    H243546   2.436   0.797  11.483 -0.3372  0.3348  0.6130
 6451TIP3   OH243547   1.146   0.922  12.173  0.5358 -0.0831 -0.0551
 6451TIP3    H143548   1.214   0.860  12.146 -0.9429 -1.3698 -1.0152
 6451TIP3    H243549   1.193   0.989  12.222  2.3806 -1.3385  0.0094
 6452TIP3   OH243550   4.301   6.910  11.394 -0.7966 -0.0752  0.0200
 6452TIP3    H143551   4.289   6.998  11.430  0.8248  0.9293 -1.6824
 6452TIP3    H243552   4.258   6.912  11.309  1.4331  0.0012 -1.1978
 6453TIP3   OH243553   1.765   0.646  12.182 -1.1618 -0.1617 -0.1540
 6453TIP3    H143554   1.817   0.628  12.104  1.6034 -0.3125  1.6005
 6453TIP3    H243555   1.727   0.561  12.205  0.5313 -0.8216  0.3410
 6454TIP3   OH243556   7.690   3.466  13.449 -0.2542 -0.0873  0.0733
 6454TIP3    H143557   7.691   3.371  13.433  0.2732 -0.0491 -0.1427
 6454TIP3    H243558   7.783   3.491  13.448 -0.2665  0.1447  1.8602
 6455TIP3   OH243559   1.846   2.725  11.534 -0.0015  0.3494 -0.0803
 6455TIP3    H143560   1.847   2.654  11.469  0.1907 -2.2633  2.5893
 6455TIP3    H243561   1.900   2.793  11.495  0.3601 -1.1905 -2.5219
 6456TIP3   OH243562   4.111   4.903  11.485  0.0885 -0.1665 -0.2898
 6456TIP3    H143563   4.128   4.812  11.507  0.9884 -0.2301 -1.1264
 6456TIP3    H243564   4.083   4.901  11.393 -2.0053  0.2146  0.3103
 6457TIP3   OH243565   4.457   3.139  12.339 -0.5380  0.0630 -0.3401
 6457TIP3    H143566   4.386   3.131  12.402 -1.5001 -0.6637 -1.4893
 6457TIP3    H243567   4.501   3.220  12.364 -1.0568 -0.0657  1.0863
 6458TIP3   OH243568   6.681   7.810  12.570 -0.1480  0.5687  0.3526
 6458TIP3    H143569   6.676   7.715  12.580 -0.0318  0.5595  0.3229
 6458TIP3    H243570   6.661   7.844  12.657 -0.5733  0.5281  0.2771
 6459TIP3   OH243571   6.087   3.638  12.086 -0.3672 -0.5121  0.4912
 6459TIP3    H143572   6.094   3.595  12.001 -0.8825  2.0963 -0.9780
 6459TIP3    H243573   6.093   3.732  12.066 -1.5564  0.2374  3.2127
 6460TIP3   OH243574   8.241   1.950  12.013 -0.5632  0.3040  0.3569
 6460TIP3    H143575   8.188   2.022  11.978 -0.2620  0.0617 -0.6495
 6460TIP3    H243576   8.282   1.986  12.092  1.9320  2.3018 -1.6587
 6461TIP3   OH243577   4.878   0.365  12.206 -0.4101  0.2452  0.4925
 6461TIP3    H143578   4.788   0.391  12.188 -0.4525  0.4313  0.9483
 6461TIP3    H243579   4.871   0.305  12.281 -0.1447  0.3463  0.6000
 6462TIP3   OH243580   1.732   4.716  11.364  0.0388  0.3572 -0.0354
 6462TIP3    H143581   1.657   4.730  11.422 -1.0006 -1.8701 -0.7732
 6462TIP3    H243582   1.792   4.661  11.415  0.6861  1.1838  0.1244
 6463TIP3   OH243583   0.564   7.238  11.649 -0.0607  0.1589  0.1741
 6463TIP3    H143584   0.523   7.215  11.566 -0.0988 -0.8067  0.4464
 6463TIP3    H243585   0.636   7.297  11.625 -1.1499  1.3180 -0.3669
 6464TIP3   OH243586   1.625   2.631  10.621  0.7901  0.5962 -0.2163
 6464TIP3    H143587   1.623   2.585  10.537  2.6880  0.1139 -0.0494
 6464TIP3    H243588   1.666   2.715  10.601 -1.3277  1.6808 -0.2452
 6465TIP3   OH243589   7.332   6.213  12.366  0.7034 -0.2823 -0.1425
 6465TIP3    H143590   7.390   6.290  12.359  0.1040  0.1394 -0.5873
 6465TIP3    H243591   7.265   6.239  12.429  0.2693 -0.2861 -0.5969
 6466TIP3   OH243592   0.636   1.986  11.751  0.2140  0.1174 -0.3716
 6466TIP3    H143593   0.619   2.074  11.784  1.2759 -0.2513  1.2734
 6466TIP3    H243594   0.644   1.997  11.656 -0.4182  1.6474 -0.2749
 6467TIP3   OH243595   3.120   0.329  10.699 -0.9029 -0.0248  0.5974
 6467TIP3    H143596   3.208   0.324  10.736 -1.0541  0.2614  1.0026
 6467TIP3    H243597   3.128   0.287  10.613 -0.0937  1.0667  0.1159
 6468TIP3   OH243598   6.045   4.165  11.192 -0.0942 -0.3276 -0.5089
 6468TIP3    H143599   5.982   4.095  11.207  0.7855 -0.7034  1.8019
 6468TIP3    H243600   5.996   4.231  11.141 -1.8203 -1.3102 -0.2025
 6469TIP3   OH243601   5.149   4.933  11.345 -0.0432 -0.0757 -0.5833
 6469TIP3    H143602   5.145   5.006  11.283  0.0282 -0.3950 -0.9691
 6469TIP3    H243603   5.238   4.935  11.380 -0.4193  0.7993  0.3655
 6470TIP3   OH243604   6.754   3.996  10.931  0.3298 -0.0296  0.0928
 6470TIP3    H143605   6.841   4.027  10.906 -0.3904  1.0077 -1.2723
 6470TIP3    H243606   6.733   4.046  11.010  0.6124  0.4019 -0.0974
 6471TIP3   OH243607   0.802   4.234  11.380 -0.1302  0.2212  0.7418
 6471TIP3    H143608   0.820   4.326  11.399  1.8703  0.0353 -0.0051
 6471TIP3    H243609   0.780   4.233  11.286  1.3529 -0.2150  0.3766
 6472TIP3   OH243610   6.956   7.329  12.461 -0.4056  0.4046  0.0602
 6472TIP3    H143611   6.903   7.334  12.382  0.4593  1.1422 -0.4877
 6472TIP3    H243612   6.952   7.237  12.486  0.3622 -0.1282 -1.6019
 6473TIP3   OH243613   3.483   2.376  11.538  0.1570 -0.1292  0.4193
 6473TIP3    H143614   3.435   2.352  11.618  1.0038  2.6847  1.8931
 6473TIP3    H243615   3.416   2.375  11.469 -0.4903 -3.1401  0.9552
 6474TIP3   OH243616   5.592   7.969  11.669 -0.2150  0.2598  0.5703
 6474TIP3    H143617   5.567   7.880  11.693 -0.9952  0.6522  1.2795
 6474TIP3    H243618   5.684   7.976  11.694  0.3863 -0.8855 -1.1098
 6475TIP3   OH243619   2.707   7.844  10.668  0.4252 -0.0529 -0.5190
 6475TIP3    H143620   2.778   7.847  10.604  1.1521  1.6820  0.3034
 6475TIP3    H243621   2.751   7.835  10.753 -0.4331 -0.7288 -0.1263
 6476TIP3   OH243622   4.781   3.857  11.633 -0.2876  0.2456 -0.4655
 6476TIP3    H143623   4.757   3.858  11.540 -1.0526 -0.3171 -0.2870
 6476TIP3    H243624   4.819   3.943  11.649 -1.4585  0.8765 -0.9731
 6477TIP3   OH243625   8.068   7.965  12.447 -0.6900 -0.1428 -0.3536
 6477TIP3    H143626   8.098   7.885  12.491 -2.0360 -0.2345  0.4909
 6477TIP3    H243627   8.061   8.029  12.517 -0.2198  0.5334 -0.9229
 6478TIP3   OH243628   3.558   6.511  10.944 -0.4842  0.3359  0.4985
 6478TIP3    H143629   3.503   6.573  10.991 -0.7788  0.4768 -0.0309
 6478TIP3    H243630   3.518   6.504  10.858  0.7628  1.0268 -0.1530
 6479TIP3   OH243631   6.264   8.017  12.009  0.6644 -0.1587 -0.2665
 6479TIP3    H143632   6.319   8.094  12.024  0.7543 -0.5173  1.4416
 6479TIP3    H243633   6.306   7.971  11.936  1.1887  0.8730 -0.6351
 6480TIP3   OH243634   3.024   2.767  10.863 -1.5081 -0.1610  0.2479
 6480TIP3    H143635   3.048   2.859  10.864 -0.5991 -0.3827 -0.3243
 6480TIP3    H243636   2.993   2.751  10.774  1.6842 -1.1920 -0.8259
 6481TIP3   OH243637   2.602   1.914  13.144  0.3393  0.7002 -0.3324
 6481TIP3    H143638   2.639   1.973  13.078  0.2848  0.0330 -0.9821
 6481TIP3    H243639   2.517   1.952  13.166  0.4430  1.0377 -0.5150
 6482TIP3   OH243640   8.236   1.813  10.588  0.3933  0.7961  0.1604
 6482TIP3    H143641   8.177   1.769  10.650  1.4362 -0.0025  0.6057
 6482TIP3    H243642   8.268   1.890  10.635  1.3958  0.0437  0.7380
 6483TIP3   OH243643   2.820   3.655  12.065  0.1208  1.2070 -0.2407
 6483TIP3    H143644   2.865   3.724  12.113  0.6404  0.9316 -0.3204
 6483TIP3    H243645   2.743   3.634  12.119  0.9006  0.6283  0.6809
 6484TIP3   OH243646   3.001   7.665  11.287  0.0373 -1.0184  0.0996
 6484TIP3    H143647   3.025   7.752  11.321  0.4186 -1.3982  0.8430
 6484TIP3    H243648   3.076   7.639  11.234 -0.4859 -0.4975 -0.9152
 6485TIP3   OH243649   7.700   4.392  10.817 -0.4294 -0.0640 -0.1319
 6485TIP3    H143650   7.776   4.346  10.854  0.6710  0.5009 -1.5885
 6485TIP3    H243651   7.662   4.438  10.892  0.9795  0.0517  0.5591
 6486TIP3   OH243652   1.061   2.307  10.991 -0.1809 -0.0560 -0.1870
 6486TIP3    H143653   1.103   2.307  11.077  0.7083 -1.7096 -0.5657
 6486TIP3    H243654   0.987   2.247  11.001 -0.6599  0.5044 -0.3280
 6487TIP3   OH243655   4.107   0.854  11.410  0.3798  0.0706 -0.1791
 6487TIP3    H143656   4.050   0.876  11.483  0.5755  0.8048 -0.2434
 6487TIP3    H243657   4.047   0.845  11.335  0.1715 -0.7579  0.0745
 6488TIP3   OH243658   3.061   0.653  10.763  0.2932  0.2494 -0.0088
 6488TIP3    H143659   3.149   0.641  10.799  0.6052  0.1059 -0.7971
 6488TIP3    H243660   3.057   0.592  10.688  0.0892  1.3887 -0.9510
 6489TIP3   OH243661   8.205   7.379  10.784  0.5831 -0.2204 -0.3913
 6489TIP3    H143662   8.135   7.440  10.806 -0.6460 -1.5056 -0.5873
 6489TIP3    H243663   8.248   7.360  10.868 -0.3985 -0.7181  0.0078
 6490TIP3   OH243664   4.141   7.064  12.611 -0.0888  0.0121  0.1630
 6490TIP3    H143665   4.214   7.114  12.646 -0.1179 -0.7893  1.4125
 6490TIP3    H243666   4.129   7.098  12.522  0.5787  1.4492  0.6026
 6491TIP3   OH243667   4.530   5.743  11.243 -0.0666 -0.6531 -0.2350
 6491TIP3    H143668   4.562   5.800  11.173  1.7462 -1.5813 -0.2214
 6491TIP3    H243669   4.494   5.667  11.197 -1.2449 -0.1492 -0.2018
 6492TIP3   OH243670   1.061   2.797  10.972 -0.3994 -0.5778  0.0341
 6492TIP3    H143671   1.111   2.720  10.944 -2.7696 -2.1245 -0.2649
 6492TIP3    H243672   1.052   2.787  11.066  1.3028  0.6849  0.3814
 6493TIP3   OH243673   2.830   1.353  11.358  0.2488 -0.0075  0.6471
 6493TIP3    H143674   2.798   1.291  11.292  1.9125  0.3010 -0.5233
 6493TIP3    H243675   2.798   1.438  11.329  0.0131 -0.0070  0.8999
 6494TIP3   OH243676   4.268   1.326  11.521 -0.2890  0.4531  0.2223
 6494TIP3    H143677   4.303   1.362  11.440 -0.1618 -0.3809 -0.1101
 6494TIP3    H243678   4.292   1.233  11.518 -1.0112  0.2360  0.8143
 6495TIP3   OH243679   7.089   7.599  11.092 -0.0062  0.1511 -0.5905
 6495TIP3    H143680   7.127   7.684  11.114 -1.0469  0.5715 -0.3223
 6495TIP3    H243681   7.074   7.556  11.176  0.9403 -0.5040 -0.7431
 6496TIP3   OH243682   0.665   6.054  11.423 -0.0335 -0.3751 -0.0882
 6496TIP3    H143683   0.625   6.019  11.344  0.2045 -2.9960  0.8344
 6496TIP3    H243684   0.592   6.081  11.478 -0.2573 -0.0019 -0.5598
 6497TIP3   OH243685   4.425   3.912  12.286 -0.0117  0.5277  0.4303
 6497TIP3    H143686   4.520   3.910  12.273 -0.0639  0.9817 -0.0349
 6497TIP3    H243687   4.411   3.859  12.364  0.7210  1.2225  1.0513
 6498TIP3   OH243688   2.045   8.326  12.226 -0.0167 -0.3294 -0.0466
 6498TIP3    H143689   2.099   8.293  12.154  0.3102  0.1165 -0.0099
 6498TIP3    H243690   2.072   8.274  12.302  1.0686  0.5297  0.1894
 6499TIP3   OH243691   6.762   2.053  10.812  0.3085 -0.1209  0.1093
 6499TIP3    H143692   6.773   1.960  10.830  1.1738 -0.0349  0.0705
 6499TIP3    H243693   6.668   2.069  10.823  0.2135 -0.9106  0.4932
 6500TIP3   OH243694   1.508   6.491  11.954 -0.3754  0.1275 -0.1960
 6500TIP3    H143695   1.455   6.536  12.020  0.2286  1.7313 -0.7734
 6500TIP3    H243696   1.457   6.499  11.873 -0.4754 -0.6365 -0.2126
 6501TIP3   OH243697   6.074   3.997  12.464  0.0558  0.2247  0.0351
 6501TIP3    H143698   6.071   3.934  12.536  0.8830 -0.1422 -0.2387
 6501TIP3    H243699   6.162   3.988  12.428 -0.1852  0.7567 -0.7109
 6502TIP3   OH243700   6.359   1.681  12.746 -0.1254 -0.0973  0.2902
 6502TIP3    H143701   6.288   1.626  12.779  0.0636 -0.9350 -0.6614
 6502TIP3    H243702   6.315   1.759  12.713 -0.5563 -0.3596  0.2312
 6503TIP3   OH243703   3.859   2.671  11.901  0.7003  0.0233  0.0401
 6503TIP3    H143704   3.952   2.653  11.889  1.2182  1.8514  0.9558
 6503TIP3    H243705   3.839   2.737  11.835  0.8656  1.9297  1.8023
 6504TIP3   OH243706   6.941   7.203  10.797  0.3089 -0.3091 -0.0073
 6504TIP3    H143707   6.962   7.281  10.745 -0.5146  0.0483  0.1868
 6504TIP3    H243708   6.982   7.219  10.882 -0.0514  0.0110  0.1049
 6505TIP3   OH243709   2.264   0.130  12.104 -0.3524  0.4676 -0.6463
 6505TIP3    H143710   2.287   0.150  12.013  2.1847  1.1423  0.0663
 6505TIP3    H243711   2.281   0.036  12.113  0.3960  0.6017 -0.6175
 6506TIP3   OH243712   4.629   8.340  11.585 -0.5457 -0.1535 -0.6337
 6506TIP3    H143713   4.564   8.351  11.655  1.1687  0.9556  0.8772
 6506TIP3    H243714   4.650   8.430  11.559  1.4748 -0.3734  0.0340
 6507TIP3   OH243715   3.089   5.983  10.401  0.3945  0.3497 -0.2611
 6507TIP3    H143716   3.068   6.065  10.446 -1.3351  0.4371 -1.1219
 6507TIP3    H243717   3.141   6.010  10.326  0.9910  0.4986  0.1989
 6508TIP3   OH243718   3.282   5.400  10.642 -0.1147  0.0738  0.6267
 6508TIP3    H143719   3.306   5.307  10.642  0.3388  0.1907  0.5024
 6508TIP3    H243720   3.275   5.423  10.550 -1.4076 -0.1311  0.6489
 6509TIP3   OH243721   1.017   1.412  11.645  0.5637 -0.2109 -0.0168
 6509TIP3    H143722   1.107   1.385  11.629  0.7401  0.3016  0.0678
 6509TIP3    H243723   0.998   1.476  11.576 -0.3834 -1.6937 -1.1805
 6510TIP3   OH243724   4.287   5.405  12.367 -1.4343 -0.0641 -0.1821
 6510TIP3    H143725   4.356   5.438  12.424 -1.4012 -0.5891  0.0858
 6510TIP3    H243726   4.334   5.354  12.300 -1.4449  0.7987 -0.8708
 6511TIP3   OH243727   6.720   5.851  10.704 -0.0283 -0.1345  0.5340
 6511TIP3    H143728   6.702   5.842  10.798  1.2492  0.2963  0.8422
 6511TIP3    H243729   6.794   5.793  10.688 -1.1070 -1.2680 -0.5229
 6512TIP3   OH243730   0.830   3.751  12.266  0.0427  0.1050 -0.0820
 6512TIP3    H143731   0.781   3.826  12.301  0.3666  0.4174 -0.2909
 6512TIP3    H243732   0.920   3.766  12.294 -0.1658 -1.1001  1.3603
 6513TIP3   OH243733   6.673   2.754  12.448 -0.0883 -0.2466  0.1850
 6513TIP3    H143734   6.749   2.725  12.397  0.4293  1.0872  0.1496
 6513TIP3    H243735   6.689   2.847  12.464 -0.4835 -0.5073  2.3844
 6514TIP3   OH243736   4.305   2.288  12.220 -0.0152 -0.2146 -0.3547
 6514TIP3    H143737   4.285   2.197  12.242  1.8661 -0.5597  0.1223
 6514TIP3    H243738   4.395   2.285  12.186  0.6380  1.6651  1.0471
 6515TIP3   OH243739   6.056   7.455  12.845 -0.1223 -0.0363 -0.3829
 6515TIP3    H143740   6.091   7.374  12.880  0.2406 -0.5175 -1.7903
 6515TIP3    H243741   5.975   7.470  12.894  0.3041 -0.7273  0.5464
 6516TIP3   OH243742   6.033   6.490  10.549 -0.0222  0.1685 -0.3786
 6516TIP3    H143743   5.978   6.526  10.618  0.6469  0.3878  0.0494
 6516TIP3    H243744   6.111   6.545  10.549 -0.1056  0.3282 -1.4766
 6517TIP3   OH243745   2.104   4.356  11.983 -0.7809  0.5394 -0.2565
 6517TIP3    H143746   2.114   4.360  12.078 -3.1821 -1.1275  0.1415
 6517TIP3    H243747   2.172   4.294  11.955 -0.7482  0.2135  0.5034
 6518TIP3   OH243748   1.067   7.938  10.946  0.0990 -0.1605 -0.0834
 6518TIP3    H143749   0.995   7.986  10.906 -1.1406 -2.0931 -0.3041
 6518TIP3    H243750   1.137   8.003  10.957 -1.6928  1.8093  0.2521
 6519TIP3   OH243751   2.510   5.531  10.988 -0.4223  0.4554  0.2443
 6519TIP3    H143752   2.592   5.545  10.942 -0.3305  0.5608  0.4413
 6519TIP3    H243753   2.448   5.505  10.919 -0.1865  0.2206  0.1211
 6520TIP3   OH243754   7.420   0.752  12.480 -0.4489  0.2947 -0.3749
 6520TIP3    H143755   7.355   0.781  12.416 -1.4262 -1.7520 -0.4004
 6520TIP3    H243756   7.370   0.704  12.545  0.7333  0.9835  1.0983
 6521TIP3   OH243757   3.410   7.130  10.571 -0.3022 -0.0364  0.4595
 6521TIP3    H143758   3.368   7.096  10.650  1.2742  0.1600  1.4092
 6521TIP3    H243759   3.490   7.078  10.562 -0.4574 -0.0598 -1.0276
 6522TIP3   OH243760   2.415   0.731  12.512  0.2681 -0.1091  0.3889
 6522TIP3    H143761   2.439   0.793  12.443 -1.1936  1.1898  0.9618
 6522TIP3    H243762   2.413   0.785  12.592  0.3036 -1.2078  1.1482
 6523TIP3   OH243763   1.137   3.458  12.701  0.1963 -0.0214  0.0391
 6523TIP3    H143764   1.050   3.484  12.669 -0.5027 -0.7553  1.2570
 6523TIP3    H243765   1.125   3.449  12.796  1.2351 -1.5909  0.0429
 6524TIP3   OH243766   2.040   3.156  10.861  0.0461 -0.5030 -0.3475
 6524TIP3    H143767   1.954   3.133  10.826 -0.0330 -0.2703 -0.3090
 6524TIP3    H243768   2.069   3.228  10.805  0.1717 -0.5144 -0.2958
 6525TIP3   OH243769   2.509   6.745  10.718  0.3488  0.0332 -0.1597
 6525TIP3    H143770   2.584   6.714  10.769  0.8205 -0.1079 -0.9282
 6525TIP3    H243771   2.459   6.799  10.779  0.4164 -0.8775  0.7198
 6526TIP3   OH243772   5.648   1.340  11.795 -0.6361 -0.1842  0.4014
 6526TIP3    H143773   5.599   1.325  11.877 -1.3309 -1.5887 -0.2243
 6526TIP3    H243774   5.711   1.268  11.792 -1.0290 -0.4978 -0.5833
 6527TIP3   OH243775   5.104   6.974  12.179  0.0722  0.0955  0.0333
 6527TIP3    H143776   5.101   7.061  12.220 -0.7453 -0.2271  0.6910
 6527TIP3    H243777   5.030   6.974  12.118 -0.1966 -0.2882  0.3557
 6528TIP3   OH243778   5.812   4.822  11.536 -0.5755 -0.1943  0.4767
 6528TIP3    H143779   5.871   4.851  11.605 -1.7248  0.1559  1.3522
 6528TIP3    H243780   5.862   4.834  11.455  0.6311 -0.1779  1.1973
 6529TIP3   OH243781   4.502   8.169  11.991  0.8114 -0.3972 -0.1846
 6529TIP3    H143782   4.415   8.181  12.029  1.7576  1.0255  1.6937
 6529TIP3    H243783   4.558   8.149  12.066  2.4497  0.7499 -1.0482
 6530TIP3   OH243784   0.396   1.322  10.512 -0.0684 -0.2970  0.3164
 6530TIP3    H143785   0.463   1.265  10.550  0.6536  0.0822 -0.3653
 6530TIP3    H243786   0.434   1.354  10.430 -0.1845  1.6631  0.9685
 6531TIP3   OH243787   7.850   2.794  11.523 -0.1012 -0.0941  0.0389
 6531TIP3    H143788   7.920   2.849  11.487  0.7948  1.7534  3.9840
 6531TIP3    H243789   7.878   2.704  11.504  0.9810  0.6522 -2.3076
 6532TIP3   OH243790   6.191   6.056  11.282 -0.4927 -0.0991 -0.6611
 6532TIP3    H143791   6.166   5.986  11.221  1.9656 -0.4892 -1.3171
 6532TIP3    H243792   6.159   6.136  11.240 -2.5446 -0.6918 -0.3398
 6533TIP3   OH243793   7.273   0.922  11.051 -0.0174 -0.3333  0.0813
 6533TIP3    H143794   7.285   0.943  11.143  1.1685  0.6613 -0.2682
 6533TIP3    H243795   7.245   0.830  11.051  2.5829 -1.2473  1.3474
 6534TIP3   OH243796   7.610   1.330  12.259 -0.3891 -0.3585 -0.4195
 6534TIP3    H143797   7.664   1.297  12.332  0.2420 -2.7102 -1.8444
 6534TIP3    H243798   7.662   1.401  12.222  0.3635 -0.6617  0.0170
 6535TIP3   OH243799   7.938   3.350  10.890  0.4644  0.0646  0.3526
 6535TIP3    H143800   7.970   3.433  10.854 -0.2441 -0.7567 -2.3238
 6535TIP3    H243801   7.844   3.362  10.901  0.0775 -0.8231 -1.5606
 6536TIP3   OH243802   7.980   7.452  11.429  0.2853 -0.1086  0.1822
 6536TIP3    H143803   7.887   7.474  11.436  0.1116 -0.2370 -1.4415
 6536TIP3    H243804   8.006   7.433  11.519 -1.2739 -0.1334  0.6660
 6537TIP3   OH243805   6.924   3.112  11.712 -0.2292  0.3851  0.2721
 6537TIP3    H143806   6.909   3.018  11.702  0.7305  0.4483 -3.0624
 6537TIP3    H243807   7.018   3.122  11.699 -0.4644  1.8629 -0.4872
 6538TIP3   OH243808   5.623   4.810  11.915  0.3020 -0.2068 -0.0235
 6538TIP3    H143809   5.642   4.744  11.849 -0.5744  0.1656 -0.6725
 6538TIP3    H243810   5.530   4.831  11.902  0.1202 -0.0949  1.2964
 6539TIP3   OH243811   6.281   4.950  11.706  0.5162 -0.0596 -0.0430
 6539TIP3    H143812   6.278   4.854  11.701  0.4164 -0.0373 -0.4778
 6539TIP3    H243813   6.331   4.969  11.785 -0.3149 -0.4695  0.5966
 6540TIP3   OH243814   2.356   3.509  11.151  0.1990 -0.3413  0.0615
 6540TIP3    H143815   2.432   3.559  11.181  0.9578 -1.4928  0.1591
 6540TIP3    H243816   2.307   3.489  11.231  0.0192  0.0394  0.0474
 6541TIP3   OH243817   6.262   7.539  12.117  0.0611 -0.2734  0.3540
 6541TIP3    H143818   6.243   7.577  12.032  1.0200 -1.5943 -0.5060
 6541TIP3    H243819   6.312   7.459  12.097  2.1869  0.4578  2.1994
 6542TIP3   OH243820   0.323   6.020  12.865 -0.7844  0.3429  0.0536
 6542TIP3    H143821   0.379   6.096  12.881  0.4038 -0.6370  0.7317
 6542TIP3    H243822   0.384   5.951  12.840 -1.5849 -0.9876  1.5945
 6543TIP3   OH243823   2.756   0.878  11.461  0.0862 -0.8367  0.0359
 6543TIP3    H143824   2.776   0.924  11.542  1.9490 -0.2423 -0.7100
 6543TIP3    H243825   2.698   0.938  11.414  0.6711 -0.2401  0.0535
 6544TIP3   OH243826   4.713   5.909  11.061  0.1185 -0.2442 -0.1967
 6544TIP3    H143827   4.805   5.912  11.087  0.5652 -1.7069 -1.4123
 6544TIP3    H243828   4.673   5.985  11.102  1.8556  0.3695  0.4297
 6545TIP3   OH243829   7.072   6.727  11.779  0.5224  0.5171 -0.3932
 6545TIP3    H143830   7.160   6.704  11.809 -0.5004 -0.0007  2.5635
 6545TIP3    H243831   7.015   6.661  11.819 -1.5371  2.8174  0.7376
 6546TIP3   OH243832   3.331   6.245  11.689 -0.5925 -0.8832  0.1118
 6546TIP3    H143833   3.337   6.180  11.618 -1.2642  0.3752 -1.1516
 6546TIP3    H243834   3.347   6.195  11.769 -0.1296 -2.4167 -0.8991
 6547TIP3   OH243835   0.045   3.922  12.768  0.5403  0.0457 -0.1507
 6547TIP3    H143836   0.094   3.881  12.697  1.6790  1.1548 -0.0302
 6547TIP3    H243837   0.072   4.014  12.767 -2.3386  1.0002 -0.7858
 6548TIP3   OH243838   2.532   6.860  11.362 -0.0180  0.0370  0.2980
 6548TIP3    H143839   2.605   6.799  11.350 -0.4638 -0.5702  0.6337
 6548TIP3    H243840   2.495   6.837  11.448  0.8762  1.9175  1.2589
 6549TIP3   OH243841   6.105   3.157  12.643 -0.1557  0.2635 -0.0313
 6549TIP3    H143842   6.044   3.085  12.624 -2.1144  2.3947 -2.6873
 6549TIP3    H243843   6.082   3.185  12.732 -1.5930 -0.3670 -0.1678
 6550TIP3   OH243844   8.120   8.298  10.954  0.1784  0.5809  0.7779
 6550TIP3    H143845   8.161   8.286  11.040 -1.3485  1.6302  1.6917
 6550TIP3    H243846   8.061   8.372  10.965 -0.8886  0.0363 -0.8774
 6551TIP3   OH243847   2.895   0.850  10.814  0.1554 -0.3827  0.7519
 6551TIP3    H143848   2.862   0.862  10.725  1.0052  0.0163  0.4809
 6551TIP3    H243849   2.913   0.756  10.820 -0.0006 -0.4277  0.5427
 6552TIP3   OH243850   7.792   6.470  10.879  0.4422  0.0286 -0.4724
 6552TIP3    H143851   7.748   6.532  10.821  0.3174 -0.9042 -1.4009
 6552TIP3    H243852   7.845   6.525  10.937 -0.5525  1.0657 -0.5009
 6553TIP3   OH243853   1.202   3.352  12.426 -0.7637 -0.4123 -0.8798
 6553TIP3    H143854   1.163   3.265  12.428  0.8776 -1.1585  1.0639
 6553TIP3    H243855   1.244   3.363  12.511  1.3360  1.2128 -2.0096
 6554TIP3   OH243856   7.685   3.426  10.959 -0.2724 -0.2591  0.0326
 6554TIP3    H143857   7.622   3.367  11.000 -0.8597  0.9597  0.9326
 6554TIP3    H243858   7.675   3.509  11.006  0.9031  0.4163 -0.8498
 6555TIP3   OH243859   4.943   3.954  11.287  0.0634 -0.1697  0.1594
 6555TIP3    H143860   4.913   3.864  11.277  0.3373 -0.7355  3.2727
 6555TIP3    H243861   5.015   3.964  11.226  1.4705 -2.8406  1.2513
 6556TIP3   OH243862   3.731   5.607  10.916 -0.4618 -0.0003  0.6776
 6556TIP3    H143863   3.755   5.519  10.947  1.5910  0.3309  0.2026
 6556TIP3    H243864   3.654   5.593  10.861  0.1595 -1.6159  0.1434
 6557TIP3   OH243865   8.238   2.842  12.035 -0.0421  0.1073 -0.0335
 6557TIP3    H143866   8.161   2.822  12.088  0.2174  1.3349  0.8526
 6557TIP3    H243867   8.295   2.765  12.045 -0.4622 -0.1267  0.6088
 6558TIP3   OH243868   4.164   5.593  11.413 -0.1393  0.2645 -0.2473
 6558TIP3    H143869   4.181   5.570  11.322  1.0680  2.1931 -0.5660
 6558TIP3    H243870   4.068   5.603  11.418 -0.5118 -2.5721 -0.5487
 6559TIP3   OH243871   6.741   0.251  12.266 -0.1672 -0.2803  0.3435
 6559TIP3    H143872   6.648   0.233  12.250 -0.4007 -0.0157  1.3156
 6559TIP3    H243873   6.788   0.186  12.214 -0.9235 -1.2609  0.8596
 6560TIP3   OH243874   0.497   5.855  12.766 -0.0353 -0.2910 -0.1109
 6560TIP3    H143875   0.469   5.763  12.774  0.1170 -0.5914 -2.4038
 6560TIP3    H243876   0.588   5.849  12.740 -0.0566  0.5088 -0.3706
 6561TIP3   OH243877   7.131   4.860  11.745  0.3739  0.0737 -0.4946
 6561TIP3    H143878   7.166   4.943  11.715 -0.1972  0.2249 -0.7636
 6561TIP3    H243879   7.057   4.842  11.686  0.7033 -0.7920 -0.6621
 6562TIP3   OH243880   3.782   5.193  11.613  0.1161  0.3533  0.1655
 6562TIP3    H143881   3.695   5.155  11.622  0.6274 -0.9075  0.0747
 6562TIP3    H243882   3.767   5.285  11.596 -1.1779  0.3210  1.0293
 6563TIP3   OH243883   6.113   0.401  11.710 -0.2649  0.2237 -0.0233
 6563TIP3    H143884   6.061   0.423  11.787 -1.3483  1.7142 -1.1395
 6563TIP3    H243885   6.203   0.397  11.744 -0.6175  1.5604  1.2098
 6564TIP3   OH243886   0.795   8.069  10.911  0.0987 -0.3509 -0.6485
 6564TIP3    H143887   0.776   8.156  10.874 -3.2223 -0.4149  0.5568
 6564TIP3    H243888   0.743   8.009  10.858  1.4626 -1.5024 -0.7387
 6565TIP3   OH243889   7.059   2.271  10.406 -0.2386 -0.4448 -0.0059
 6565TIP3    H143890   7.059   2.177  10.427 -0.9925 -1.4294 -3.6828
 6565TIP3    H243891   7.151   2.293  10.398 -0.0655 -1.0378  0.2373
 6566TIP3   OH243892   0.156   2.356  11.911 -0.2036 -0.1920  0.9272
 6566TIP3    H143893   0.231   2.364  11.852 -1.3836  0.9480 -0.5207
 6566TIP3    H243894   0.151   2.440  11.956 -1.4052  0.3025 -0.0561
 6567TIP3   OH243895   6.474   0.452  11.361  0.2020  0.0906 -0.3836
 6567TIP3    H143896   6.460   0.531  11.413  1.2581  0.2909 -0.3803
 6567TIP3    H243897   6.486   0.483  11.272 -1.4656 -0.2452 -0.7578
 6568TIP3   OH243898   7.833   6.555  11.982 -0.2914 -0.1602  0.2223
 6568TIP3    H143899   7.778   6.567  11.905 -2.2580 -1.6054  1.2996
 6568TIP3    H243900   7.921   6.577  11.952 -1.3955  2.3197 -1.5849
 6569TIP3   OH243901   4.371   5.240  12.111 -0.1202  0.2760 -0.3399
 6569TIP3    H143902   4.466   5.250  12.117 -0.1495  0.9960 -0.9760
 6569TIP3    H243903   4.351   5.254  12.019 -0.7693 -0.6152 -0.3545
 6570TIP3   OH243904   6.333   6.348  11.626 -0.3122  0.0665 -0.4319
 6570TIP3    H143905   6.261   6.322  11.684 -1.2495 -0.0083 -1.5938
 6570TIP3    H243906   6.351   6.269  11.574  0.6761  0.0583 -0.0928
 6571TIP3   OH243907   2.184   0.876  12.017 -0.4784  0.3658 -0.1146
 6571TIP3    H143908   2.107   0.890  12.073 -0.2079  0.2988  0.2794
 6571TIP3    H243909   2.167   0.930  11.940 -0.4083  1.2452  0.4719
 6572TIP3   OH243910   1.193   5.116  12.436 -0.0379  0.2621 -0.3707
 6572TIP3    H143911   1.232   5.032  12.460  0.2637  0.3382 -0.5843
 6572TIP3    H243912   1.100   5.107  12.457 -0.6338 -1.2055 -3.1572
 6573TIP3   OH243913   3.140   4.505  11.186  0.3815  0.5396  0.1871
 6573TIP3    H143914   3.230   4.478  11.203 -0.6369 -2.4525  1.4662
 6573TIP3    H243915   3.110   4.543  11.269  0.0565  0.1792  0.2415
 6574TIP3   OH243916   0.617   0.669  11.026 -0.1101  0.1513 -0.2350
 6574TIP3    H143917   0.712   0.670  11.016 -0.1494  2.1703 -0.8051
 6574TIP3    H243918   0.599   0.733  11.094 -1.1546  1.2454 -1.4775
 6575TIP3   OH243919   1.529   7.638  11.862 -0.3280 -0.1141 -0.2278
 6575TIP3    H143920   1.450   7.586  11.876 -0.5253  0.1532 -0.3514
 6575TIP3    H243921   1.585   7.581  11.809 -1.2693  0.4726 -1.9155
 6576TIP3   OH243922   4.373   3.810  11.304  0.4459  0.0971  0.2959
 6576TIP3    H143923   4.396   3.856  11.385 -0.6399  1.9192 -0.3777
 6576TIP3    H243924   4.448   3.753  11.287  0.6360 -0.4527  2.6409
 6577TIP3   OH243925   5.934   8.137  11.441  0.4482 -0.1729 -0.3671
 6577TIP3    H143926   5.949   8.217  11.391 -0.0914 -0.7566 -1.4924
 6577TIP3    H243927   6.009   8.133  11.501  0.8143  0.8401 -0.7289
 6578TIP3   OH243928   4.343   8.116  10.889  0.3751  0.2255  0.1998
 6578TIP3    H143929   4.363   8.036  10.841 -0.4878  0.5720 -0.7779
 6578TIP3    H243930   4.344   8.185  10.823  0.6690  0.9582  0.9511
 6579TIP3   OH243931   4.623   1.830  11.379 -0.4297  0.0100 -0.2059
 6579TIP3    H143932   4.660   1.918  11.376 -0.3735 -0.0259 -0.6818
 6579TIP3    H243933   4.640   1.794  11.292  0.8099 -0.9996  0.4244
 6580TIP3   OH243934   4.993   7.326  11.769  0.0950  0.1650 -0.1818
 6580TIP3    H143935   5.036   7.281  11.841  0.6760 -1.4353 -1.4798
 6580TIP3    H243936   4.971   7.412  11.805  1.8871  0.0395  1.3667
 6581TIP3   OH243937   6.278   6.026  12.078 -0.2212 -0.5230  0.3939
 6581TIP3    H143938   6.312   5.958  12.136  0.2394 -1.3100 -0.7658
 6581TIP3    H243939   6.356   6.074  12.050 -0.5075  0.2810  0.9231
 6582TIP3   OH243940   8.216   6.986  12.333  0.1555 -0.5276 -0.1299
 6582TIP3    H143941   8.153   7.056  12.316  0.7133  0.5397  1.8946
 6582TIP3    H243942   8.178   6.937  12.405  0.7375 -1.0688 -0.1844
 6583TIP3   OH243943   5.522   5.437  11.114 -0.1770  0.5775  0.3827
 6583TIP3    H143944   5.542   5.358  11.065 -1.3530  0.2853  0.3473
 6583TIP3    H243945   5.462   5.486  11.058 -0.4951  0.8680  0.9674
 6584TIP3   OH243946   8.017   1.225  12.140 -0.1217 -0.0425  0.2473
 6584TIP3    H143947   7.972   1.141  12.137  0.1873 -0.2097  0.2967
 6584TIP3    H243948   7.978   1.275  12.068 -0.8829  0.0692  0.7265
 6585TIP3   OH243949   4.280   7.446  11.098 -0.2692  0.0923  0.5346
 6585TIP3    H143950   4.345   7.486  11.040 -0.3280  0.8038  0.9507
 6585TIP3    H243951   4.307   7.472  11.186 -0.0270 -1.2090  0.8593
 6586TIP3   OH243952   1.516   1.454  10.982 -0.5420  0.0491 -0.0022
 6586TIP3    H143953   1.517   1.359  10.983  2.3071 -0.0108  0.9232
 6586TIP3    H243954   1.498   1.477  10.890 -3.3347 -1.2491  0.1267
 6587TIP3   OH243955   6.460   0.084  11.325 -0.0809 -0.0890  0.0329
 6587TIP3    H143956   6.490   0.135  11.400 -0.1342  1.2773 -0.8458
 6587TIP3    H243957   6.532   0.022  11.309  0.0147 -0.2713  1.0642
 6588TIP3   OH243958   2.965   1.381  10.828 -0.8581  0.3746 -0.0252
 6588TIP3    H143959   2.943   1.293  10.797 -0.8918  0.2699  0.2975
 6588TIP3    H243960   3.040   1.368  10.886  1.4349  0.9193 -2.6213
 6589TIP3   OH243961   2.604   0.321  11.762 -0.6588  0.1251  0.7634
 6589TIP3    H143962   2.647   0.364  11.836 -2.2446  1.4029  1.0151
 6589TIP3    H243963   2.609   0.386  11.691 -0.7558 -0.3582  0.3090
 6590TIP3   OH243964   8.337   8.334  12.604  0.0398 -0.5290  0.0642
 6590TIP3    H143965   8.271   8.266  12.614  0.8383 -1.2570  0.5117
 6590TIP3    H243966   8.295   8.413  12.638 -0.2015 -1.2297  1.4551
 6591TIP3   OH243967   0.614   5.452  11.732 -0.9107 -0.4496  0.5447
 6591TIP3    H143968   0.700   5.484  11.705 -1.2847 -0.1968 -0.3955
 6591TIP3    H243969   0.593   5.501  11.811 -1.3802  1.5356 -0.7407
 6592TIP3   OH243970   7.905   7.420  12.144  0.0588 -0.1148 -0.5088
 6592TIP3    H143971   7.937   7.361  12.213 -0.5897  0.4883  0.3240
 6592TIP3    H243972   7.811   7.404  12.141 -0.1822  1.1344 -0.0046
 6593TIP3   OH243973   2.200   1.816  11.707  0.0298  0.2257  0.3141
 6593TIP3    H143974   2.109   1.839  11.724  0.2022  1.7205 -0.6723
 6593TIP3    H243975   2.204   1.802  11.612  1.1322  1.7625  0.0972
 6594TIP3   OH243976   4.600   5.885  10.486 -0.6824 -0.2287 -0.2980
 6594TIP3    H143977   4.685   5.914  10.453 -1.6414  1.9737 -1.0235
 6594TIP3    H243978   4.605   5.897  10.581  0.8171 -3.1143  0.1120
 6595TIP3   OH243979   3.523   0.738  11.469 -0.1493  0.1741  0.0041
 6595TIP3    H143980   3.436   0.708  11.497  0.0475  0.5362  1.0600
 6595TIP3    H243981   3.523   0.832  11.489  0.8157 -0.0100  0.9296
 6596TIP3   OH243982   7.272   6.567  10.542 -0.0708 -0.0546 -0.1812
 6596TIP3    H143983   7.305   6.613  10.620  0.2182  1.1517 -0.9856
 6596TIP3    H243984   7.266   6.476  10.569  2.1099 -0.0313  0.6055
 6597TIP3   OH243985   6.705   1.425  11.493 -0.1118 -0.1290 -0.0902
 6597TIP3    H143986   6.680   1.387  11.409 -3.1075 -0.3950  0.7776
 6597TIP3    H243987   6.678   1.517  11.486  1.4817  0.3560 -0.0853
 6598TIP3   OH243988   0.249   3.721  12.970  0.3371 -0.1484 -0.3431
 6598TIP3    H143989   0.177   3.778  12.997 -0.7844 -2.2497  1.2819
 6598TIP3    H243990   0.327   3.777  12.975 -0.8608  1.5580 -0.0209
 6599TIP3   OH243991   8.279   1.289  11.490  0.4081 -0.0990 -0.6622
 6599TIP3    H143992   8.216   1.245  11.433 -0.2975 -1.0983  0.8303
 6599TIP3    H243993   8.230   1.363  11.527  0.3092 -0.4580 -0.0544
 6600TIP3   OH243994   1.906   4.044  10.751 -0.1127 -0.0498 -0.0798
 6600TIP3    H143995   2.002   4.044  10.747 -0.1301 -0.1538 -0.5660
 6600TIP3    H243996   1.885   3.980  10.819  0.1815  0.7600  0.7957
 6601TIP3   OH243997   4.046   3.975  10.809  0.9646 -1.3442 -0.0996
 6601TIP3    H143998   4.090   3.937  10.885  1.3691 -1.0652 -0.1916
 6601TIP3    H243999   4.116   4.015  10.758  0.2787  2.8945  1.8708
 6602TIP3   OH244000   3.902   1.471  12.009  0.0690  0.5221 -0.0615
 6602TIP3    H144001   3.925   1.527  12.082  1.1476  0.7374 -0.5484
 6602TIP3    H244002   3.984   1.458  11.961 -1.0200  2.4620 -2.6597
 6603TIP3   OH244003   5.762   7.743  11.544 -0.0506 -0.1130 -0.2553
 6603TIP3    H144004   5.835   7.733  11.483  1.5495  0.0237  1.5331
 6603TIP3    H244005   5.686   7.709  11.497  1.3502 -1.2104 -1.8339
 6604TIP3   OH244006   7.812   7.904  10.676  0.0894 -0.0733 -0.5884
 6604TIP3    H144007   7.870   7.957  10.730 -0.2011 -0.5262  0.1822
 6604TIP3    H244008   7.727   7.948  10.679 -0.0514 -0.3611 -0.2717
 6605TIP3   OH244009   4.137   5.323  11.224  0.0894 -0.2242  0.1358
 6605TIP3    H144010   4.101   5.282  11.145 -0.2011  0.7325 -0.2484
 6605TIP3    H244011   4.089   5.282  11.296 -0.8056  0.0513 -0.2910
 6606TIP3   OH244012   6.259   1.748  11.872  0.3577  0.0181  0.3549
 6606TIP3    H144013   6.269   1.740  11.778  0.4854  0.7221  0.3012
 6606TIP3    H244014   6.171   1.782  11.884  0.9116  1.5030  0.3900
 6607TIP3   OH244015   7.164   8.062  12.183  0.2836 -0.2194  0.3461
 6607TIP3    H144016   7.213   8.117  12.121 -0.6589 -0.0643 -0.2860
 6607TIP3    H244017   7.092   8.119  12.213  2.0113  0.5413  3.4216
 6608TIP3   OH244018   4.871   3.649  10.602  0.4390  0.0400 -0.5800
 6608TIP3    H144019   4.882   3.689  10.688  1.4754  0.8797 -1.0838
 6608TIP3    H244020   4.960   3.633  10.571  0.0636 -1.5026 -0.9405
 6609TIP3   OH244021   2.681   1.603  11.588  0.2161  0.0466  0.2757
 6609TIP3    H144022   2.669   1.508  11.584  0.2442  0.0299  0.5666
 6609TIP3    H244023   2.718   1.626  11.503 -1.8224  0.0874 -0.6427
 6610TIP3   OH244024   0.391   6.653  16.546  0.3823 -0.0635  0.3470
 6610TIP3    H144025   0.418   6.590  16.613  0.5908 -0.3672 -0.0235
 6610TIP3    H244026   0.355   6.726  16.596  0.8068 -0.1605  0.8040
 6611TIP3   OH244027   0.162   4.704  11.902 -0.3446  0.6070  0.0311
 6611TIP3    H144028   0.183   4.761  11.976 -0.8221 -0.3147  0.9039
 6611TIP3    H244029   0.247   4.678  11.866  0.0678 -1.4902  2.2741
 6612TIP3   OH244030   1.166   1.646  12.666  0.1833 -0.2950 -0.6217
 6612TIP3    H144031   1.154   1.735  12.700 -0.6846  0.1633 -2.0205
 6612TIP3    H244032   1.077   1.610  12.663  0.7182 -2.2017  2.3064
 6613TIP3   OH244033   7.468   2.228  10.752 -0.1213  0.8378 -0.1427
 6613TIP3    H144034   7.441   2.257  10.839  0.1126 -0.2662  0.3061
 6613TIP3    H244035   7.425   2.289  10.692 -3.0418 -0.3808  0.5536
 6614TIP3   OH244036   1.731   0.350  11.977  0.2095  0.1938  0.5225
 6614TIP3    H144037   1.659   0.338  12.038 -0.8796 -1.2830 -0.9707
 6614TIP3    H244038   1.785   0.272  11.989  0.5756  0.4145  0.3367
 6615TIP3   OH244039   3.674   1.616  10.778 -0.5656  0.4602  0.0173
 6615TIP3    H144040   3.619   1.555  10.729  0.2014 -0.2569  0.0403
 6615TIP3    H244041   3.619   1.644  10.851 -1.7382  1.5585 -1.2148
 6616TIP3   OH244042   2.774   4.522  11.507  0.2589  0.3570 -0.6789
 6616TIP3    H144043   2.867   4.513  11.526  0.4831  0.1084 -1.8559
 6616TIP3    H244044   2.732   4.452  11.557  0.7594  0.1017 -0.6111
 6617TIP3   OH244045   4.505   0.045  12.224 -0.5561 -0.1516 -0.5765
 6617TIP3    H144046   4.586  -0.006  12.228 -1.1750 -1.1613 -0.6782
 6617TIP3    H244047   4.465   0.022  12.140 -2.5225 -2.1714  0.8045
 6618TIP3   OH244048   4.318   6.168  10.627 -0.0743  0.2369 -0.5414
 6618TIP3    H144049   4.276   6.102  10.571 -2.6675  0.0059  1.4926
 6618TIP3    H244050   4.382   6.118  10.678 -0.4182 -0.2731 -0.5998
 6619TIP3   OH244051   2.600   3.236  10.129 -0.1439 -0.7063 -0.2663
 6619TIP3    H144052   2.578   3.211  10.219  1.1583 -2.5613 -0.3950
 6619TIP3    H244053   2.546   3.179  10.075 -1.1481  0.6171 -0.6956
 6620TIP3   OH244054   4.428   0.265  11.248  0.2446  0.4817  0.6514
 6620TIP3    H144055   4.385   0.289  11.330  0.5333 -1.4998  1.4482
 6620TIP3    H244056   4.390   0.180  11.224 -0.9198  1.6600 -2.1329
 6621TIP3   OH244057   6.873   1.015  11.945  0.3353 -0.2556  0.2206
 6621TIP3    H144058   6.964   1.036  11.969 -0.4632  1.9651  1.6518
 6621TIP3    H244059   6.848   0.947  12.008  0.0970  1.3844  2.0190
 6622TIP3   OH244060   2.965   2.707  11.136 -0.4486 -0.5127  0.0674
 6622TIP3    H144061   2.898   2.768  11.105  1.3044  1.2474 -0.4645
 6622TIP3    H244062   3.013   2.683  11.057  2.3621  1.8766  0.8859
 6623TIP3   OH244063   8.349   6.169  10.637  0.3616 -0.0105 -0.0823
 6623TIP3    H144064   8.340   6.117  10.717 -0.1118 -0.4772 -0.4310
 6623TIP3    H244065   8.443   6.171  10.620  0.3503 -1.3608 -0.4440
 6624TIP3   OH244066   6.569   5.447  11.977 -0.0595  0.0490  0.5723
 6624TIP3    H144067   6.486   5.452  11.931  0.3340  0.8032 -0.0867
 6624TIP3    H244068   6.560   5.372  12.036 -0.8687 -0.4372 -0.1492
 6625TIP3   OH244069   1.744   4.576  12.374 -0.2832 -0.5219 -0.2945
 6625TIP3    H144070   1.675   4.565  12.440  0.9191  0.5649  1.2128
 6625TIP3    H244071   1.713   4.649  12.320 -1.0056 -1.0296 -0.5771
 6626TIP3   OH244072   0.223   7.500  12.570  0.0355 -0.7108  0.3579
 6626TIP3    H144073   0.316   7.491  12.592  0.4903  1.3740 -0.5348
 6626TIP3    H244074   0.222   7.557  12.494 -1.9605 -1.3441 -0.1225
 6627TIP3   OH244075   6.908   2.403  10.689  0.1548  0.1343  0.1177
 6627TIP3    H144076   6.918   2.350  10.610 -2.4393  1.8636 -1.5389
 6627TIP3    H244077   6.912   2.494  10.658  0.3568  0.8831  2.1876
 6628TIP3   OH244078   6.284   7.414  10.518  0.3932 -0.1954 -0.2515
 6628TIP3    H144079   6.318   7.337  10.472 -0.1150  0.0241 -1.0282
 6628TIP3    H244080   6.206   7.382  10.563 -0.2610  0.0101 -1.2017
 6629TIP3   OH244081   4.204   3.362  11.672  0.3967  0.0757  0.1991
 6629TIP3    H144082   4.153   3.403  11.742  1.2560  0.2035  0.7662
 6629TIP3    H244083   4.290   3.403  11.678  1.5079 -2.2112  1.2149
 6630TIP3   OH244084   1.483   3.429  12.029  0.2469 -0.5328  0.5272
 6630TIP3    H144085   1.453   3.456  12.116 -2.3095  2.8544 -1.1704
 6630TIP3    H244086   1.576   3.453  12.026  0.4415 -0.9495  2.3392
 6631TIP3   OH244087   3.392   5.490  11.467  0.3439 -0.3562 -0.1418
 6631TIP3    H144088   3.363   5.405  11.434  0.1064  0.5859 -2.5909
 6631TIP3    H244089   3.322   5.518  11.525 -0.6173 -0.9317 -0.9752
 6632TIP3   OH244090   3.032   7.819  12.190  0.4799  0.6352 -0.0897
 6632TIP3    H144091   3.047   7.910  12.215  1.0046  0.7721 -0.8764
 6632TIP3    H244092   3.067   7.812  12.101  1.1702 -0.5320  0.2570
 6633TIP3   OH244093   8.095   6.772  11.836 -0.2988  0.4610 -0.3761
 6633TIP3    H144094   8.031   6.825  11.789 -1.1688  0.1097  0.3674
 6633TIP3    H244095   8.124   6.706  11.773 -0.1507  1.0458 -0.9251
 6634TIP3   OH244096   7.266   8.082  10.791  0.2406  0.0763  0.0483
 6634TIP3    H144097   7.320   8.144  10.839 -0.5585 -0.4500  1.7120
 6634TIP3    H244098   7.190   8.133  10.763 -0.6817 -0.2000  1.8849
 6635TIP3   OH244099   1.975   1.942  12.260 -0.1149 -0.7402 -0.4553
 6635TIP3    H144100   1.949   1.903  12.343 -0.2561  1.1552  0.4521
 6635TIP3    H244101   2.071   1.947  12.266 -0.0042 -1.9295 -1.0547
 6636TIP3   OH244102   0.316   7.626  11.520  0.0768 -0.2787  0.0654
 6636TIP3    H144103   0.270   7.576  11.588  0.5062 -1.3961 -0.4344
 6636TIP3    H244104   0.398   7.653  11.561  0.4647 -1.1963 -0.0620
 6637TIP3   OH244105   5.824   7.710  11.819 -0.2931 -0.0246  0.4221
 6637TIP3    H144106   5.894   7.735  11.878 -1.5347  1.0014  1.5376
 6637TIP3    H244107   5.832   7.770  11.745 -0.7176  0.9307  1.1276
 6638TIP3   OH244108   6.061   5.797  11.623  0.2554  0.2392 -0.0640
 6638TIP3    H144109   6.111   5.738  11.567 -0.3750  0.5048 -0.9272
 6638TIP3    H244110   6.127   5.843  11.675  0.9836  1.1689 -1.7447
 6639TIP3   OH244111   7.566   3.618  11.108  0.9566 -0.9671 -0.3077
 6639TIP3    H144112   7.479   3.578  11.111  0.5640 -0.1627 -0.8358
 6639TIP3    H244113   7.562   3.680  11.036  2.1045 -1.2161 -0.6124
 6640TIP3   OH244114   2.736   1.883  11.210 -0.2221  0.1843  0.9286
 6640TIP3    H144115   2.738   1.956  11.271  1.6880  0.0526  1.0774
 6640TIP3    H244116   2.666   1.905  11.149 -1.7218  0.6395  2.7332
 6641TIP3   OH244117   5.385   0.348  11.831  0.2169  0.2736  0.0267
 6641TIP3    H144118   5.466   0.320  11.789  0.6026  0.3773  0.7020
 6641TIP3    H244119   5.391   0.316  11.921  0.8948  2.8734  0.9887
 6642TIP3   OH244120   4.738   5.596  11.711 -0.4424  0.5415  0.1450
 6642TIP3    H144121   4.701   5.684  11.719 -1.2968  0.1970  0.0648
 6642TIP3    H244122   4.664   5.541  11.685 -0.2292 -0.4604  1.5668
 6643TIP3   OH244123   2.483   1.454  11.135  0.1135  0.3290  0.3869
 6643TIP3    H144124   2.563   1.443  11.083 -0.6245  0.6544 -0.8722
 6643TIP3    H244125   2.497   1.401  11.213  0.9081 -0.9376 -0.5751
 6644TIP3   OH244126   5.121   3.910  10.678  0.4029 -0.1085  0.4028
 6644TIP3    H144127   5.081   3.859  10.748 -2.2106  1.3260  0.0724
 6644TIP3    H244128   5.095   4.001  10.696  1.6911  0.6218 -1.1224
 6645TIP3   OH244129   1.208   5.841  10.711  0.6914  0.3064 -0.7234
 6645TIP3    H144130   1.259   5.904  10.661 -0.0868  0.7086 -1.0293
 6645TIP3    H244131   1.134   5.819  10.654 -0.2026  0.7648  0.2185
 6646TIP3   OH244132   7.932   7.178  10.656  0.3617 -0.1635  0.8328
 6646TIP3    H144133   8.002   7.121  10.686 -0.1057 -0.9572  0.4486
 6646TIP3    H244134   7.974   7.237  10.594  0.3324 -2.0580 -1.1105
 6647TIP3   OH244135   2.183   7.066  12.343  0.3702 -0.2399  0.0739
 6647TIP3    H144136   2.226   7.029  12.420 -0.8952 -1.3413  0.2805
 6647TIP3    H244137   2.185   7.160  12.358  0.3520 -0.4205  1.3576
 6648TIP3   OH244138   8.314   2.073  12.945  0.8964  0.1139  0.2077
 6648TIP3    H144139   8.311   2.077  13.040  0.9807  2.7226  0.1909
 6648TIP3    H244140   8.222   2.060  12.919  0.4707  1.8763  0.6666
 6649TIP3   OH244141   2.782   7.238  11.368  0.3762 -0.0061 -0.7753
 6649TIP3    H144142   2.802   7.298  11.296 -1.0625 -0.0070 -1.2078
 6649TIP3    H244143   2.779   7.294  11.445 -1.2071  0.5844 -1.2116
 6650TIP3   OH244144   0.203   2.286  10.803 -0.1796  0.1103  0.5076
 6650TIP3    H144145   0.164   2.292  10.716 -0.0003 -0.4580  0.3855
 6650TIP3    H244146   0.174   2.366  10.848 -2.6183 -0.9013  0.8764
 6651TIP3   OH244147   6.193   3.716  12.924  0.3387 -0.7107 -0.5458
 6651TIP3    H144148   6.148   3.653  12.980 -0.1034 -0.8266 -1.0199
 6651TIP3    H244149   6.255   3.663  12.874  0.0853 -0.7484 -0.8233
 6652TIP3   OH244150   6.535   6.258  12.540  0.0058 -0.2321 -0.7434
 6652TIP3    H144151   6.585   6.178  12.522 -0.2484 -0.3015 -1.1507
 6652TIP3    H244152   6.446   6.227  12.559  0.3138 -0.1796  0.9011
 6653TIP3   OH244153   4.156   8.359  11.688 -0.3166  0.0419 -0.1651
 6653TIP3    H144154   4.155   8.266  11.664  1.5602 -0.2761  0.7585
 6653TIP3    H244155   4.066   8.379  11.711 -0.5930 -1.8386  0.5867
 6654TIP3   OH244156   5.865   3.913  11.162 -0.4745  0.4228  0.0403
 6654TIP3    H144157   5.938   3.870  11.117 -1.6947 -1.0026 -0.6767
 6654TIP3    H244158   5.849   3.860  11.240  0.2941  1.7019  1.1207
 6655TIP3   OH244159   1.040   0.650  11.103 -0.5102 -0.2775  0.3801
 6655TIP3    H144160   0.984   0.709  11.154  0.9947  0.4452  1.2449
 6655TIP3    H244161   1.122   0.646  11.151 -0.1495 -2.1838 -0.2883
 6656TIP3   OH244162   2.039   3.510  11.786 -0.0902 -0.2876  0.1815
 6656TIP3    H144163   2.065   3.506  11.694 -0.7235  0.5486 -0.0527
 6656TIP3    H244164   2.118   3.488  11.835  1.1044  2.0889 -0.4946
 6657TIP3   OH244165   1.009   5.511  11.530 -0.3867  0.0091  0.3616
 6657TIP3    H144166   0.988   5.512  11.624 -1.1585  0.6452  0.1898
 6657TIP3    H244167   0.931   5.546  11.488 -0.4708 -1.3003 -0.6250
 6658TIP3   OH244168   8.188   2.245  12.465  0.2443  0.1175 -0.5810
 6658TIP3    H144169   8.156   2.251  12.555  1.4311 -0.6536 -0.0928
 6658TIP3    H244170   8.279   2.274  12.469  0.4511 -0.3614 -1.4397
 6659TIP3   OH244171   5.719   5.156  10.600 -0.2868  0.6204  0.0898
 6659TIP3    H144172   5.773   5.105  10.539  0.5784  1.7696 -0.1189
 6659TIP3    H244173   5.765   5.239  10.611 -0.9739  0.8474  1.5027
 6660TIP3   OH244174   6.003   8.039  12.056  0.4277 -0.3458 -0.2637
 6660TIP3    H144175   6.098   8.032  12.046  0.6739 -1.0445  1.8793
 6660TIP3    H244176   5.974   8.092  11.982  2.3287 -1.0732 -1.6091
 6661TIP3   OH244177   3.172   7.654  12.368  0.1615 -0.4898 -0.2829
 6661TIP3    H144178   3.119   7.680  12.293 -1.3199  0.7743  1.1410
 6661TIP3    H244179   3.123   7.581  12.407  0.0119 -0.0199  0.4210
 6662TIP3   OH244180   5.078   6.360  11.295 -0.3144  0.1928  0.1918
 6662TIP3    H144181   5.071   6.335  11.387 -2.3989  2.4243  0.7688
 6662TIP3    H244182   5.139   6.434  11.295  0.7341 -0.6514 -0.4650
 6663TIP3   OH244183   7.854   5.535  10.722  0.2685 -0.5852 -0.2510
 6663TIP3    H144184   7.795   5.536  10.798 -0.3613  1.7816 -0.6731
 6663TIP3    H244185   7.932   5.490  10.752 -0.6084 -1.1677  1.2652
 6664TIP3   OH244186   2.999   6.757  10.368 -0.6405 -0.4500  0.3759
 6664TIP3    H144187   2.919   6.807  10.354  0.1269  0.4793 -0.9042
 6664TIP3    H244188   3.030   6.785  10.455 -1.0957  0.0452  0.3842
 6665TIP3   OH244189   1.067   6.150  11.545 -0.2746 -0.0571  0.0776
 6665TIP3    H144190   0.988   6.186  11.505 -0.1377  1.1529  0.8589
 6665TIP3    H244191   1.091   6.077  11.487 -1.1959  0.3890 -0.9144
 6666TIP3   OH244192   0.557   3.290  12.781  0.4860 -0.3605 -0.1787
 6666TIP3    H144193   0.497   3.358  12.812  1.5696  0.3453  0.3902
 6666TIP3    H244194   0.556   3.299  12.685 -0.0536 -0.1448 -0.1577
 6667TIP3   OH244195   1.801   6.460  12.726  0.1562  0.3986  0.2942
 6667TIP3    H144196   1.868   6.526  12.706  0.2089 -0.2105 -1.8189
 6667TIP3    H244197   1.839   6.407  12.796  2.2373 -0.3293 -1.2741
 6668TIP3   OH244198   8.093   4.495  11.627  0.2579 -0.4657 -0.1975
 6668TIP3    H144199   8.141   4.435  11.569  2.3437  0.8365  0.0399
 6668TIP3    H244200   8.104   4.458  11.714  0.6527 -0.2975 -0.1728
 6669TIP3   OH244201   6.486   7.055  11.556  0.4897 -0.0966  0.4459
 6669TIP3    H144202   6.464   7.023  11.468  0.1481 -0.0293  0.5039
 6669TIP3    H244203   6.500   6.976  11.607  2.4353 -0.1475 -0.0790
 6670TIP3   OH244204   2.974   7.478  12.452 -0.1797  0.4263 -0.1322
 6670TIP3    H144205   2.933   7.527  12.523 -0.5935  0.5718 -0.4680
 6670TIP3    H244206   3.010   7.400  12.495 -0.3380  0.5601  0.2528
 6671TIP3   OH244207   7.408   3.448  10.217  0.4659 -0.1484  0.2411
 6671TIP3    H144208   7.457   3.515  10.266  0.5135  2.0809 -2.5829
 6671TIP3    H244209   7.317   3.478  10.222  0.4434 -0.0184 -0.7741
 6672TIP3   OH244210   1.631   1.953  11.420 -0.1095  0.0244 -0.0138
 6672TIP3    H144211   1.646   1.859  11.408 -1.4241 -0.0130 -1.6734
 6672TIP3    H244212   1.588   1.959  11.506  0.7803 -0.7687  0.5135
 6673TIP3   OH244213   2.506   0.171  11.174 -0.7081 -0.2599 -0.5580
 6673TIP3    H144214   2.502   0.225  11.095  0.0971  1.7424  0.6912
 6673TIP3    H244215   2.598   0.148  11.182 -0.6383  0.2808  0.2516
 6674TIP3   OH244216   4.623   0.969  11.817  0.5264 -0.1574 -0.5043
 6674TIP3    H144217   4.698   1.013  11.778  1.0304  0.4358  1.0760
 6674TIP3    H244218   4.567   1.040  11.848  0.7333 -0.5804  0.9192
 6675TIP3   OH244219   6.706   4.808  11.130  0.4005 -0.0135  0.2505
 6675TIP3    H144220   6.779   4.869  11.137 -0.7692  1.5580 -0.4692
 6675TIP3    H244221   6.698   4.789  11.036 -0.0305 -0.2506  0.3293
 6676TIP3   OH244222   7.041   2.252  11.020  0.0444  0.4700  0.3051
 6676TIP3    H144223   7.042   2.239  11.115 -1.8084 -0.5970  0.2354
 6676TIP3    H244224   6.950   2.236  10.995  0.4217  1.0889 -1.6113
 6677TIP3   OH244225   1.396   2.290  11.765 -0.0261  0.3144  0.5049
 6677TIP3    H144226   1.334   2.245  11.822 -0.4158 -1.1000 -0.9666
 6677TIP3    H244227   1.357   2.284  11.678  1.4268  0.7942 -0.2102
 6678TIP3   OH244228   7.545   0.233  11.744  0.0182  0.6270  0.4215
 6678TIP3    H144229   7.627   0.185  11.751 -0.5626 -0.3787  0.5636
 6678TIP3    H244230   7.515   0.242  11.834 -0.0111  1.0174  0.3720
 6679TIP3   OH244231   7.808   6.851  12.381 -0.4516  0.0266 -0.4599
 6679TIP3    H144232   7.890   6.802  12.383 -0.3983  0.1150 -0.4624
 6679TIP3    H244233   7.826   6.926  12.324 -0.1530  0.7116  0.5032
 6680TIP3   OH244234   7.527   0.220  11.471  0.8922  0.6785 -0.0715
 6680TIP3    H144235   7.449   0.167  11.453 -0.4499  2.8023 -0.9429
 6680TIP3    H244236   7.527   0.233  11.566 -0.6602  1.7715 -0.1828
 6681TIP3   OH244237   7.960   6.010  11.712 -0.2791  0.0436  0.5347
 6681TIP3    H144238   7.984   6.000  11.804 -3.0479 -0.0764  1.3385
 6681TIP3    H244239   7.967   6.104  11.695 -1.8762  0.3793  1.5669
 6682TIP3   OH244240   1.426   8.225  11.674  0.0581 -0.2475  0.1826
 6682TIP3    H144241   1.365   8.292  11.641  0.3566  0.0601  0.2597
 6682TIP3    H244242   1.446   8.252  11.763  0.9286  0.0897 -0.1064
 6683TIP3   OH244243   4.162   7.358  10.866 -0.0512 -0.1119  0.3530
 6683TIP3    H144244   4.189   7.408  10.944 -0.2736  0.6203 -0.0271
 6683TIP3    H244245   4.076   7.323  10.889  0.2275 -0.5687  0.7283
 6684TIP3   OH244246   6.682   2.579  11.027 -0.1893  0.4211 -0.4153
 6684TIP3    H144247   6.620   2.535  11.085 -1.2791  0.9345 -1.1553
 6684TIP3    H244248   6.764   2.532  11.040 -0.7882 -0.4426  0.4051
 6685TIP3   OH244249   6.449   3.111  11.531 -0.1566  0.0753 -0.1154
 6685TIP3    H144250   6.371   3.132  11.583  0.8636  0.8570  1.1434
 6685TIP3    H244251   6.441   3.166  11.453 -0.8392  0.1642  0.0056
 6686TIP3   OH244252   6.109   8.357  11.071 -0.5579 -0.0036  0.3671
 6686TIP3    H144253   6.082   8.449  11.072  2.4924  1.0366 -1.2328
 6686TIP3    H244254   6.168   8.348  11.146  0.2409 -0.2494 -0.2750
 6687TIP3   OH244255   8.320   8.068  11.362  0.6980 -0.2064 -0.4801
 6687TIP3    H144256   8.392   8.101  11.309  1.1612 -2.1893 -1.1864
 6687TIP3    H244257   8.341   8.095  11.451  1.4693  0.6132 -0.8978
 6688TIP3   OH244258   5.134   1.740  10.958  0.2039  0.1675  0.3323
 6688TIP3    H144259   5.208   1.679  10.952 -1.1199 -1.4727  0.1683
 6688TIP3    H244260   5.170   1.816  11.005  1.6190 -1.1543  1.4837
 6689TIP3   OH244261   5.793   4.974  12.049 -0.6629  0.2132 -0.0690
 6689TIP3    H144262   5.742   4.901  12.013  1.1116 -0.9023 -0.4410
 6689TIP3    H244263   5.748   4.996  12.131 -0.6097 -2.1291  0.6765
 6690TIP3   OH244264   4.525   4.345  11.928 -0.1955  0.3275 -0.2892
 6690TIP3    H144265   4.612   4.350  11.968  0.2454 -0.5386 -1.0690
 6690TIP3    H244266   4.488   4.263  11.961  0.3811 -0.6590 -1.9698
 6691TIP3   OH244267   2.150   3.921  10.450  0.1896  0.5840  0.3476
 6691TIP3    H144268   2.170   3.830  10.473  1.4514  0.6468 -0.4348
 6691TIP3    H244269   2.101   3.916  10.368 -1.8377  0.5144  1.5014
 6692TIP3   OH244270   7.509   1.657  12.799  0.8293  0.3275  0.6943
 6692TIP3    H144271   7.459   1.579  12.775 -0.1088  1.6445 -2.1089
 6692TIP3    H244272   7.443   1.724  12.814  1.6664  1.0305  1.3449
 6693TIP3   OH244273   2.207   2.577  10.599 -0.6147 -0.4643 -0.3507
 6693TIP3    H144274   2.253   2.643  10.549 -0.5063 -0.3560 -0.1106
 6693TIP3    H244275   2.114   2.599  10.590 -0.5524  0.0234  0.1455
 6694TIP3   OH244276   5.580   3.963  10.771 -0.1051  0.2555  0.2005
 6694TIP3    H144277   5.567   3.940  10.679  0.0295  0.1106  0.2176
 6694TIP3    H244278   5.627   4.047  10.768  0.6566 -0.1650  0.1299
 6695TIP3   OH244279   6.136   3.957  11.029  0.1684  0.3441  0.1206
 6695TIP3    H144280   6.179   3.964  10.944  0.8639  2.2254  0.5719
 6695TIP3    H244281   6.128   4.048  11.059 -0.6007 -0.2390  1.8054
 6696TIP3   OH244282   6.949   8.204  11.061  0.0357  0.0067 -0.0083
 6696TIP3    H144283   7.026   8.261  11.060  0.0188  0.0564  0.7489
 6696TIP3    H244284   6.978   8.123  11.019  0.7981 -0.3271  1.1186
 6697TIP3   OH244285   2.090   4.589  13.105  0.3192  0.1328  0.2168
 6697TIP3    H144286   2.046   4.617  13.025  0.7138  0.6083  0.1613
 6697TIP3    H244287   2.037   4.516  13.137 -1.3276  1.5435  0.9081
 6698TIP3   OH244288   3.598   4.125  11.766  0.2638 -0.4151  0.2665
 6698TIP3    H144289   3.525   4.179  11.736 -0.5331 -1.5794  0.0504
 6698TIP3    H244290   3.629   4.169  11.845  1.0289  1.5361 -1.0195
 6699TIP3   OH244291   6.138   7.455  12.551 -0.0276  0.4118  0.3219
 6699TIP3    H144292   6.106   7.452  12.641 -0.6866  0.2849  0.0917
 6699TIP3    H244293   6.205   7.387  12.547  0.3896  0.7841  0.8571
 6700TIP3   OH244294   2.429   2.418  11.529  0.0399 -0.2425  0.7860
 6700TIP3    H144295   2.467   2.413  11.441 -1.3924 -0.2158  0.1448
 6700TIP3    H244296   2.432   2.511  11.551 -0.7307 -0.0833  0.2402
 6701TIP3   OH244297   8.162   0.619  11.393 -0.1500 -0.4261  0.2389
 6701TIP3    H144298   8.079   0.615  11.345  0.2653 -0.7330 -0.4818
 6701TIP3    H244299   8.157   0.546  11.454 -0.7011 -0.0123  0.6960
 6702TIP3   OH244300   8.147   2.273  12.742  0.2643  0.1491  0.3474
 6702TIP3    H144301   8.129   2.185  12.777 -2.6286 -0.9437 -3.1168
 6702TIP3    H244302   8.114   2.333  12.808 -2.5861 -1.6456  0.7452
 6703TIP3   OH244303   8.277   0.951  10.769 -0.4000  0.0340 -0.0175
 6703TIP3    H144304   8.285   1.042  10.743 -2.3859  0.2719  0.0201
 6703TIP3    H244305   8.299   0.950  10.862 -1.4105  0.6843  0.2412
 6704TIP3   OH244306   7.989   2.456  12.015  0.3373 -0.2340  0.2184
 6704TIP3    H144307   8.014   2.422  12.101  1.3705 -0.8858 -0.3076
 6704TIP3    H244308   7.985   2.551  12.027  2.5408 -0.1157  0.5368
 6705TIP3   OH244309   6.006   7.167  12.687  0.1406  0.0761 -0.4909
 6705TIP3    H144310   6.087   7.154  12.639  0.4383 -1.7776  0.4350
 6705TIP3    H244311   6.032   7.167  12.779 -0.7314  1.0886 -0.2171
 6706TIP3   OH244312   3.282   0.649  10.941  0.0117  0.0291  0.5512
 6706TIP3    H144313   3.272   0.567  10.990  1.0127 -0.1791  0.4268
 6706TIP3    H244314   3.374   0.672  10.951 -0.0420  0.6241 -0.2413
 6707TIP3   OH244315   3.819   4.365  12.745 -0.4342  0.5682 -0.1311
 6707TIP3    H144316   3.741   4.365  12.689 -1.0861  0.2017  0.7515
 6707TIP3    H244317   3.809   4.443  12.799 -0.0063  0.7015 -0.2370
 6708TIP3   OH244318   5.151   2.729  11.176 -0.3549 -0.7455  0.6806
 6708TIP3    H144319   5.232   2.761  11.135  0.6105 -0.4305  2.6918
 6708TIP3    H244320   5.179   2.652  11.226 -1.1646 -0.2722  1.8880
 6709TIP3   OH244321   7.265   5.796  10.918 -0.3947  0.6173 -0.2753
 6709TIP3    H144322   7.336   5.859  10.917 -0.0331  0.2418  0.4461
 6709TIP3    H244323   7.224   5.807  11.005 -1.0302  0.6291 -0.5677
 6710TIP3   OH244324   3.354   1.758  10.663  0.7126  0.4730  0.0433
 6710TIP3    H144325   3.394   1.674  10.640  1.2888  1.2411 -2.0171
 6710TIP3    H244326   3.309   1.786  10.583 -1.5664  1.0005  1.4417
 6711TIP3   OH244327   2.301   4.447  12.505 -0.1019  0.0393 -0.0927
 6711TIP3    H144328   2.336   4.371  12.552  1.9860  1.4367  0.7376
 6711TIP3    H244329   2.207   4.443  12.520  0.0279 -2.0064  0.4864
 6712TIP3   OH244330   3.298   0.578  11.514  0.4101  0.0555  0.1334
 6712TIP3    H144331   3.249   0.607  11.437  2.4803  0.1763 -1.2270
 6712TIP3    H244332   3.326   0.489  11.492  0.1417 -0.3158  1.2205
 6713TIP3   OH244333   6.347   5.369  11.612 -0.0642  0.1956  0.4964
 6713TIP3    H144334   6.359   5.383  11.706 -0.6527 -0.5276  0.6832
 6713TIP3    H244335   6.305   5.449  11.581 -0.0087  0.3726  0.8782
 6714TIP3   OH244336   1.458   7.033  10.510  0.4143 -0.3421 -0.5240
 6714TIP3    H144337   1.455   6.938  10.508  1.2513 -0.3730 -2.8879
 6714TIP3    H244338   1.370   7.061  10.485 -1.0239 -0.3305  3.7315
 6715TIP3   OH244339   3.316   4.860  10.542 -0.4307 -0.2755  0.3141
 6715TIP3    H144340   3.269   4.807  10.608 -0.2977 -0.1282  0.5278
 6715TIP3    H244341   3.256   4.862  10.467 -0.6948 -0.2314  0.5231
 6716TIP3   OH244342   8.086   5.208  11.537  0.0554  0.2274  0.1950
 6716TIP3    H144343   8.075   5.246  11.624 -0.2144  2.0148 -0.5814
 6716TIP3    H244344   7.998   5.206  11.501  0.1985 -0.3015 -0.1311
 6717TIP3   OH244345   7.360   3.967  12.124  0.6808 -0.2417  0.3678
 6717TIP3    H144346   7.430   3.914  12.161 -0.2564 -1.5812  0.2966
 6717TIP3    H244347   7.279   3.924  12.152 -0.1037  0.6418 -0.4441
 6718TIP3   OH244348   3.415   7.299  10.811 -0.5663 -0.2489  0.2623
 6718TIP3    H144349   3.439   7.391  10.803 -2.7792  0.3170 -0.4299
 6718TIP3    H244350   3.441   7.259  10.728 -0.3004 -0.0850  0.2671
 6719TIP3   OH244351   0.525   2.673  10.737 -0.2787  0.6022 -0.5078
 6719TIP3    H144352   0.605   2.698  10.691  1.4331 -0.8799  1.4548
 6719TIP3    H244353   0.481   2.756  10.756  0.3657  1.4037 -2.2815
 6720TIP3   OH244354   0.317   1.043  11.952 -0.4830 -0.2890  0.1525
 6720TIP3    H144355   0.267   1.122  11.931  0.5390  0.1099 -0.8800
 6720TIP3    H244356   0.263   0.972  11.917 -0.5236  0.1051 -0.6282
 6721TIP3   OH244357   6.238   7.613  11.817 -0.7792  0.3187 -0.1686
 6721TIP3    H144358   6.149   7.645  11.834 -0.4608  1.7757 -1.0822
 6721TIP3    H244359   6.235   7.580  11.727 -0.5839 -0.3849  0.0747
 6722TIP3   OH244360   3.612   2.165  10.461 -0.0059 -0.2948 -0.3425
 6722TIP3    H144361   3.533   2.219  10.470  0.0361 -0.5325  2.4060
 6722TIP3    H244362   3.584   2.091  10.408 -0.9452  0.7954 -1.4513
 6723TIP3   OH244363   3.039   1.666  10.847 -0.2465 -0.3078  0.1491
 6723TIP3    H144364   3.037   1.572  10.826  1.1675 -0.0119 -1.6561
 6723TIP3    H244365   3.123   1.678  10.891  1.3158  0.5865 -2.8169
 6724TIP3   OH244366   7.015   6.658  10.696  0.7958 -0.1988  0.5184
 6724TIP3    H144367   7.014   6.748  10.726 -2.3994 -0.4463  1.5362
 6724TIP3    H244368   7.015   6.664  10.600 -2.0943  1.0963  0.4866
 6725TIP3   OH244369   1.821   1.903  11.097 -0.4196 -0.0083 -1.1852
 6725TIP3    H144370   1.730   1.930  11.110  0.3470  1.8853  0.7999
 6725TIP3    H244371   1.850   1.953  11.021 -0.0746  2.1977  0.3054
 6726TIP3   OH244372   4.218   1.092  11.685  0.1447 -0.2075 -0.9924
 6726TIP3    H144373   4.245   1.015  11.634 -0.1794 -0.2209 -1.1417
 6726TIP3    H244374   4.127   1.076  11.708  1.2087 -2.0069  2.8356
 6727TIP3   OH244375   3.857   5.062  10.538 -0.0756 -0.0910 -0.6194
 6727TIP3    H144376   3.945   5.029  10.518 -0.3974 -0.7571 -0.9591
 6727TIP3    H244377   3.798   5.000  10.495 -0.7339 -0.1824  0.3784
 6728TIP3   OH244378   3.102   4.910  10.373 -0.3333  0.1833 -0.3810
 6728TIP3    H144379   3.027   4.970  10.373  0.3446  1.0645  0.3941
 6728TIP3    H244380   3.163   4.949  10.311  0.2047  0.4366  0.2950
 6729TIP3   OH244381   5.787   1.129  11.912  0.9001  0.2694  0.0208
 6729TIP3    H144382   5.706   1.110  11.961  1.4108 -1.8104  0.1508
 6729TIP3    H244383   5.855   1.082  11.960  1.7795 -0.0251 -1.4781
 6730TIP3   OH244384   0.983   3.243  11.872 -0.1331 -0.0461 -0.0399
 6730TIP3    H144385   0.941   3.301  11.936  1.4690 -0.9972  1.9761
 6730TIP3    H244386   1.051   3.198  11.921  0.8757 -1.2018 -2.3398
 6731TIP3   OH244387   2.458   3.264  12.998  0.1966 -0.6986 -0.3295
 6731TIP3    H144388   2.369   3.259  12.963  0.2700  0.1569 -0.6532
 6731TIP3    H244389   2.503   3.326  12.941  0.2356  0.9907  1.4298
 6732TIP3   OH244390   3.403   4.631  11.022  0.4251  0.0601 -0.0253
 6732TIP3    H144391   3.436   4.586  10.944  0.4649  0.7776 -0.4410
 6732TIP3    H244392   3.339   4.694  10.987 -1.6370 -1.4868  0.7794
 6733TIP3   OH244393   0.843   5.306  10.467  0.1203  0.0981  0.1321
 6733TIP3    H144394   0.871   5.224  10.425 -0.0988  0.5133 -0.8504
 6733TIP3    H244395   0.790   5.278  10.542  0.1636 -0.6548 -0.1080
 6734TIP3   OH244396   1.678   3.687  11.111  0.0969  0.0318 -0.1150
 6734TIP3    H144397   1.628   3.746  11.168 -0.7559  0.4110 -1.2151
 6734TIP3    H244398   1.748   3.654  11.167 -2.3189 -1.8372  2.0308
 6735TIP3   OH244399   0.935   4.472  11.450 -0.2606 -0.0117  0.6128
 6735TIP3    H144400   0.890   4.550  11.419  0.6796  0.2014 -0.2505
 6735TIP3    H244401   1.026   4.483  11.421 -0.7906 -3.2017 -3.0866
 6736TIP3   OH244402   1.293   0.436  12.392  0.1795  0.1288  0.6072
 6736TIP3    H144403   1.232   0.364  12.406  0.4677 -0.4290 -0.7794
 6736TIP3    H244404   1.372   0.410  12.440  0.3530 -0.6085 -0.0448
 6737TIP3   OH244405   0.030   3.286  11.751 -0.7970  0.2468 -0.4345
 6737TIP3    H144406   0.005   3.202  11.713  0.1782 -0.5101  0.5701
 6737TIP3    H244407   0.086   3.327  11.685 -1.7482  0.3882 -1.1754
 6738TIP3   OH244408   3.153   3.228  10.396  0.4894 -0.5186 -0.0679
 6738TIP3    H144409   3.217   3.299  10.385  0.2559 -0.0870  1.1938
 6738TIP3    H244410   3.199   3.164  10.450  0.7902 -1.4862 -1.4128
 6739TIP3   OH244411   4.898   2.168  10.777 -0.7395 -0.1245  0.0789
 6739TIP3    H144412   4.867   2.078  10.786 -1.2656 -0.0209 -0.6600
 6739TIP3    H244413   4.963   2.164  10.707 -2.0858  0.3773 -1.2391
 6740TIP3   OH244414   1.082   5.399  11.042 -0.1601  0.0577  0.0729
 6740TIP3    H144415   1.151   5.385  11.106  0.8937  0.6824 -0.8781
 6740TIP3    H244416   1.067   5.494  11.043  0.1926  0.1338 -0.9062
 6741TIP3   OH244417   1.853   5.848  12.498  0.1431  0.4458  0.1510
 6741TIP3    H144418   1.809   5.907  12.560  0.4638  1.8119 -0.8785
 6741TIP3    H244419   1.939   5.887  12.485  0.8302 -0.9458  0.3686
 6742TIP3   OH244420   2.055   0.871  11.098  0.1520 -0.1274  0.4586
 6742TIP3    H144421   2.107   0.818  11.038 -0.7519  0.1432 -0.5963
 6742TIP3    H244422   1.973   0.823  11.108 -0.5145  0.8360 -0.1793
 6743TIP3   OH244423   4.349   6.887  10.926 -0.0892 -0.1954  0.2011
 6743TIP3    H144424   4.356   6.973  10.969  0.3304  0.5185 -1.2062
 6743TIP3    H244425   4.296   6.904  10.848  0.9325 -0.9572 -0.6925
 6744TIP3   OH244426   4.597   4.386  10.832 -0.4118 -0.0386  0.2882
 6744TIP3    H144427   4.529   4.327  10.797 -1.9624  1.2340  1.0175
 6744TIP3    H244428   4.616   4.352  10.919 -0.3449 -0.2109  0.2078
 6745TIP3   OH244429   2.341   2.338  10.775  0.2270  0.1638  0.6891
 6745TIP3    H144430   2.351   2.325  10.681 -2.8055 -0.3326  0.3219
 6745TIP3    H244431   2.305   2.426  10.784 -1.8524 -0.6567  1.0837
 6746TIP3   OH244432   6.223   8.088  12.769 -0.1741 -0.6797  0.2808
 6746TIP3    H144433   6.173   8.030  12.827  1.4739 -1.0821  1.3864
 6746TIP3    H244434   6.182   8.174  12.780 -3.0827 -1.6170 -1.8819
 6747TIP3   OH244435   6.319   3.972  12.353 -0.1582 -0.0543  0.0536
 6747TIP3    H144436   6.343   4.063  12.339 -0.3846  0.0222  0.1505
 6747TIP3    H244437   6.328   3.959  12.448  1.2304 -0.5292 -0.1193
 6748TIP3   OH244438   4.018   0.703  12.438  0.0297  0.4192 -0.2501
 6748TIP3    H144439   4.033   0.730  12.347 -2.9716 -0.9188 -1.2632
 6748TIP3    H244440   3.944   0.756  12.467 -1.7224 -1.9599 -0.0689
 6749TIP3   OH244441   4.606   6.598  12.642 -0.0004 -0.2178  0.5142
 6749TIP3    H144442   4.663   6.544  12.589  1.3026 -1.2948  2.8536
 6749TIP3    H244443   4.519   6.560  12.630 -0.5453  1.7140 -3.4387
 6750TIP3   OH244444   0.874   7.052  11.151  0.2394 -0.0944 -0.0612
 6750TIP3    H144445   0.962   7.082  11.172  0.7525 -2.6775  2.0727
 6750TIP3    H244446   0.878   7.025  11.060  1.2599  1.0093 -0.3594
 6751TIP3   OH244447   6.332   4.166  12.824 -0.7398 -0.3281 -0.1508
 6751TIP3    H144448   6.376   4.135  12.903 -1.1124  1.4136  0.8067
 6751TIP3    H244449   6.239   4.162  12.846 -0.9119 -1.0144 -0.9846
 6752TIP3   OH244450   2.143   0.760  10.789  0.2921 -0.1803  0.2680
 6752TIP3    H144451   2.129   0.851  10.763 -1.9700 -0.2221  1.0500
 6752TIP3    H244452   2.057   0.719  10.779  0.7897 -1.7358  1.7965
 6753TIP3   OH244453   3.373   7.155  11.535 -0.3023 -0.4443 -0.1554
 6753TIP3    H144454   3.390   7.211  11.459  0.7235  0.1126  0.4564
 6753TIP3    H244455   3.337   7.075  11.498 -1.2092  0.3662 -1.1038
 6754TIP3   OH244456   1.983   2.878  11.951  0.0496  0.2667  0.5012
 6754TIP3    H144457   1.920   2.936  11.907 -0.3408 -0.4188  0.1313
 6754TIP3    H244458   1.943   2.859  12.035  0.1811  0.5316  0.6262
 6755TIP3   OH244459   2.339   6.389  12.504  0.7994 -0.2892  0.6670
 6755TIP3    H144460   2.423   6.414  12.464  1.1238  1.3241  2.2181
 6755TIP3    H244461   2.301   6.472  12.533 -0.7065 -1.1293  1.2221
 6756TIP3   OH244462   0.826   2.802  12.456  0.0842  0.0153  0.1303
 6756TIP3    H144463   0.748   2.804  12.511  0.5834  0.4584  0.8418
 6756TIP3    H244464   0.803   2.744  12.383 -1.0205  0.4201  0.1490
 6757TIP3   OH244465   7.287   5.496  10.898  0.3342 -0.1698  0.0587
 6757TIP3    H144466   7.195   5.485  10.921  0.5799 -0.5745  0.9049
 6757TIP3    H244467   7.300   5.591  10.897 -0.1593 -0.1025 -0.3719
 6758TIP3   OH244468   6.761   2.959  11.372 -0.0245  0.0083 -0.2427
 6758TIP3    H144469   6.696   2.945  11.442 -0.1211 -1.3355 -0.5696
 6758TIP3    H244470   6.729   2.907  11.299  0.9605  0.0430 -0.7173
 6759TIP3   OH244471   3.231   2.999  13.195 -0.3909 -0.4506  0.9370
 6759TIP3    H144472   3.175   3.060  13.145 -1.1228  0.3848  2.6777
 6759TIP3    H244473   3.252   2.930  13.133 -2.1829 -0.0367 -0.2183
 6760TIP3   OH244474   4.473   1.185  11.934 -0.2390  0.4490  0.3726
 6760TIP3    H144475   4.420   1.264  11.946 -0.2443  0.3543  0.9777
 6760TIP3    H244476   4.464   1.137  12.016  0.6954  0.3735  0.4449
 6761TIP3   OH244477   3.985   4.894  12.783  0.3351  0.4277 -0.0461
 6761TIP3    H144478   4.040   4.824  12.820 -0.3998  0.2110  0.6808
 6761TIP3    H244479   3.902   4.850  12.761  0.2165  0.8770 -0.5097
 6762TIP3   OH244480   0.514   2.516  11.171 -0.5255  0.1483 -0.0085
 6762TIP3    H144481   0.547   2.606  11.164 -1.0825  0.3447 -0.1998
 6762TIP3    H244482   0.488   2.493  11.082 -1.8115  0.3645  0.2897
 6763TIP3   OH244483   1.293   5.632  11.389  0.3356 -0.3414 -0.2214
 6763TIP3    H144484   1.307   5.718  11.428  2.2306 -0.0142 -1.4557
 6763TIP3    H244485   1.214   5.598  11.431  0.3449  1.3978  1.3095
 6764TIP3   OH244486   6.597   5.712  12.351 -0.6570 -0.2459 -0.4282
 6764TIP3    H144487   6.652   5.710  12.429 -2.6995  1.0137  1.1712
 6764TIP3    H244488   6.640   5.654  12.289  0.6922 -1.8855  1.8903
 6765TIP3   OH244489   7.088   7.256  11.740 -0.3612  0.2904 -0.9902
 6765TIP3    H144490   7.170   7.305  11.737  2.0247 -2.4527  4.4807
 6765TIP3    H244491   7.097   7.190  11.671  1.8238  0.4602 -0.9336
 6766TIP3   OH244492   7.015   5.895  11.673  0.5170  0.1559 -0.2593
 6766TIP3    H144493   7.105   5.924  11.684  0.5692  0.1250 -0.5933
 6766TIP3    H244494   7.011   5.860  11.583  0.8135 -2.1216  0.5527
 6767TIP3   OH244495   5.783   7.022  12.692  0.3764  0.3492 -0.1596
 6767TIP3    H144496   5.877   7.038  12.687 -0.0280  3.2677  0.2596
 6767TIP3    H244497   5.765   7.014  12.785  0.0673  0.8691 -0.1712
 6768TIP3   OH244498   1.411   4.301  11.861  0.1633  0.5553 -0.2174
 6768TIP3    H144499   1.470   4.278  11.934  1.8667 -0.3748 -1.8096
 6768TIP3    H244500   1.330   4.328  11.904  1.3565  0.7878  2.0450
 6769TIP3   OH244501   7.975   3.861  12.362 -0.5377  0.3658 -0.4939
 6769TIP3    H144502   8.055   3.913  12.373 -0.2358 -0.4286  1.4739
 6769TIP3    H244503   7.936   3.859  12.449 -0.0348 -3.4039 -0.1937
 6770TIP3   OH244504   4.474   6.520  11.675 -0.4231  0.2969 -0.1000
 6770TIP3    H144505   4.409   6.575  11.630 -0.1413 -1.5884 -3.1197
 6770TIP3    H244506   4.553   6.529  11.622 -0.1953 -2.4171 -0.3502
 6771TIP3   OH244507   7.828   1.217  11.590  0.2575  0.5129  0.0298
 6771TIP3    H144508   7.844   1.181  11.502  1.1092  0.2112  0.2996
 6771TIP3    H244509   7.852   1.309  11.583  0.4904  0.4497 -0.0083
 6772TIP3   OH244510   3.771   1.222  10.739 -0.3309  0.6851  0.2618
 6772TIP3    H144511   3.721   1.301  10.760 -1.5753 -0.3886  1.6025
 6772TIP3    H244512   3.710   1.150  10.758  1.3377 -0.6495  0.7468
 6773TIP3   OH244513   2.026   7.279  10.881  0.2172 -0.3369 -0.0844
 6773TIP3    H144514   1.946   7.322  10.912  0.2196 -1.3890  1.4512
 6773TIP3    H244515   2.078   7.265  10.960  2.0101  0.4400 -1.0752
 6774TIP3   OH244516   5.884   7.767  10.444  0.8928  0.3269  0.2221
 6774TIP3    H144517   5.856   7.858  10.446 -2.9812 -0.6473 -1.1401
 6774TIP3    H244518   5.857   7.732  10.529 -2.5635 -0.6097 -1.0873
 6775TIP3   OH244519   5.962   5.382  12.261 -0.2618 -0.9043 -0.1440
 6775TIP3    H144520   5.935   5.347  12.176 -0.3850  0.5445 -0.7224
 6775TIP3    H244521   5.921   5.324  12.325 -1.0467 -1.3877 -1.0614
 6776TIP3   OH244522   6.817   5.230  10.527 -0.1184  0.0532  0.2860
 6776TIP3    H144523   6.828   5.136  10.514  0.3050  0.1607 -0.1611
 6776TIP3    H244524   6.834   5.269  10.441  1.5569  0.6755  0.8523
 6777TIP3   OH244525   4.981   8.085  11.002 -0.6991 -0.1408 -0.0387
 6777TIP3    H144526   4.986   8.030  11.080  1.1402 -0.7144 -0.4958
 6777TIP3    H244527   5.072   8.096  10.975 -1.2712  0.1066 -2.0412
 6778TIP3   OH244528   7.255   0.421  12.242 -0.3229  0.5716  0.6386
 6778TIP3    H144529   7.163   0.419  12.215 -0.4220  1.4565  0.8999
 6778TIP3    H244530   7.253   0.400  12.335 -0.1399 -0.6537  0.3818
 6779TIP3   OH244531   6.880   0.566  11.873 -0.2240 -0.1545 -0.1210
 6779TIP3    H144532   6.899   0.492  11.816  0.5032 -0.8854  1.0271
 6779TIP3    H244533   6.941   0.634  11.845 -2.3850  0.9526 -2.7176
 6780TIP3   OH244534   5.401   2.449  11.638  0.2709 -0.1688  0.3239
 6780TIP3    H144535   5.456   2.525  11.621 -0.9234  0.2230 -2.2046
 6780TIP3    H244536   5.346   2.475  11.711  0.6704  0.9758  0.2395
 6781TIP3   OH244537   4.288   3.106  11.726 -0.1007  0.1492  0.8557
 6781TIP3    H144538   4.254   3.192  11.702  0.0304 -0.4216 -1.6570
 6781TIP3    H244539   4.346   3.082  11.653 -0.8501 -2.4614  1.0085
 6782TIP3   OH244540   4.120   5.898  10.578  0.0341  0.4356 -0.3859
 6782TIP3    H144541   4.128   5.808  10.611 -0.9247  0.0524 -1.1485
 6782TIP3    H244542   4.029   5.922  10.595  0.3371  1.3298 -0.0256
 6783TIP3   OH244543   2.045   6.969  11.931 -0.0210 -0.0935  0.3721
 6783TIP3    H144544   2.009   6.940  12.014 -1.4535  1.6832  0.4469
 6783TIP3    H244545   2.084   7.054  11.951 -1.1631  0.7756 -0.8905
 6784TIP3   OH244546   0.732   4.921  10.642 -0.1945  0.2255  0.2081
 6784TIP3    H144547   0.656   4.979  10.654  0.4678  1.2678 -0.4951
 6784TIP3    H244548   0.798   4.956  10.702  0.3113  0.3879 -0.4413
 6785TIP3   OH244549   5.401   7.860  11.270 -0.1704 -0.4146  0.4197
 6785TIP3    H144550   5.473   7.863  11.207 -0.9874 -0.9930 -0.5793
 6785TIP3    H244551   5.378   7.767  11.275 -0.1069 -0.3889  1.6236
 6786TIP3   OH244552   2.515   3.262  12.160 -0.1226  0.5091 -0.0861
 6786TIP3    H144553   2.515   3.357  12.145  1.1833  0.5029 -0.2780
 6786TIP3    H244554   2.467   3.251  12.242  0.0692  1.3915  0.1582
 6787TIP3   OH244555   2.293   7.603  10.572 -0.6088 -0.0856 -0.4299
 6787TIP3    H144556   2.288   7.509  10.557 -1.4844 -0.3714  1.4119
 6787TIP3    H244557   2.387   7.623  10.564 -0.2187 -1.3887  0.5598
 6788TIP3   OH244558   7.143   2.737  12.124  0.3327 -0.4045 -0.0380
 6788TIP3    H144559   7.229   2.730  12.163  0.5984  1.4283 -0.1992
 6788TIP3    H244560   7.082   2.716  12.195  0.8539  1.1557  0.9160
 6789TIP3   OH244561   4.890   5.292  11.449  0.6115  0.0796  0.3764
 6789TIP3    H144562   4.869   5.381  11.419 -0.5825 -0.5753 -0.8450
 6789TIP3    H244563   4.869   5.236  11.375 -1.1523 -1.4947  1.9269
 6790TIP3   OH244564   8.336   2.720  10.383  0.5011  0.5125 -0.0413
 6790TIP3    H144565   8.424   2.753  10.401 -0.1030  1.3214  1.6104
 6790TIP3    H244566   8.281   2.757  10.452 -0.7889 -1.5649  0.1567
 6791TIP3   OH244567   6.897   1.472  10.385 -0.2004 -0.0007  0.5064
 6791TIP3    H144568   6.931   1.480  10.474  1.4085  4.0247 -0.2790
 6791TIP3    H244569   6.945   1.399  10.348  2.5502  1.0933  1.6345
 6792TIP3   OH244570   7.699   2.672  12.494 -0.4734 -0.1178  0.3678
 6792TIP3    H144571   7.741   2.596  12.453 -2.1712 -0.5646 -0.6615
 6792TIP3    H244572   7.665   2.639  12.577  1.7389  0.4316  1.5678
 6793TIP3   OH244573   1.815   4.463  10.898  0.2964  0.3492  0.0864
 6793TIP3    H144574   1.868   4.492  10.824 -0.0608  0.0329 -0.2947
 6793TIP3    H244575   1.863   4.389  10.935 -0.3171 -0.5214 -0.8121
 6794TIP3   OH244576   6.083   3.817  12.703  0.3436 -0.1198  0.1914
 6794TIP3    H144577   6.089   3.735  12.654 -0.1419 -0.6621  0.9871
 6794TIP3    H244578   6.119   3.796  12.789 -1.3717 -0.0289  0.9933
 6795TIP3   OH244579   2.971   6.737  11.153 -0.5304 -0.3299 -0.2610
 6795TIP3    H144580   3.031   6.679  11.201 -0.4146 -1.1613 -1.3633
 6795TIP3    H244581   2.892   6.739  11.206  0.7875  1.7231  1.8534
 6796TIP3   OH244582   6.562   0.748  12.482 -0.0901 -0.1833 -0.2142
 6796TIP3    H144583   6.635   0.686  12.476  0.5140  0.5630 -0.8070
 6796TIP3    H244584   6.564   0.779  12.573  2.7789  2.6596 -1.0480
 6797TIP3   OH244585   5.825   2.385  12.650  0.6852 -0.4601 -0.4111
 6797TIP3    H144586   5.870   2.307  12.682  0.8822 -0.9401 -1.7770
 6797TIP3    H244587   5.895   2.443  12.621  0.5159 -0.0116  0.0594
 6798TIP3   OH244588   7.724   7.809  12.232  0.4038  0.5115  0.2506
 6798TIP3    H144589   7.749   7.899  12.250  0.1127  0.8556 -0.9569
 6798TIP3    H244590   7.807   7.763  12.220  0.5602  0.5500  1.1339
 6799TIP3   OH244591   2.974   3.956  11.158  0.3624  0.1381  0.1254
 6799TIP3    H144592   3.019   3.940  11.241  0.6494 -3.0304 -0.5041
 6799TIP3    H244593   3.044   3.954  11.092 -0.3170 -3.3516 -0.7034
 6800TIP3   OH244594   1.369   3.794  12.280 -0.1078  0.2184 -0.1949
 6800TIP3    H144595   1.419   3.737  12.221  1.0702  1.2164 -0.2062
 6800TIP3    H244596   1.418   3.791  12.363 -1.9421 -1.4602  0.9127
 6801TIP3   OH244597   1.574   7.709  12.154 -0.4078 -0.0234  0.1459
 6801TIP3    H144598   1.502   7.655  12.186 -1.1046 -0.6827 -2.3664
 6801TIP3    H244599   1.571   7.699  12.059  1.2116  2.2438 -0.2020
 6802TIP3   OH244600   2.028   0.288  11.266 -0.7191 -0.3025 -0.0426
 6802TIP3    H144601   1.988   0.215  11.313 -1.7454  0.5080  0.3888
 6802TIP3    H244602   1.957   0.351  11.255  0.2900  0.9137  0.1843
 6803TIP3   OH244603   5.149   6.092  11.814 -0.2512  0.1805 -0.5161
 6803TIP3    H144604   5.104   6.044  11.745  1.3446 -0.4439 -1.1653
 6803TIP3    H244605   5.115   6.055  11.896 -2.5842  1.3162 -0.8855
 6804TIP3   OH244606   6.833   7.280  12.203  0.8605  0.5818  0.0145
 6804TIP3    H144607   6.867   7.303  12.117  0.0166  1.0158 -0.2073
 6804TIP3    H244608   6.744   7.316  12.205  0.7283  0.2369  0.9165
 6805TIP3   OH244609   6.320   8.026  11.196 -0.7875 -0.4757 -0.4543
 6805TIP3    H144610   6.343   8.028  11.103 -0.3233 -2.7574 -0.4417
 6805TIP3    H244611   6.389   7.974  11.237 -0.3142  1.4569  1.4290
 6806TIP3   OH244612   1.620   3.232  11.580 -0.1311 -0.0288 -0.1848
 6806TIP3    H144613   1.540   3.283  11.589 -0.4946 -0.8340  1.4951
 6806TIP3    H244614   1.642   3.207  11.670  1.6184 -0.4169 -0.6936
 6807TIP3   OH244615   3.095   6.413  11.906  0.1932  0.1014 -0.0124
 6807TIP3    H144616   3.144   6.380  11.981 -0.9092 -2.1287 -0.1712
 6807TIP3    H244617   3.132   6.366  11.831 -0.1162  0.7298 -0.5652
 6808TIP3   OH244618   5.059   3.450  11.446 -0.3193  0.5647 -0.4096
 6808TIP3    H144619   5.139   3.399  11.453 -0.9184 -0.3928 -0.4217
 6808TIP3    H244620   5.087   3.541  11.459  0.6780  0.1881  0.1234
 6809TIP3   OH244621   8.214   1.926  12.647 -0.3796 -0.1992 -0.0236
 6809TIP3    H144622   8.285   1.988  12.631  0.3482 -1.1064 -0.3902
 6809TIP3    H244623   8.173   1.956  12.728  0.0087  0.6983 -0.1460
 6810TIP3   OH244624   3.217   5.804  12.483  0.6267  0.4073 -0.1047
 6810TIP3    H144625   3.136   5.758  12.502  0.5328  0.2943 -0.7674
 6810TIP3    H244626   3.204   5.843  12.397  1.0072  0.9960  0.0936
 6811TIP3   OH244627   0.843   4.741  11.427  0.0011  0.1998 -0.2990
 6811TIP3    H144628   0.882   4.778  11.506  0.4031  0.9965 -0.8545
 6811TIP3    H244629   0.819   4.817  11.374 -1.2833 -0.2926 -0.4702
 6812TIP3   OH244630   1.144   4.965  11.460 -0.4607  0.6132  0.6801
 6812TIP3    H144631   1.222   4.975  11.405 -0.7604  0.3373  0.1929
 6812TIP3    H244632   1.074   4.945  11.398 -0.8832  0.6820  1.1323
 6813TIP3   OH244633   6.986   4.734  12.044 -0.5896  0.1664 -0.8980
 6813TIP3    H144634   7.013   4.681  12.119  2.5181  0.4975 -1.6517
 6813TIP3    H244635   6.977   4.671  11.972 -0.9132  0.1733 -0.8640
 6814TIP3   OH244636   2.899   2.051  11.433  0.3357 -0.1981  0.4727
 6814TIP3    H144637   2.926   1.995  11.506  0.3494 -1.4230 -0.4261
 6814TIP3    H244638   2.805   2.064  11.446  0.0281 -1.6470 -0.0449
 6815TIP3   OH244639   0.035   4.502  12.413  0.3559  0.1707 -0.2485
 6815TIP3    H144640  -0.033   4.553  12.368 -1.6676  0.4753  2.8500
 6815TIP3    H244641   0.034   4.417  12.369 -0.6902  0.7798 -1.4704
 6816TIP3   OH244642   7.525   7.682  11.636 -0.2181 -0.2013  0.5547
 6816TIP3    H144643   7.531   7.754  11.700 -3.3241 -1.0059  1.9733
 6816TIP3    H244644   7.545   7.604  11.687  1.0249 -0.5625 -0.4541
 6817TIP3   OH244645   3.696   5.473  11.536  0.4987 -0.2019  0.3411
 6817TIP3    H144646   3.620   5.474  11.593 -0.3429  1.1741 -0.7448
 6817TIP3    H244647   3.668   5.520  11.457  2.3177 -0.0669 -0.2787
 6818TIP3   OH244648   0.208   1.718  11.124 -0.2285  0.3497  0.2913
 6818TIP3    H144649   0.186   1.763  11.206 -1.1266 -1.6816  1.2357
 6818TIP3    H244650   0.142   1.748  11.062 -0.3545  0.8976  0.6783
 6819TIP3   OH244651   4.248   7.692  10.667  0.5613  0.2695  0.0513
 6819TIP3    H144652   4.163   7.649  10.676  0.4113  0.4914 -0.3027
 6819TIP3    H244653   4.305   7.626  10.628  1.2098 -0.7013  2.4319
 6820TIP3   OH244654   1.313   1.894  12.480  0.1141 -0.8523  0.2755
 6820TIP3    H144655   1.348   1.979  12.454 -0.6894 -0.5603  0.0900
 6820TIP3    H244656   1.258   1.913  12.556  0.6974 -1.3612  0.8336
 6821TIP3   OH244657   1.606   6.887  11.722  0.5274 -0.4103  0.3197
 6821TIP3    H144658   1.683   6.943  11.708  1.0470 -1.0695  0.4569
 6821TIP3    H244659   1.635   6.800  11.694 -0.4612 -0.5031 -0.4473
 6822TIP3   OH244660   1.517   2.342  10.266  0.2574  0.1877  0.2192
 6822TIP3    H144661   1.531   2.416  10.206 -0.6041 -1.7990 -2.6851
 6822TIP3    H244662   1.432   2.359  10.306 -0.2864  0.4537 -0.9960
 6823TIP3   OH244663   4.201   5.239  10.778  0.1582  0.3137 -0.2957
 6823TIP3    H144664   4.212   5.148  10.804  0.5339 -0.1508 -1.9291
 6823TIP3    H244665   4.289   5.275  10.778  0.3405 -0.0253 -1.8936
 6824TIP3   OH244666   3.500   7.986  16.422 -0.6496  0.6771 -0.5254
 6824TIP3    H144667   3.561   7.914  16.406  0.0835  1.0536  0.5559
 6824TIP3    H244668   3.475   8.016  16.334  0.4072  0.2653 -0.9743
 6825TIP3   OH244669   4.079   7.776  11.042 -0.4435  0.2184  0.1383
 6825TIP3    H144670   4.175   7.779  11.052 -0.5292  0.7394  0.8798
 6825TIP3    H244671   4.052   7.867  11.042 -1.0086  0.0564  0.6068
 6826TIP3   OH244672   3.445   5.680  12.518 -0.4801  0.2560 -0.4728
 6826TIP3    H144673   3.495   5.735  12.578  1.0401 -1.5564  0.0163
 6826TIP3    H244674   3.371   5.735  12.491  0.2859  2.0728  0.9112
 6827TIP3   OH244675   3.924   3.931  11.504  0.0664 -0.3738 -0.2007
 6827TIP3    H144676   3.969   3.905  11.423  0.9367 -2.0128  0.7669
 6827TIP3    H244677   3.831   3.925  11.482  0.2855 -0.8939 -1.0496
 6828TIP3   OH244678   6.119   2.899  13.006  0.5470 -0.0754  0.1422
 6828TIP3    H144679   6.043   2.841  12.998 -0.5162  1.3750 -1.0945
 6828TIP3    H244680   6.191   2.850  12.968 -0.1134 -0.9530 -0.0111
 6829TIP3   OH244681   4.250   4.941  10.875  0.2077  0.1479  0.4264
 6829TIP3    H144682   4.327   4.899  10.914 -0.9299 -0.9051  1.6611
 6829TIP3    H244683   4.214   4.876  10.815  0.6891  0.9344 -0.7584
 6830TIP3   OH244684   1.229   2.179  12.775  0.1286 -0.3851 -0.2473
 6830TIP3    H144685   1.251   2.211  12.688 -1.0635 -0.0541 -0.4385
 6830TIP3    H244686   1.235   2.256  12.832 -1.3028 -0.1001 -0.4502
 6831TIP3   OH244687   2.765   1.663  10.902 -0.1292  0.6211  0.0487
 6831TIP3    H144688   2.858   1.664  10.924 -0.3269  0.2438  0.9565
 6831TIP3    H244689   2.746   1.571  10.883 -0.4287  0.6107  0.3892
 6832TIP3   OH244690   6.379   3.786  10.554  0.2749 -0.5699  0.1386
 6832TIP3    H144691   6.418   3.861  10.508 -1.7522  0.1916 -0.4240
 6832TIP3    H244692   6.452   3.724  10.563  1.7227  0.9551 -0.4356
 6833TIP3   OH244693   4.757   4.927  10.220 -0.2474 -0.2164  0.4741
 6833TIP3    H144694   4.720   4.864  10.159  1.0349  0.7295 -1.3843
 6833TIP3    H244695   4.807   4.987  10.165 -0.4638  1.7484  2.2779
 6834TIP3   OH244696   1.916   1.772  11.748 -0.0598  0.6651 -0.2716
 6834TIP3    H144697   1.948   1.709  11.684 -0.8456 -0.8861  0.8061
 6834TIP3    H244698   1.844   1.727  11.793  1.1450  1.2372  2.4428
 6835TIP3   OH244699   6.167   1.847  10.977  0.1381 -0.5934  0.0952
 6835TIP3    H144700   6.213   1.931  10.975 -1.2250  0.1639 -1.2606
 6835TIP3    H244701   6.096   1.857  10.914 -1.5513 -1.9184  1.7004
 6836TIP3   OH244702   1.796   0.379  10.707  0.1586  0.0138 -0.2578
 6836TIP3    H144703   1.811   0.291  10.742  0.9732  0.0524 -0.4756
 6836TIP3    H244704   1.766   0.364  10.618 -0.9159 -0.0614  0.1023
 6837TIP3   OH244705   1.207   7.735  11.178 -0.2837 -0.0311 -0.5611
 6837TIP3    H144706   1.293   7.775  11.164 -0.3653  0.4074  0.1786
 6837TIP3    H244707   1.197   7.675  11.104  0.3903  0.3707 -0.9915
 6838TIP3   OH244708   4.047   0.488  12.644 -0.3118  0.2348  0.0237
 6838TIP3    H144709   4.118   0.531  12.692 -0.5191  1.2965 -0.5900
 6838TIP3    H244710   4.025   0.549  12.573 -0.7102 -0.8298 -0.8015
 6839TIP3   OH244711   2.283   1.077  11.581  0.3699 -0.5898  0.1152
 6839TIP3    H144712   2.267   1.168  11.558 -1.8193 -0.9222  0.1597
 6839TIP3    H244713   2.345   1.081  11.654 -0.3932  0.8997  0.7186
 6840TIP3   OH244714   1.425   6.117  11.955  0.3713 -0.2951 -0.5059
 6840TIP3    H144715   1.392   6.138  11.868  0.8239 -1.8719 -1.0951
 6840TIP3    H244716   1.431   6.021  11.956 -1.0711 -0.4445  1.7893
 6841TIP3   OH244717   0.698   0.108  11.347  0.5888 -0.5683 -0.3203
 6841TIP3    H144718   0.618   0.092  11.297 -0.6501  2.4716  0.4267
 6841TIP3    H244719   0.767   0.118  11.282 -0.6395  1.4895 -1.4125
 6842TIP3   OH244720   4.645   6.718  11.539  0.1340 -0.1604  0.0333
 6842TIP3    H144721   4.623   6.806  11.571  2.0499  0.6050 -0.6000
 6842TIP3    H244722   4.692   6.677  11.611 -0.1387 -0.3974  0.0753
 6843TIP3   OH244723   4.249   4.353  11.329 -0.3757  0.2972  0.2911
 6843TIP3    H144724   4.297   4.313  11.256 -0.6930  0.3986  0.0256
 6843TIP3    H244725   4.314   4.406  11.375 -0.0812 -0.0837  0.3201
 6844TIP3   OH244726   6.594   2.312  11.758  0.7323  0.0686 -0.0643
 6844TIP3    H144727   6.675   2.272  11.791  0.3263 -0.7035  0.0226
 6844TIP3    H244728   6.539   2.237  11.734  0.1290  0.5941 -0.3233
 6845TIP3   OH244729   0.978   0.055  10.687  0.0359 -0.9211  0.1471
 6845TIP3    H144730   1.015   0.142  10.700  2.2566 -1.8393  0.4795
 6845TIP3    H244731   0.990   0.010  10.771  0.7596 -2.1559 -0.5787
 6846TIP3   OH244732   2.549   7.256  11.694 -0.0069 -0.4152  0.3543
 6846TIP3    H144733   2.511   7.281  11.779 -0.8582 -0.4780  0.0060
 6846TIP3    H244734   2.484   7.283  11.630  1.2688  0.9505 -0.4119
 6847TIP3   OH244735   2.671   3.377  11.272  1.0622 -0.0533 -0.3048
 6847TIP3    H144736   2.586   3.374  11.317  0.9834  0.9502 -0.3671
 6847TIP3    H244737   2.687   3.470  11.257  1.3614 -0.3223 -1.8397
 6848TIP3   OH244738   5.165   3.218  11.745 -0.2783 -0.2429  0.2966
 6848TIP3    H144739   5.162   3.123  11.733  0.3418 -0.2438  0.1114
 6848TIP3    H244740   5.115   3.234  11.824  1.1736 -0.9154  1.3982
 6849TIP3   OH244741   5.767   6.209  11.809 -0.1810 -0.3708  0.0403
 6849TIP3    H144742   5.742   6.214  11.717  0.9407 -0.8595 -0.3121
 6849TIP3    H244743   5.705   6.149  11.848  0.7696 -2.0739 -0.9542
 6850TIP3   OH244744   3.774   1.989  11.236  0.0455 -0.8253 -0.1364
 6850TIP3    H144745   3.835   1.941  11.180  2.6197  2.0964 -0.0921
 6850TIP3    H244746   3.796   1.962  11.325 -1.5074 -2.6436 -0.2184
 6851TIP3   OH244747   0.046   1.825  10.930  0.7073  0.9071  0.2094
 6851TIP3    H144748   0.014   1.914  10.917 -2.2014 -0.1277 -0.4408
 6851TIP3    H244749  -0.004   1.772  10.868  0.5134 -1.4891  2.2331
 6852TIP3   OH244750   7.799   1.817  12.187 -0.3175  0.4894 -0.7972
 6852TIP3    H144751   7.887   1.821  12.225 -0.8151  1.0827  0.3661
 6852TIP3    H244752   7.744   1.863  12.250 -1.7021 -1.0193 -0.8294
 6853TIP3   OH244753   3.288   3.011  10.523 -0.3008 -0.2767 -0.0118
 6853TIP3    H144754   3.380   3.025  10.544 -0.4216  0.9734 -0.2423
 6853TIP3    H244755   3.286   3.000  10.428 -0.6334  2.1813 -0.3371
 6854TIP3   OH244756   1.103   3.527  11.520  0.2910 -0.1838  0.1868
 6854TIP3    H144757   1.022   3.481  11.542 -0.2028  1.1472  1.3384
 6854TIP3    H244758   1.098   3.608  11.571  2.2227  0.0471  0.0687
 6855TIP3   OH244759   6.123   4.819  12.056 -0.1246  0.5987 -0.3781
 6855TIP3    H144760   6.113   4.891  12.118  1.3766  1.1369 -0.7206
 6855TIP3    H244761   6.200   4.771  12.086 -0.2285  0.0154 -1.0114
 6856TIP3   OH244762   3.921   3.335  11.539 -0.0445  0.3833  0.2378
 6856TIP3    H144763   3.972   3.259  11.565 -1.1883  0.5223  3.2882
 6856TIP3    H244764   3.836   3.299  11.513 -0.3982  0.5230  1.1463
 6857TIP3   OH244765   1.677   8.260  10.768  0.2921 -0.0247  0.4660
 6857TIP3    H144766   1.771   8.254  10.787  0.2009 -0.4121  0.8002
 6857TIP3    H244767   1.657   8.353  10.776  1.0771  0.3791 -1.6421
 6858TIP3   OH244768   1.632   5.161  11.153 -0.3299  0.0139  0.0540
 6858TIP3    H144769   1.608   5.117  11.072  0.1932  0.1459 -0.1791
 6858TIP3    H244770   1.684   5.096  11.201 -1.2207 -0.3132  0.6076
 6859TIP3   OH244771   6.280   6.760  11.664 -0.2080 -0.0175  0.7307
 6859TIP3    H144772   6.307   6.851  11.680 -1.4179  0.2930  1.0956
 6859TIP3    H244773   6.342   6.728  11.599 -0.5750  1.4981 -0.4213
 6860TIP3   OH244774   2.986   2.106  12.741  0.0286 -0.1971 -0.1321
 6860TIP3    H144775   3.031   2.021  12.743 -1.0068 -0.8471 -2.1324
 6860TIP3    H244776   3.051   2.166  12.703  0.4104 -0.3050  0.3353
 6861TIP3   OH244777   6.036   0.168  10.820  0.5991  0.2596  0.2176
 6861TIP3    H144778   6.026   0.171  10.916 -0.4681 -0.3584  0.1428
 6861TIP3    H244779   6.056   0.259  10.796  0.0937  0.5822  0.9573
 6862TIP3   OH244780   6.660   1.008  10.699 -0.5383 -0.0590  0.0074
 6862TIP3    H144781   6.746   1.048  10.686 -0.5628  0.5361  1.4454
 6862TIP3    H244782   6.678   0.926  10.746 -0.6242 -0.9599 -1.4621
 6863TIP3   OH244783   5.319   3.487  11.007  0.1801  0.2352  0.3572
 6863TIP3    H144784   5.309   3.419  10.941  0.6751 -0.0343  0.5582
 6863TIP3    H244785   5.406   3.523  10.991 -0.1935  1.0271  0.0602
 6864TIP3   OH244786   3.663   5.623  11.293  0.4050 -0.2140  0.3475
 6864TIP3    H144787   3.630   5.582  11.213  0.6806  0.5989 -0.1954
 6864TIP3    H244788   3.652   5.717  11.277  0.4215 -0.0510  1.2841
 6865TIP3   OH244789   3.993   0.150  12.659  0.1990  0.0732  0.3574
 6865TIP3    H144790   3.976   0.130  12.568 -1.1032  2.1668  0.0671
 6865TIP3    H244791   4.012   0.244  12.660  0.8193 -0.0261  2.1620
 6866TIP3   OH244792   6.679   7.552  11.051 -0.2491  0.0264  0.0625
 6866TIP3    H144793   6.743   7.536  11.121  0.0233 -0.2202 -0.2443
 6866TIP3    H244794   6.664   7.466  11.012 -0.7700  0.0817  0.1324
 6867TIP3   OH244795   7.617   0.270  10.838  0.0464  0.4090 -0.2522
 6867TIP3    H144796   7.590   0.347  10.889 -0.1214  0.8468 -0.9938
 6867TIP3    H244797   7.690   0.232  10.888 -0.0158  0.9188  0.2311
 6868TIP3   OH244798   5.086   7.247  11.538  0.6190 -0.1771  0.4721
 6868TIP3    H144799   5.025   7.174  11.526 -0.6653  1.1581 -2.0442
 6868TIP3    H244800   5.064   7.283  11.624 -0.3155 -1.3497  0.7525
 6869TIP3   OH244801   7.487   6.712  11.426 -0.5331  0.3766  0.2488
 6869TIP3    H144802   7.415   6.755  11.472 -0.3063 -0.1184  1.0838
 6869TIP3    H244803   7.499   6.764  11.347 -2.7970 -0.4078 -0.6702
 6870TIP3   OH244804   3.199   8.032  11.090  0.1933  0.6635 -0.0958
 6870TIP3    H144805   3.247   8.113  11.072 -2.3801  1.9370 -1.9728
 6870TIP3    H244806   3.167   8.042  11.180 -0.7688  2.1978 -0.5599
 6871TIP3   OH244807   6.188   2.884  11.379  0.2558 -0.0373 -0.4584
 6871TIP3    H144808   6.176   2.978  11.372  0.8289  0.0991  0.3466
 6871TIP3    H244809   6.119   2.855  11.439  2.7591  0.5402  2.9648
 6872TIP3   OH244810   8.287   4.142  12.846  0.3953 -0.1085 -0.7203
 6872TIP3    H144811   8.244   4.122  12.929 -2.6160  0.5041 -1.9953
 6872TIP3    H244812   8.380   4.148  12.868 -0.3247  0.6148  2.7204
 6873TIP3   OH244813   0.682   4.663  12.556 -0.1672 -0.1990 -0.7125
 6873TIP3    H144814   0.631   4.603  12.610  2.6009 -0.5566  1.7640
 6873TIP3    H244815   0.717   4.727  12.618  3.2778 -0.6777 -1.9183
 6874TIP3   OH244816   7.206   7.490  11.372  0.0443  0.3695  0.0409
 6874TIP3    H144817   7.280   7.490  11.312  0.5976 -2.8002  0.5257
 6874TIP3    H244818   7.234   7.545  11.445  1.4165  0.2219 -0.3489
 6875TIP3   OH244819   5.579   2.245  11.445 -0.0804  0.1232 -0.1869
 6875TIP3    H144820   5.627   2.322  11.474 -0.7032  0.8070 -0.9012
 6875TIP3    H244821   5.492   2.279  11.422 -0.3360 -0.7760 -0.5789
 6876TIP3   OH244822   3.287   4.625  11.624  0.6725  0.1541  1.1202
 6876TIP3    H144823   3.250   4.683  11.691 -1.5412  1.1273 -0.7755
 6876TIP3    H244824   3.347   4.681  11.574 -0.4347  0.5213  0.1330
 6877TIP3   OH244825   5.649   2.845  10.926  0.2963  0.1943  0.1364
 6877TIP3    H144826   5.557   2.823  10.910  0.1319  2.0547 -1.9182
 6877TIP3    H244827   5.654   2.859  11.020 -1.3053 -0.8243  0.4120
 6878TIP3   OH244828   3.267   2.188  10.401  0.2335  0.6166 -0.3874
 6878TIP3    H144829   3.318   2.258  10.441 -1.3181 -0.3147  3.7259
 6878TIP3    H244830   3.197   2.233  10.354  0.4842  1.8410  0.3646
 6879TIP3   OH244831   2.931   8.356  12.621 -0.2822  0.2721  0.1128
 6879TIP3    H144832   2.959   8.282  12.676  0.5613  2.2958  2.6047
 6879TIP3    H244833   2.858   8.322  12.570  0.1009 -2.2849  1.1250
 6880TIP3   OH244834   3.040   8.427  12.372  0.1120  0.1341 -0.0855
 6880TIP3    H144835   3.024   8.396  12.461  0.8821 -0.1101 -0.0309
 6880TIP3    H244836   2.974   8.496  12.359  1.2293  1.5462  1.3763
 6881TIP3   OH244837   1.842   1.135  11.271  0.2906  0.7309  0.3870
 6881TIP3    H144838   1.815   1.047  11.247 -0.2792  0.7115  1.0648
 6881TIP3    H244839   1.919   1.152  11.218 -0.3623  0.3304 -0.7315
 6882TIP3   OH244840   0.434   3.760  11.616  0.1004  0.1394  0.0078
 6882TIP3    H144841   0.403   3.850  11.606 -1.5592 -0.4817 -0.8381
 6882TIP3    H244842   0.364   3.706  11.578  1.5706 -1.4517 -0.5738
 6883TIP3   OH244843   0.578   2.050  13.201 -0.2457  0.5969  0.0918
 6883TIP3    H144844   0.617   2.107  13.135 -0.1816 -0.3206 -0.6807
 6883TIP3    H244845   0.636   2.059  13.277 -0.2353  1.5447 -0.0225
 6884TIP3   OH244846   1.576   5.820  12.435  0.4424  0.3036 -0.1243
 6884TIP3    H144847   1.555   5.884  12.503  0.5724 -0.9903  1.1834
 6884TIP3    H244848   1.671   5.808  12.442  0.9093  1.9937 -2.2739
 6885TIP3   OH244849   4.488   4.377  12.238  0.1344 -0.4402 -0.0934
 6885TIP3    H144850   4.434   4.402  12.313  0.7944  0.9465 -0.0456
 6885TIP3    H244851   4.569   4.345  12.276 -0.4611 -2.1390 -0.1770
 6886TIP3   OH244852   4.531   6.547  12.248  0.0557 -0.3814  0.3825
 6886TIP3    H144853   4.506   6.465  12.206  1.3284 -0.6612  0.1274
 6886TIP3    H244854   4.579   6.520  12.326  1.0449  0.0935 -0.0427
 6887TIP3   OH244855   4.480   1.453  10.693  0.9224  0.0234 -0.1883
 6887TIP3    H144856   4.419   1.526  10.702 -0.1829 -0.7000 -1.5253
 6887TIP3    H244857   4.566   1.495  10.683  0.3978  1.1162 -0.2101
 6888TIP3   OH244858   5.028   1.662  11.436 -0.2804  0.1708 -0.5238
 6888TIP3    H144859   5.035   1.721  11.510 -0.3162  0.2195 -0.5592
 6888TIP3    H244860   5.079   1.585  11.461  1.1892  0.8972 -1.1553
 6889TIP3   OH244861   1.224   3.476  11.878  0.0200  0.0750 -0.4309
 6889TIP3    H144862   1.131   3.497  11.876 -0.8494 -3.2068 -1.2124
 6889TIP3    H244863   1.241   3.445  11.967  0.7400  1.7814  0.0733
 6890TIP3   OH244864   0.018   2.823  11.187 -0.8157  0.1359 -0.3350
 6890TIP3    H144865   0.105   2.861  11.192  0.3083 -2.3330  0.3022
 6890TIP3    H244866  -0.003   2.798  11.277 -0.5635 -2.5641 -0.9433
 6891TIP3   OH244867   3.787   1.771  13.041  0.2410  0.7115  0.2172
 6891TIP3    H144868   3.876   1.748  13.064  0.6230  0.5686 -1.2971
 6891TIP3    H244869   3.755   1.697  12.989  0.5670  2.2588 -2.4188
 6892TIP3   OH244870   0.315   5.264  11.956  0.5111  0.1248 -0.6289
 6892TIP3    H144871   0.337   5.300  11.869  1.9276  1.3327  0.1690
 6892TIP3    H244872   0.231   5.220  11.944  1.0122 -0.3590 -2.7781
 6893TIP3   OH244873   7.698   6.201  11.854  0.3706 -0.1176 -0.4672
 6893TIP3    H144874   7.758   6.216  11.926  1.6921  0.2487 -1.6033
 6893TIP3    H244875   7.705   6.280  11.799  1.2903 -1.3868 -2.2799
 6894TIP3   OH244876   3.288   0.343  11.351  0.3893  0.3324  0.2695
 6894TIP3    H144877   3.221   0.286  11.314  1.9512  0.0132 -2.2837
 6894TIP3    H244878   3.357   0.283  11.379  1.3997  0.8553 -1.0462
 6895TIP3   OH244879   3.944   2.935  11.371 -0.0906  0.3475 -0.3565
 6895TIP3    H144880   4.020   2.992  11.375  0.9367 -0.9844 -0.0329
 6895TIP3    H244881   3.930   2.921  11.277 -0.1382  0.8528 -0.4245
 6896TIP3   OH244882   3.156   4.049  11.370 -0.0100 -0.1012 -0.1563
 6896TIP3    H144883   3.116   4.136  11.362  0.2471 -0.0094 -0.5289
 6896TIP3    H244884   3.241   4.059  11.328 -0.5789 -0.9230 -1.5911
 6897TIP3   OH244885   8.375   1.464  11.122 -0.2129  0.7464  0.0691
 6897TIP3    H144886   8.322   1.542  11.102  2.2802  2.3485 -0.7339
 6897TIP3    H244887   8.431   1.453  11.045 -0.9062 -2.2791 -0.1044
 6898TIP3   OH244888   1.205   3.099  11.950 -0.8641  0.5846  0.4923
 6898TIP3    H144889   1.230   3.097  11.858 -0.8156 -0.8644  0.5268
 6898TIP3    H244890   1.241   3.019  11.987 -0.6297  1.2970  1.8490
 6899TIP3   OH244891   3.435   2.379  10.521 -0.0688 -0.0675  0.1826
 6899TIP3    H144892   3.486   2.456  10.496 -0.2117 -0.0838 -0.1815
 6899TIP3    H244893   3.427   2.384  10.616 -1.3031  1.1647  0.0599
 6900TIP3   OH244894   4.645   6.785  10.425 -0.2810 -0.1443  0.2357
 6900TIP3    H144895   4.701   6.707  10.425  0.6546  0.4303 -2.2915
 6900TIP3    H244896   4.560   6.753  10.396  0.2090 -0.2144 -1.2019
 6901TIP3   OH244897   1.165   6.614  11.836  0.0976 -0.2103 -0.7450
 6901TIP3    H144898   1.105   6.672  11.883 -0.5542 -0.8554 -0.7562
 6901TIP3    H244899   1.198   6.667  11.764 -0.4442  0.1651 -0.7283
 6902TIP3   OH244900   8.224   6.483  11.369 -0.3003  0.4748  0.2650
 6902TIP3    H144901   8.241   6.390  11.377 -0.4801  0.4084 -0.0948
 6902TIP3    H244902   8.137   6.489  11.330 -0.0280  0.7854 -0.3068
 6903TIP3   OH244903   7.483   3.322  13.106 -0.1227  0.0567  0.7876
 6903TIP3    H144904   7.406   3.269  13.127  1.2372 -1.6582  1.8195
 6903TIP3    H244905   7.511   3.290  13.020 -0.0937  0.0929  0.7836
 6904TIP3   OH244906   5.319   8.121  11.659 -0.0410  0.0429 -0.2892
 6904TIP3    H144907   5.305   8.131  11.565 -1.2359 -0.5694 -0.1998
 6904TIP3    H244908   5.393   8.062  11.667  1.7426  2.0777 -0.8170
 6905TIP3   OH244909   3.336   6.073  11.452 -0.7945 -0.2714 -0.4403
 6905TIP3    H144910   3.413   6.096  11.401  1.4354 -2.0349  1.8738
 6905TIP3    H244911   3.289   6.009  11.399  1.2478 -1.7701 -0.5321
 6906TIP3   OH244912   6.303   0.023  12.481  0.5430 -0.2114 -0.0261
 6906TIP3    H144913   6.348   0.014  12.396  1.5506  0.8144  0.3693
 6906TIP3    H244914   6.226  -0.033  12.473 -0.3981  1.2450 -2.3067
 6907TIP3   OH244915   4.273   6.048  11.795  0.1751  0.3512  0.1347
 6907TIP3    H144916   4.216   6.038  11.872  0.8023 -2.2369  0.3487
 6907TIP3    H244917   4.283   6.143  11.785 -3.3072  0.9050  0.6894
 6908TIP3   OH244918   3.427   1.290  12.171 -0.0170 -0.0937 -0.0850
 6908TIP3    H144919   3.505   1.301  12.117 -1.0075  0.9855 -1.3472
 6908TIP3    H244920   3.441   1.350  12.245 -0.8409  2.3530 -1.7615
 6909TIP3   OH244921   2.327   2.692  10.377 -0.0265 -0.2602  0.0893
 6909TIP3    H144922   2.276   2.771  10.357 -3.0968 -1.8452  0.9459
 6909TIP3    H244923   2.315   2.637  10.299  0.4141 -0.6521  0.2995
 6910TIP3   OH244924   0.267   3.997  11.385 -0.3932 -0.5535  0.6984
 6910TIP3    H144925   0.249   3.959  11.300  1.1449 -0.9379  0.5058
 6910TIP3    H244926   0.347   4.049  11.372 -0.7840  0.3323  1.6374
 6911TIP3   OH244927   4.788   4.823  10.966 -0.0124  0.6514  0.3416
 6911TIP3    H144928   4.698   4.795  10.982  0.5779 -0.5548  1.8369
 6911TIP3    H244929   4.804   4.803  10.874 -0.6560 -1.0511  0.5586
 6912TIP3   OH244930   8.093   1.313  12.862  0.1479  0.6062 -0.4311
 6912TIP3    H144931   8.109   1.300  12.768  1.5063  2.3504 -0.4936
 6912TIP3    H244932   8.079   1.407  12.871  2.1315  0.7974  1.3768
 6913TIP3   OH244933   2.703   2.692  12.897  0.1957  0.1345  0.3717
 6913TIP3    H144934   2.610   2.704  12.916  0.1122 -0.2292  0.2134
 6913TIP3    H244935   2.748   2.738  12.967 -0.0991  1.2760 -0.1722
 6914TIP3   OH244936   2.345   6.078  12.183  0.1513 -0.1761 -0.2964
 6914TIP3    H144937   2.316   6.003  12.131  0.6392 -1.7711  1.5921
 6914TIP3    H244938   2.434   6.096  12.151 -0.1061 -0.1604 -1.0129
 6915TIP3   OH244939   1.759   4.684  10.623 -0.2035 -0.1040 -0.5450
 6915TIP3    H144940   1.714   4.672  10.539  0.1392  0.5860 -0.8292
 6915TIP3    H244941   1.790   4.596  10.646 -0.8984 -0.4224 -0.7932
 6916TIP3   OH244942   2.045   2.908  11.460 -0.0427  0.6808 -0.0774
 6916TIP3    H144943   2.125   2.905  11.513  1.8930 -0.7405 -2.8106
 6916TIP3    H244944   2.039   2.999  11.432 -0.1049  1.0611  1.1033
 6917TIP3   OH244945   6.758   5.143  10.261  0.0750 -0.4388 -0.1885
 6917TIP3    H144946   6.676   5.121  10.217 -1.0932 -3.4445  2.9918
 6917TIP3    H244947   6.818   5.072  10.237  0.3360 -0.5380  0.6897
 6918TIP3   OH244948   1.803   0.672  12.584  0.0698 -0.4409  0.1026
 6918TIP3    H144949   1.717   0.709  12.607  0.7403  0.2373  1.6417
 6918TIP3    H244950   1.835   0.730  12.514  0.8019  1.5901  2.0085
 6919TIP3   OH244951   0.155   8.024  11.473  0.4147  0.3084  0.2899
 6919TIP3    H144952   0.129   7.933  11.458  1.3987 -0.3997  2.3734
 6919TIP3    H244953   0.195   8.052  11.391 -1.6161 -0.4709 -1.0238
 6920TIP3   OH244954   2.328   8.013  11.165  0.1629  0.2161 -0.4227
 6920TIP3    H144955   2.241   8.029  11.129  0.2866 -1.8084 -1.7494
 6920TIP3    H244956   2.386   8.073  11.117 -0.4353  1.4097  0.3124
 6921TIP3   OH244957   4.604   0.360  12.122 -0.5677 -0.1053 -0.1270
 6921TIP3    H144958   4.524   0.350  12.173 -1.4897  1.2861 -1.2434
 6921TIP3    H244959   4.575   0.394  12.038  1.2367  0.9690 -0.3620
 6922TIP3   OH244960   0.992   4.503  12.473 -0.7671 -0.3673 -0.2745
 6922TIP3    H144961   0.940   4.580  12.496 -0.2982  0.1572 -0.9059
 6922TIP3    H244962   1.078   4.539  12.449 -0.6424 -1.0506 -0.8995
 6923TIP3   OH244963   8.027   2.242  11.565 -0.2171  0.1675  0.6135
 6923TIP3    H144964   7.974   2.312  11.601  0.2219  0.8046  0.0535
 6923TIP3    H244965   8.012   2.167  11.623  0.8112  1.2770  2.3748
 6924TIP3   OH244966   6.885   2.742  11.514  0.2108 -0.6006  0.6860
 6924TIP3    H144967   6.856   2.826  11.478 -0.0901 -1.8912 -2.3932
 6924TIP3    H244968   6.862   2.746  11.607 -0.3175  2.4650  0.5084
 6925TIP3   OH244969   1.770   6.598  11.077  0.2871  0.2270  0.1077
 6925TIP3    H144970   1.685   6.575  11.040  0.1456 -1.0768  1.1398
 6925TIP3    H244971   1.750   6.660  11.147  0.5541  2.6878 -1.8815
 6926TIP3   OH244972   4.557   0.262  11.716 -0.1091 -0.3753  0.1533
 6926TIP3    H144973   4.586   0.352  11.701  0.5194 -0.3525  1.3962
 6926TIP3    H244974   4.464   0.271  11.740 -0.8780 -0.3405 -2.5056
 6927TIP3   OH244975   3.739   7.888  11.442 -0.1177  0.7654  0.2034
 6927TIP3    H144976   3.786   7.823  11.495 -0.0598  0.0139 -0.7476
 6927TIP3    H244977   3.694   7.943  11.506  0.6372  0.4038  1.0647
 6928TIP3   OH244978   0.713   8.350  12.415 -0.2616  0.5942 -0.2915
 6928TIP3    H144979   0.781   8.412  12.440 -0.8851  1.1651  0.0091
 6928TIP3    H244980   0.739   8.268  12.457  0.3199  0.7694 -0.3058
 6929TIP3   OH244981   2.474   6.912  11.917  0.2532 -0.5735 -0.7830
 6929TIP3    H144982   2.457   6.820  11.937 -0.5187 -0.7409 -2.0722
 6929TIP3    H244983   2.438   6.960  11.992  0.8524 -1.3172 -0.0026
 6930TIP3   OH244984   6.968   3.094  12.188  0.0751 -0.1711 -0.0338
 6930TIP3    H144985   6.891   3.127  12.143 -0.3809 -1.0656  0.0671
 6930TIP3    H244986   6.967   3.000  12.171  0.1053 -0.4692  1.5019
 6931TIP3   OH244987   1.108   8.268  11.236 -0.3954 -0.2706  0.7248
 6931TIP3    H144988   1.152   8.205  11.180  0.2906 -0.7669  1.7937
 6931TIP3    H244989   1.014   8.252  11.223 -0.2418 -0.4632 -0.1557
 6932TIP3   OH244990   2.331   1.255  12.033 -0.0799  0.6954  0.3808
 6932TIP3    H144991   2.290   1.203  12.102  1.0070 -0.4788  0.1650
 6932TIP3    H244992   2.392   1.312  12.080 -1.6039  2.1784  0.6645
 6933TIP3   OH244993   3.245   7.610  11.177  0.2558 -0.1929  0.1945
 6933TIP3    H144994   3.303   7.653  11.239  2.0378 -1.4082 -0.5409
 6933TIP3    H244995   3.235   7.521  11.210  1.9808 -1.1387 -1.6616
 6934TIP3   OH244996   0.373   7.171  11.832 -0.0340 -0.6023 -0.0088
 6934TIP3    H144997   0.447   7.197  11.776 -0.3593 -0.4279 -0.3622
 6934TIP3    H244998   0.367   7.076  11.821 -1.3354 -0.3655 -1.8555
 6935TIP3   OH244999   1.407   6.583  10.498 -0.0728 -0.0120  0.2104
 6935TIP3    H145000   1.439   6.635  10.572  0.8157 -0.3327  0.0646
 6935TIP3    H245001   1.314   6.605  10.491 -0.0545  0.3762  1.1229
 6936TIP3   OH245002   1.838   7.243  11.357 -0.2764 -0.5329  0.4026
 6936TIP3    H145003   1.812   7.332  11.331  0.5619 -0.4808 -0.2931
 6936TIP3    H245004   1.781   7.186  11.306 -0.3382 -0.3949  0.3160
 6937TIP3   OH245005   3.699   6.923  11.837 -0.0829  0.4438  0.2535
 6937TIP3    H145006   3.750   6.844  11.855 -1.0085 -0.0336  0.9005
 6937TIP3    H245007   3.731   6.988  11.899 -0.2330  0.1596  0.6292
 6938TIP3   OH245008   6.042   1.304  11.027 -0.0164  0.8484 -0.1030
 6938TIP3    H145009   5.982   1.336  10.959 -1.5367  1.3704  1.4076
 6938TIP3    H245010   6.021   1.357  11.104 -0.3078 -1.5539  1.5711
 6939TIP3   OH245011   6.892   6.334  12.356  0.3254 -0.0771  0.3491
 6939TIP3    H145012   6.915   6.423  12.383  0.3250  0.2498 -0.6744
 6939TIP3    H245013   6.821   6.345  12.293  0.4633 -0.7880  0.0539
 6940TIP3   OH245014   3.238   1.185  11.383  0.1075  0.4016 -0.0359
 6940TIP3    H145015   3.238   1.276  11.412  0.8405 -0.1783  1.9395
 6940TIP3    H245016   3.326   1.170  11.348 -0.1675  0.5643 -0.8213
 6941TIP3   OH245017   5.661   6.664  12.428  0.1701  0.0538 -0.1937
 6941TIP3    H145018   5.739   6.618  12.459  0.4453 -0.1513 -1.1768
 6941TIP3    H245019   5.642   6.726  12.498 -0.1085 -1.4029  1.0849
 6942TIP3   OH245020   2.602   1.978  12.286  0.2390  0.4930  0.0497
 6942TIP3    H145021   2.518   1.995  12.244  0.4795 -2.4022 -1.9133
 6942TIP3    H245022   2.626   1.890  12.258  3.3990  0.7306  1.4836
 6943TIP3   OH245023   7.214   4.350  10.764  0.0012 -0.5270  0.0847
 6943TIP3    H145024   7.255   4.411  10.702  1.0531 -1.4923 -0.2110
 6943TIP3    H245025   7.285   4.322  10.821 -0.7217 -0.5415  0.9999
 6944TIP3   OH245026   8.163   2.076  10.395 -0.4856 -0.6915  0.5696
 6944TIP3    H145027   8.177   1.990  10.354 -1.8529 -0.5304 -0.2903
 6944TIP3    H245028   8.117   2.056  10.477 -0.3602 -0.8073  0.6127
 6945TIP3   OH245029   7.340   2.606  12.551 -0.1152  0.4548  0.3460
 6945TIP3    H145030   7.309   2.598  12.641 -0.7014  0.0247  0.1128
 6945TIP3    H245031   7.435   2.618  12.559 -0.2979  1.6032  1.0603
 6946TIP3   OH245032   2.234   5.043  11.688  0.4521 -0.9170 -0.5924
 6946TIP3    H145033   2.309   5.087  11.649  1.3865 -2.1050 -0.1744
 6946TIP3    H245034   2.162   5.106  11.678  1.5367  0.3446 -0.7731
 6947TIP3   OH245035   1.196   5.048  11.720 -0.7902 -0.1357  0.7809
 6947TIP3    H145036   1.174   5.006  11.637  0.5868 -0.8908  0.7539
 6947TIP3    H245037   1.114   5.087  11.750 -1.2053  0.6479 -1.1840
 6948TIP3   OH245038   7.462   3.838  10.956 -0.3039 -0.0721  0.0465
 6948TIP3    H145039   7.397   3.852  11.025 -0.9295  0.3696 -0.6260
 6948TIP3    H245040   7.411   3.835  10.875  0.4177 -0.6594 -0.3948
 6949TIP3   OH245041   6.443   1.597  11.192 -0.0106  0.1881  0.2868
 6949TIP3    H145042   6.448   1.687  11.226 -0.0797 -0.0385  0.8993
 6949TIP3    H245043   6.432   1.542  11.269  0.1013 -0.3601 -0.0792
 6950TIP3   OH245044   5.641   8.117  11.443 -0.0427 -0.6013  0.4624
 6950TIP3    H145045   5.597   8.062  11.509  1.8209 -0.2331  2.1125
 6950TIP3    H245046   5.731   8.123  11.474  0.8038 -0.0106 -1.9348
 6951TIP3   OH245047   1.632   2.084  11.748 -0.0746 -0.4536  0.0756
 6951TIP3    H145048   1.560   2.022  11.740 -1.4418  0.9526  0.8516
 6951TIP3    H245049   1.590   2.166  11.774  1.6184  0.8660 -1.0939
 6952TIP3   OH245050   3.989   1.946  10.805 -0.6084  0.2429 -0.2949
 6952TIP3    H145051   4.015   2.027  10.850  0.7366  1.0800 -2.4344
 6952TIP3    H245052   3.943   1.975  10.727  2.0680 -0.8778 -2.4282
 6953TIP3   OH245053   1.859   7.791  11.487  0.3945  0.0603 -0.4635
 6953TIP3    H145054   1.888   7.702  11.506  3.0600  0.5332 -1.8884
 6953TIP3    H245055   1.812   7.784  11.404  0.1489 -0.0839 -0.3132
 6954TIP3   OH245056   2.735   7.305  10.980  0.1017  0.2657 -0.4141
 6954TIP3    H145057   2.646   7.311  11.014 -0.8228 -0.0605 -2.6227
 6954TIP3    H245058   2.790   7.344  11.049 -1.5360 -0.7964  1.6145
 6955TIP3   OH245059   6.617   2.718  10.499 -0.8486 -0.2248 -0.2129
 6955TIP3    H145060   6.593   2.810  10.501 -1.5430 -0.4042  1.6223
 6955TIP3    H245061   6.534   2.671  10.511 -0.5543 -1.1069 -1.4556
 6956TIP3   OH245062   2.267   4.836  12.696 -0.2840 -0.5183  0.3952
 6956TIP3    H145063   2.244   4.751  12.734 -0.1526 -0.0137  1.6366
 6956TIP3    H245064   2.354   4.856  12.731 -1.0713  0.9693  1.6573
 6957TIP3   OH245065   5.961   6.861  10.852 -0.0307 -0.4439 -0.1002
 6957TIP3    H145066   5.950   6.950  10.887 -2.1601 -1.1162  1.1077
 6957TIP3    H245067   6.052   6.859  10.822 -0.1832  2.4536 -1.1295
 6958TIP3   OH245068   1.039   2.277  12.310  0.3547  0.0620 -0.1016
 6958TIP3    H145069   1.091   2.205  12.275 -0.4202 -0.1001 -0.9780
 6958TIP3    H245070   1.092   2.314  12.380  1.2160 -0.6983 -0.3374
 6959TIP3   OH245071   4.258   1.228  10.339 -0.6448 -0.0925 -0.6804
 6959TIP3    H145072   4.279   1.306  10.287 -0.1329  0.4119  0.2539
 6959TIP3    H245073   4.168   1.243  10.368 -0.2071  0.6490  0.3355
 6960TIP3   OH245074   2.127   3.638  10.434 -0.2361  0.5312  0.4716
 6960TIP3    H145075   2.070   3.661  10.360 -1.0022  1.4226  1.3088
 6960TIP3    H245076   2.161   3.552  10.412 -0.9334  0.5227 -0.6461
 6961TIP3   OH245077   2.260   2.302  10.510 -0.2878  0.2704  0.3020
 6961TIP3    H145078   2.341   2.334  10.470 -0.3493 -0.8220 -0.7424
 6961TIP3    H245079   2.218   2.381  10.546  0.6671  1.0095 -0.1663
 6962TIP3   OH245080   4.846   0.993  11.069 -0.4338  0.2200  0.2108
 6962TIP3    H145081   4.816   0.934  11.001  0.3681 -1.6639  1.4088
 6962TIP3    H245082   4.929   1.028  11.037 -0.3776 -0.1526 -0.0434
 6963TIP3   OH245083   1.234   4.484  10.218 -0.2591  0.3842 -0.6347
 6963TIP3    H145084   1.216   4.508  10.127 -1.6277 -0.1540 -0.5245
 6963TIP3    H245085   1.183   4.545  10.270  1.4521  1.4756 -0.1466
 6964TIP3   OH245086   0.024   0.651  11.059  0.3200 -0.5799 -0.7671
 6964TIP3    H145087   0.054   0.628  11.147  0.0237  1.4118 -0.0989
 6964TIP3    H245088  -0.047   0.590  11.041  2.1617 -2.8385 -0.8079
 6965TIP3   OH245089   2.538   5.132  10.754  0.0188  0.2684  0.2837
 6965TIP3    H145090   2.562   5.157  10.665  0.5660  0.2451  0.4169
 6965TIP3    H245091   2.453   5.172  10.769 -0.5481 -0.5667 -0.6122
 6966TIP3   OH245092   4.288   0.528  11.117 -0.2509  0.2658  0.4389
 6966TIP3    H145093   4.330   0.610  11.091  0.9407 -0.5003 -0.1222
 6966TIP3    H245094   4.360   0.470  11.141 -0.9339 -1.2359 -0.9561
 6967TIP3   OH245095   1.732   3.781  11.828 -0.4211 -0.4954 -0.1510
 6967TIP3    H145096   1.766   3.778  11.739 -0.8844 -0.1621 -0.3435
 6967TIP3    H245097   1.727   3.874  11.849  1.8089 -0.5902  1.0617
 6968TIP3   OH245098   3.994   4.439  12.064 -0.1065 -0.1231  0.6951
 6968TIP3    H145099   4.068   4.430  12.004  1.4153  2.2035  2.0589
 6968TIP3    H245100   3.938   4.505  12.022 -2.0869 -2.6120 -0.8427
 6969TIP3   OH245101   0.054   1.539  11.326 -0.2733 -0.3569 -0.3793
 6969TIP3    H145102   0.006   1.513  11.247  1.0126 -1.7883 -0.7332
 6969TIP3    H245103   0.018   1.625  11.349 -1.7153 -0.5857 -1.6548
 6970TIP3   OH245104   7.443   0.223  12.028  0.1610 -0.1302 -0.5837
 6970TIP3    H145105   7.368   0.278  12.049 -0.0534 -0.2499 -1.0224
 6970TIP3    H245106   7.518   0.271  12.063 -0.4065 -1.8642  3.5523
 6971TIP3   OH245107   5.441   5.594  12.321  0.0253  0.0920 -0.5807
 6971TIP3    H145108   5.440   5.505  12.355  0.3184  0.0071 -0.7902
 6971TIP3    H245109   5.520   5.598  12.266 -1.2593 -0.2574 -2.5434
 6972TIP3   OH245110   7.495   3.092  11.999 -0.1876 -0.2438 -0.0694
 6972TIP3    H145111   7.490   3.018  12.060 -0.9632  0.2577  0.4891
 6972TIP3    H245112   7.435   3.068  11.928 -1.1938  0.2588  0.5848
 6973TIP3   OH245113   1.138   2.533  12.727 -0.0392 -0.2965 -0.5601
 6973TIP3    H145114   1.134   2.625  12.702 -3.0416 -0.0065  0.6105
 6973TIP3    H245115   1.113   2.532  12.820  0.4786 -2.2637 -0.3932
 6974TIP3   OH245116   0.437   0.308  10.920 -0.0568 -0.4488  0.4241
 6974TIP3    H145117   0.413   0.399  10.906  0.3618 -0.1958  1.2783
 6974TIP3    H245118   0.354   0.262  10.934 -0.1643  0.1963  2.1563
 6975TIP3   OH245119   7.276   7.076  11.429  0.3823 -0.0897  0.0266
 6975TIP3    H145120   7.185   7.104  11.434  0.4075  0.3386 -1.3015
 6975TIP3    H245121   7.279   6.993  11.475 -1.0282 -0.8789 -1.2087
 6976TIP3   OH245122   8.173   8.415  10.717 -0.0258 -0.3107 -0.0537
 6976TIP3    H145123   8.151   8.355  10.646 -0.4772 -1.9063  1.3734
 6976TIP3    H245124   8.143   8.371  10.796  1.1042  1.0904  1.2217
 6977TIP3   OH245125   5.351   7.537  11.265  0.1098 -0.2342  0.0598
 6977TIP3    H145126   5.427   7.504  11.217  1.3599  0.6462  1.3472
 6977TIP3    H245127   5.293   7.462  11.273  1.7405 -1.4940  0.7375
 6978TIP3   OH245128   4.364   6.265  12.059 -0.4019  0.0449 -0.0008
 6978TIP3    H145129   4.382   6.179  12.096 -2.4461 -0.2932  0.2855
 6978TIP3    H245130   4.451   6.305  12.049  0.4361 -0.9634  2.4340
 6979TIP3   OH245131   5.913   7.371  12.399  0.5749  0.0292 -0.4281
 6979TIP3    H145132   5.970   7.401  12.470  0.0119 -1.2463  0.5955
 6979TIP3    H245133   5.898   7.279  12.418 -0.2270 -0.1366 -1.7877
 6980TIP3   OH245134   5.316   8.145  12.294  0.0981  0.0364 -0.2708
 6980TIP3    H145135   5.295   8.130  12.386 -0.8189 -1.8058 -0.7426
 6980TIP3    H245136   5.246   8.202  12.262  0.5732  0.9142  0.2173
 6981TIP3   OH245137   3.838   1.619  12.609 -0.7153 -0.7051 -0.2328
 6981TIP3    H145138   3.745   1.638  12.621 -0.4717  1.3176 -1.1798
 6981TIP3    H245139   3.861   1.565  12.685 -2.2691  0.1915  0.9541
 6982TIP3   OH245140   6.151   5.522  10.365  0.1283 -0.9858 -0.1243
 6982TIP3    H145141   6.062   5.554  10.380 -0.0118 -0.7388 -1.3634
 6982TIP3    H245142   6.184   5.576  10.292  0.6577 -2.2449 -0.8396
 6983TIP3   OH245143   2.199   1.270  11.803  0.7538  0.1708  0.0727
 6983TIP3    H145144   2.104   1.255  11.807  0.9524 -2.3385 -2.2312
 6983TIP3    H245145   2.230   1.249  11.891 -0.6452 -0.4708  0.4434
 6984TIP3   OH245146   1.507   3.263  11.287 -0.1266  0.2131 -0.2353
 6984TIP3    H145147   1.554   3.237  11.367  1.0082  1.6378 -0.3992
 6984TIP3    H245148   1.574   3.302  11.231 -1.3815  1.7516 -0.7511
 6985TIP3   OH245149   7.662   4.840  11.256  0.2259  0.1243 -0.0722
 6985TIP3    H145150   7.705   4.828  11.341  1.0548  2.0665 -0.1752
 6985TIP3    H245151   7.638   4.932  11.253  1.1388  0.3655 -2.3459
 6986TIP3   OH245152   2.345   0.366  11.907  0.0858  0.1123 -0.1303
 6986TIP3    H145153   2.328   0.461  11.905 -0.7099 -0.0154 -0.0468
 6986TIP3    H245154   2.431   0.356  11.868  1.4377  1.1090  2.3765
 6987TIP3   OH245155   7.269   6.128  12.123  0.4628 -0.0865 -0.8185
 6987TIP3    H145156   7.308   6.192  12.063  1.1288 -1.4155 -1.8383
 6987TIP3    H245157   7.341   6.100  12.179  0.7127 -1.5380 -1.8139
 6988TIP3   OH245158   4.791   5.133  11.261 -0.3237  0.8357 -0.4494
 6988TIP3    H145159   4.804   5.092  11.175  0.4558  0.5483 -0.2114
 6988TIP3    H245160   4.717   5.192  11.249 -0.2151  0.8129 -1.3260
 6989TIP3   OH245161   0.830   5.743  11.154  0.2257 -0.2685  0.2968
 6989TIP3    H145162   0.822   5.720  11.062  1.0722 -0.2346  0.2068
 6989TIP3    H245163   0.918   5.714  11.178  0.0351 -0.2176  1.0743
 6990TIP3   OH245164   4.337   5.076  11.658  0.4433 -0.4762  0.1070
 6990TIP3    H145165   4.310   5.000  11.710  1.4356 -0.9174 -0.0141
 6990TIP3    H245166   4.401   5.042  11.596  2.8434  0.8559  1.6872
 6991TIP3   OH245167   3.857   3.639  11.441 -0.3399  0.1933  0.3350
 6991TIP3    H145168   3.842   3.545  11.440  3.8259 -0.6782  1.3448
 6991TIP3    H245169   3.818   3.671  11.359 -1.1447 -2.5213 -0.4315
 6992TIP3   OH245170   7.575   0.875  11.152 -0.3375 -0.2089 -0.9165
 6992TIP3    H145171   7.548   0.793  11.194  0.8729 -0.5599 -0.8013
 6992TIP3    H245172   7.665   0.889  11.181 -1.0307  2.0012  0.3094
 6993TIP3   OH245173   3.712   8.331  11.037  0.2204  0.3207 -0.0618
 6993TIP3    H145174   3.704   8.416  11.081  2.0349 -0.1227  1.2254
 6993TIP3    H245175   3.651   8.274  11.085  0.8720  0.2857  0.7406
 6994TIP3   OH245176   3.818   1.522  11.481  0.3628  0.0526  0.1040
 6994TIP3    H145177   3.869   1.589  11.435  0.5168 -0.4810 -0.5201
 6994TIP3    H245178   3.861   1.513  11.566 -1.2551  2.6786  1.3533
 6995TIP3   OH245179   2.353   6.325  11.169 -0.0977 -0.1401 -0.0312
 6995TIP3    H145180   2.389   6.332  11.080 -0.0231 -0.9636 -0.0731
 6995TIP3    H245181   2.294   6.400  11.177 -0.8495 -0.5938 -1.1229
 6996TIP3   OH245182   6.624   6.883  11.001  0.2750  0.2534  0.3129
 6996TIP3    H145183   6.551   6.920  10.952 -0.4935 -0.8070  0.6162
 6996TIP3    H245184   6.625   6.790  10.977  3.0487  0.6694 -1.5253
 6997TIP3   OH245185   7.091   1.442  11.710 -0.6550  0.1100  0.1521
 6997TIP3    H145186   7.127   1.355  11.728 -2.2275 -0.5720  0.2187
 6997TIP3    H245187   7.149   1.479  11.643  0.7995 -0.4361  1.0782
 6998TIP3   OH245188   4.586   3.516  11.059  0.2714  0.4170 -0.4660
 6998TIP3    H145189   4.639   3.442  11.031 -1.9095 -2.6246  2.6394
 6998TIP3    H245190   4.503   3.506  11.012  0.1677  1.2708 -0.4842
 6999TIP3   OH245191   2.671   5.009  12.172 -0.2918 -0.1118  0.5911
 6999TIP3    H145192   2.659   5.050  12.086 -0.5617 -0.7565  0.3153
 6999TIP3    H245193   2.595   4.952  12.182  0.9579 -1.9192  0.1667
 7000TIP3   OH245194   1.646   0.646  11.858  0.1007  0.4258 -0.1348
 7000TIP3    H145195   1.610   0.693  11.783  0.1910  0.6291 -0.0502
 7000TIP3    H245196   1.571   0.626  11.913 -0.1047 -0.5885 -0.7554
 7001TIP3   OH245197   0.967   3.551  10.708  0.0942 -0.3485  0.2277
 7001TIP3    H145198   0.942   3.637  10.672  0.8697 -0.0271  0.4325
 7001TIP3    H245199   0.949   3.558  10.801  0.1729 -0.4006  0.2477
 7002TIP3   OH245200   5.966   1.072  12.411 -0.0602  0.2099 -1.1804
 7002TIP3    H145201   5.896   1.092  12.349 -0.6392  0.0840 -0.5889
 7002TIP3    H245202   5.930   1.096  12.497  0.1603 -0.9485 -0.7290
 7003TIP3   OH245203   0.588   6.971  11.549 -0.2098 -0.2924  0.7077
 7003TIP3    H145204   0.655   6.976  11.617  1.4875 -1.4604 -0.7938
 7003TIP3    H245205   0.533   6.898  11.576  1.7193 -2.1652 -0.1646
 7004TIP3   OH245206   0.246   3.269  10.817  0.0965 -0.1480 -0.3808
 7004TIP3    H145207   0.185   3.343  10.813 -0.0081 -0.1512  0.7498
 7004TIP3    H245208   0.313   3.297  10.879  1.0258 -0.3200 -1.2869
 7005TIP3   OH245209   5.281   5.636  11.588  0.1371 -0.3510 -0.2832
 7005TIP3    H145210   5.353   5.574  11.598  0.0613 -0.1897  1.4551
 7005TIP3    H245211   5.202   5.584  11.602  0.1168  0.5527  4.6915
 7006TIP3   OH245212   0.238   6.736  12.566  0.5437  1.0395  0.3295
 7006TIP3    H145213   0.231   6.823  12.605 -2.2885  1.2314 -0.3925
 7006TIP3    H245214   0.315   6.741  12.509 -0.0230  3.3614 -0.3305
 7007TIP3   OH245215   2.073   1.839  11.226  0.5294 -0.0957  0.6583
 7007TIP3    H145216   2.107   1.816  11.140 -0.2228  0.6222  0.1472
 7007TIP3    H245217   1.989   1.881  11.208 -0.2321 -1.0489  1.8273
 7008TIP3   OH245218   3.186   0.662  12.866 -0.3044  0.4082  0.2810
 7008TIP3    H145219   3.213   0.753  12.877  0.9053  0.4423 -2.3049
 7008TIP3    H245220   3.257   0.611  12.905  0.2586  0.5613 -0.5338
 7009TIP3   OH245221   4.250   8.302  12.292  0.0774  0.4015  0.3681
 7009TIP3    H145222   4.204   8.232  12.245  2.3891 -1.1639  0.2532
 7009TIP3    H245223   4.284   8.359  12.223 -0.5422  0.7973  0.3868
 7010TIP3   OH245224   4.368   7.151  11.021  0.7058  0.1176  0.0986
 7010TIP3    H145225   4.294   7.176  10.965  0.3061  1.2261  1.0694
 7010TIP3    H245226   4.358   7.206  11.099  1.6553 -0.8640  0.9411
 7011TIP3   OH245227   5.609   6.701  11.953 -0.1201  0.0683 -0.3157
 7011TIP3    H145228   5.653   6.699  12.038 -1.6724  1.2930  0.5923
 7011TIP3    H245229   5.587   6.609  11.935 -1.4837 -0.0513  1.6137
 7012TIP3   OH245230   6.236   4.657  11.712  0.1188  0.0130 -0.6042
 7012TIP3    H145231   6.245   4.610  11.794 -0.0217  1.8198  0.5086
 7012TIP3    H245232   6.142   4.657  11.694  0.2284 -1.1324 -1.2556
 7013TIP3   OH245233   3.749   8.137  10.834 -0.6347 -0.2221 -0.2456
 7013TIP3    H145234   3.765   8.202  10.766 -1.8333 -0.5995 -0.9112
 7013TIP3    H245235   3.731   8.189  10.913  1.7051  0.2187  0.0739
 7014TIP3   OH245236   2.773   5.460  11.924 -0.3474  0.0388  0.4600
 7014TIP3    H145237   2.699   5.436  11.979  0.1493 -0.7051  0.8225
 7014TIP3    H245238   2.782   5.388  11.862 -0.3972  0.4874 -0.0738
 7015TIP3   OH245239   6.867   8.070  11.544 -0.6257 -0.3763  0.3434
 7015TIP3    H145240   6.834   8.105  11.461 -0.1604  2.4173  1.2291
 7015TIP3    H245241   6.946   8.023  11.521  0.1908  1.4118 -0.7385
 7016TIP3   OH245242   5.460   8.192  12.588  0.0190  0.2277  0.3615
 7016TIP3    H145243   5.377   8.147  12.575  0.2065 -0.0235 -0.0031
 7016TIP3    H245244   5.522   8.145  12.531 -0.0318  1.6599 -0.9480
 7017TIP3   OH245245   0.872   6.201  12.390  0.2926 -0.7171 -0.5424
 7017TIP3    H145246   0.882   6.189  12.485  0.3521  0.3809 -0.3983
 7017TIP3    H245247   0.779   6.220  12.378  0.3531 -0.5000 -0.6643
 7018TIP3   OH245248   0.604   2.750  12.251  0.4740 -0.4580  0.2770
 7018TIP3    H145249   0.543   2.772  12.321  1.8122 -0.2450  1.3964
 7018TIP3    H245250   0.570   2.798  12.175 -1.2796 -1.0933  0.5960
 7019TIP3   OH245251   3.781   0.658  11.531  0.5083  0.0129 -0.4080
 7019TIP3    H145252   3.796   0.565  11.520 -0.4437 -0.1615 -0.2500
 7019TIP3    H245253   3.687   0.670  11.519  0.9334  1.3239 -2.9854
 7020TIP3   OH245254   8.028   0.192  10.825  0.2193  0.0183  0.0689
 7020TIP3    H145255   8.102   0.152  10.779  1.2197 -0.0983  1.6943
 7020TIP3    H245256   8.034   0.285  10.805  2.2385  0.3715  1.9868
 7021TIP3   OH245257   2.402   5.910  11.374  0.0518  0.1087  0.2407
 7021TIP3    H145258   2.316   5.879  11.347  0.3684  0.4481 -1.2508
 7021TIP3    H245259   2.427   5.973  11.306  0.6024  1.5730  1.7152
 7022TIP3   OH245260   8.402   3.036  11.441 -0.2348 -0.3063 -0.2658
 7022TIP3    H145261   8.488   3.033  11.484  0.9674  2.3355 -2.2070
 7022TIP3    H245262   8.379   2.944  11.430  1.5832 -1.0989  1.7302
 7023TIP3   OH245263   8.156   2.025  13.191 -0.5757  0.2183  0.4170
 7023TIP3    H145264   8.167   1.974  13.271 -0.4620 -0.9395 -0.3131
 7023TIP3    H245265   8.062   2.025  13.175 -0.5726  0.2059  0.3999
 7024TIP3   OH245266   2.422   0.877  10.673 -0.2780  0.1089  0.1138
 7024TIP3    H145267   2.344   0.909  10.627 -0.3734  1.4831  1.1951
 7024TIP3    H245268   2.410   0.904  10.764  0.4582 -1.5642  0.7463
 7025TIP3   OH245269   5.846   1.209  12.609  0.2187 -0.2861 -0.6041
 7025TIP3    H145270   5.822   1.255  12.690 -0.6720  2.8643 -2.5188
 7025TIP3    H245271   5.764   1.174  12.576  0.5344 -1.2847 -0.3797
 7026TIP3   OH245272   0.120   1.236  11.925 -0.0059  0.2295 -0.0841
 7026TIP3    H145273   0.037   1.203  11.960 -0.4041 -0.9026 -1.9294
 7026TIP3    H245274   0.111   1.331  11.926 -0.0420  0.2535  2.6152
 7027TIP3   OH245275   6.789   1.883  11.642  0.2606  0.2240 -0.3076
 7027TIP3    H145276   6.717   1.933  11.603 -0.2570  0.1033  0.4673
 7027TIP3    H245277   6.746   1.814  11.693  0.9424 -0.2441 -0.3508
 7028TIP3   OH245278   1.119   1.026  11.509 -0.0763 -0.4456 -0.3375
 7028TIP3    H145279   1.153   1.056  11.594  0.6298  0.6019 -0.9677
 7028TIP3    H245280   1.161   0.941  11.496 -1.3775 -1.3602  1.0457
 7029TIP3   OH245281   2.738   2.934  12.260  0.0269  0.3508  0.4949
 7029TIP3    H145282   2.742   2.988  12.181 -0.7718  0.6717  0.6661
 7029TIP3    H245283   2.653   2.955  12.299  0.6197  0.5452  1.7002
 7030TIP3   OH245284   8.135   3.331  11.622 -0.1375 -0.0494  0.3700
 7030TIP3    H145285   8.073   3.389  11.579  1.4748  1.1661 -0.3843
 7030TIP3    H245286   8.174   3.279  11.552  0.7658  0.2461  0.6348
 7031TIP3   OH245287   1.890   8.235  11.396  0.1623 -0.0622  0.1322
 7031TIP3    H145288   1.947   8.160  11.380  1.1882  0.1375  2.3867
 7031TIP3    H245289   1.806   8.210  11.359  0.1146 -2.8956  1.8680
 7032TIP3   OH245290   6.023   4.729  12.794  0.1315  0.6601 -0.2392
 7032TIP3    H145291   6.085   4.656  12.802 -1.5690 -0.6440  2.2811
 7032TIP3    H245292   6.046   4.787  12.867 -0.1708  1.3694 -0.6976
 7033TIP3   OH245293   7.176   0.959  10.729  0.2251 -0.0425  0.0444
 7033TIP3    H145294   7.229   1.036  10.747  0.7189 -0.5768  0.9594
 7033TIP3    H245295   7.089   0.981  10.762  0.6051 -0.2181  1.2241
 7034TIP3   OH245296   3.912   2.669  11.449  0.1856 -0.0637 -0.3360
 7034TIP3    H145297   3.883   2.601  11.388  3.6272 -1.3262 -0.7725
 7034TIP3    H245298   3.925   2.746  11.394 -0.1600 -0.1444 -0.5340
 7035TIP3   OH245299   2.293   4.253  12.737  0.2876  0.2702 -0.4393
 7035TIP3    H145300   2.318   4.172  12.693  2.3812 -0.2074  1.4742
 7035TIP3    H245301   2.197   4.248  12.744  0.3570 -1.9728 -0.4918
 7036TIP3   OH245302   6.467   1.747  10.937 -0.3952 -0.0098  0.0486
 7036TIP3    H145303   6.416   1.727  11.016  1.7783 -1.3106  1.2099
 7036TIP3    H245304   6.401   1.768  10.871 -2.5292 -2.5433  1.1864
 7037TIP3   OH245305   2.239   3.898  11.226  0.1972  0.5931  0.7655
 7037TIP3    H145306   2.202   3.840  11.159  1.2812  0.7590 -0.0071
 7037TIP3    H245307   2.242   3.844  11.305 -0.4925  0.1834  0.5316
 7038TIP3   OH245308   3.053   1.669  16.185 -0.0509  0.8325  0.7537
 7038TIP3    H145309   3.083   1.675  16.094  2.3947  0.0781  1.4440
 7038TIP3    H245310   3.061   1.576  16.207  0.9757  1.2296  2.2170
 7039TIP3   OH245311   2.338   7.107  11.094  0.1954 -0.2778 -0.4251
 7039TIP3    H145312   2.408   7.120  11.158 -2.1988  1.0613  2.1378
 7039TIP3    H245313   2.346   7.181  11.034 -0.6926  1.6226  1.6376
 7040TIP3   OH245314   6.197   7.817  10.690 -0.3315 -0.0274 -0.0620
 7040TIP3    H145315   6.200   7.907  10.660  0.1965 -0.1998 -0.5356
 7040TIP3    H245316   6.196   7.764  10.610 -0.2990 -0.4466  0.2094
 7041TIP3   OH245317   4.350   6.512  12.546 -0.3699 -0.0227 -0.1650
 7041TIP3    H145318   4.305   6.451  12.487 -0.7217  0.3004 -0.2327
 7041TIP3    H245319   4.323   6.599  12.516  0.9113  0.2132 -0.7064
 7042TIP3   OH245320   1.527   5.773  11.223  0.6324 -0.3797  0.0863
 7042TIP3    H145321   1.511   5.680  11.203 -1.0798 -0.1686  0.3368
 7042TIP3    H245322   1.546   5.774  11.317  1.0403 -0.5100  0.0081
 7043TIP3   OH245323   0.401   2.425  11.744 -0.4937 -0.3228 -0.2008
 7043TIP3    H145324   0.494   2.405  11.759 -0.4896 -0.4635 -0.4015
 7043TIP3    H245325   0.385   2.394  11.654 -0.5914  0.2129 -0.3696
 7044TIP3   OH245326   7.164   5.621  11.528 -0.4425 -0.5263 -0.4443
 7044TIP3    H145327   7.218   5.642  11.452 -2.4134 -0.7911 -2.0069
 7044TIP3    H245328   7.087   5.678  11.519 -1.6635 -2.0130  0.2154
 7045TIP3   OH245329   0.704   6.643  10.791  0.4240 -0.1960 -0.0439
 7045TIP3    H145330   0.692   6.732  10.823  1.5759  0.0112 -0.1610
 7045TIP3    H245331   0.636   6.632  10.724 -1.2811 -0.2453  1.5953
 7046TIP3   OH245332   8.146   6.826  11.152 -0.1738 -0.6556 -0.1285
 7046TIP3    H145333   8.131   6.910  11.197  0.2395 -1.0042  0.6723
 7046TIP3    H245334   8.221   6.788  11.197 -0.4542 -1.5324 -0.3974
 7047TIP3   OH245335   7.028   4.645  11.040  0.2050  0.2968  0.6595
 7047TIP3    H145336   6.990   4.721  11.085  0.0445  0.3282  0.4715
 7047TIP3    H245337   7.113   4.677  11.008 -0.2108  0.6498 -0.1287
 7048TIP3   OH245338   6.478   4.795  11.303 -0.1762  0.0475 -0.3989
 7048TIP3    H145339   6.486   4.888  11.325  0.6236  0.1998 -1.2776
 7048TIP3    H245340   6.555   4.776  11.250  0.4891 -1.5104  1.0371
 7049TIP3   OH245341   2.906   2.564  10.474 -0.3330  0.0951  0.5563
 7049TIP3    H145342   2.907   2.469  10.467 -0.3681  0.0407  1.2507
 7049TIP3    H245343   2.989   2.591  10.436 -0.4162 -0.1938  0.1578
 7050TIP3   OH245344   1.020   7.493  11.935  0.7153 -0.2102  0.2949
 7050TIP3    H145345   0.953   7.560  11.946  1.6299  0.3290  3.2640
 7050TIP3    H245346   0.989   7.419  11.988 -0.7953 -2.7946 -3.6789
 7051TIP3   OH245347   7.612   7.638  12.064 -0.0648 -0.0870  0.3766
 7051TIP3    H145348   7.624   7.557  12.114 -0.1696 -0.1748  0.2602
 7051TIP3    H245349   7.642   7.707  12.123  0.1827 -0.2243  0.4156
 7052TIP3   OH245350   5.700   2.016  10.997 -0.2120 -0.2289 -0.6606
 7052TIP3    H145351   5.646   1.946  10.961  1.1151 -1.1978 -0.8419
 7052TIP3    H245352   5.699   2.000  11.091  0.0032 -0.4205 -0.6915
 7053TIP3   OH245353   8.022   2.887  11.203 -0.1721  0.0190 -0.0306
 7053TIP3    H145354   8.111   2.880  11.168 -0.4073 -2.1322 -0.3271
 7053TIP3    H245355   8.034   2.904  11.297  0.6330 -2.1460  0.3090
 7054TIP3   OH245356   7.310   2.496  10.553 -0.0926  0.4544 -0.3670
 7054TIP3    H145357   7.261   2.476  10.633 -0.2269  0.5179 -0.4328
 7054TIP3    H245358   7.401   2.501  10.581  0.2819 -2.6525 -0.7550
 7055TIP3   OH245359   0.233   7.277  12.093 -0.0932  1.1168  0.0564
 7055TIP3    H145360   0.147   7.243  12.068  0.6205 -1.3820  0.7199
 7055TIP3    H245361   0.290   7.255  12.020  0.1596  2.0160 -0.0230
 7056TIP3   OH245362   5.273   5.988  11.174  0.5663  0.5986 -0.1247
 7056TIP3    H145363   5.235   5.971  11.260 -2.1554  0.7046 -1.2275
 7056TIP3    H245364   5.367   5.997  11.191  0.5197 -2.1645  2.4127
 7057TIP3   OH245365   1.908   1.268  11.494 -0.3008 -0.1302 -0.3915
 7057TIP3    H145366   1.868   1.245  11.410  0.7966 -1.7478 -0.5247
 7057TIP3    H245367   2.002   1.268  11.477 -0.0961  0.6729  0.5920
 7058TIP3   OH245368   2.180   4.574  11.362  0.6101 -0.1762 -0.4277
 7058TIP3    H145369   2.261   4.625  11.370  0.3678  0.0429  0.8593
 7058TIP3    H245370   2.169   4.561  11.268  3.1229 -1.8004 -0.5878
 7059TIP3   OH245371   4.446   5.332  10.863  0.2580 -0.4073 -0.0854
 7059TIP3    H145372   4.484   5.249  10.894  0.2363 -0.1462  0.6425
 7059TIP3    H245373   4.501   5.399  10.902  0.0268 -0.0629 -0.3512
 7060TIP3   OH245374   5.853   8.224  11.083  0.0722 -0.3119 -0.6194
 7060TIP3    H145375   5.936   8.269  11.102 -0.0181 -0.4588  0.1875
 7060TIP3    H245376   5.809   8.281  11.020  1.1003 -0.6061 -1.6282
 7061TIP3   OH245377   1.305   4.640  12.109  0.4246  0.3204 -0.6856
 7061TIP3    H145378   1.366   4.568  12.094  0.0655 -0.3399  0.8685
 7061TIP3    H245379   1.267   4.657  12.023  0.1673 -1.6892 -1.0195
 7062TIP3   OH245380   6.666   1.223  12.334 -0.7360 -0.4357  0.4246
 7062TIP3    H145381   6.632   1.210  12.245 -0.6615  1.1675  0.1163
 7062TIP3    H245382   6.592   1.258  12.383 -1.0790 -2.3055  1.3232
 7063TIP3   OH245383   5.952   0.800  12.015  0.3036  0.1127 -0.0585
 7063TIP3    H145384   5.970   0.731  12.079 -0.2710 -0.1949 -0.2239
 7063TIP3    H245385   5.857   0.797  12.002  0.3291  0.6425 -0.3980
 7064TIP3   OH245386   6.228   7.311  11.781 -0.1900 -0.6845  0.1275
 7064TIP3    H145387   6.134   7.325  11.768  0.2800  0.9668 -2.1786
 7064TIP3    H245388   6.269   7.354  11.705  2.3975 -1.9317  0.7203
 7065TIP3   OH245389   4.692   3.832  11.368 -0.0896 -0.3831 -0.5083
 7065TIP3    H145390   4.707   3.841  11.274  1.8982 -1.1802 -0.3170
 7065TIP3    H245391   4.649   3.747  11.378 -1.2215  0.1407 -0.7433
 7066TIP3   OH245392   1.005   5.303  10.794 -0.6926  0.1108  0.0582
 7066TIP3    H145393   0.915   5.320  10.766 -0.5702 -0.3496 -0.6740
 7066TIP3    H245394   1.013   5.346  10.879 -2.2523 -1.5568  1.1429
 7067TIP3   OH245395   1.046   6.928  10.387 -0.5503  0.1719 -0.1099
 7067TIP3    H145396   0.977   6.894  10.331  2.6480 -0.9800 -3.7342
 7067TIP3    H245397   1.081   6.851  10.433  0.6204  0.0706 -1.1206
 7068TIP3   OH245398   2.467   4.090  12.461  0.2114 -0.3678 -0.0393
 7068TIP3    H145399   2.416   4.037  12.521 -0.9229  1.1046  0.3459
 7068TIP3    H245400   2.522   4.145  12.517 -1.0942  1.2549 -0.2681
 7069TIP3   OH245401   7.708   0.139  12.999  0.1442  0.3086 -0.7492
 7069TIP3    H145402   7.731   0.230  13.020 -1.6234  0.2214  2.1090
 7069TIP3    H245403   7.636   0.146  12.937 -0.8299  0.9654  0.4019
 7070TIP3   OH245404   4.166   4.590  11.484 -0.1450 -0.5193  0.1833
 7070TIP3    H145405   4.119   4.529  11.427  0.2405 -0.0435 -0.6755
 7070TIP3    H245406   4.255   4.591  11.449 -0.5621  1.9086 -1.0263
 7071TIP3   OH245407   4.734   7.001  11.306 -0.1784 -0.2827 -0.1231
 7071TIP3    H145408   4.669   7.071  11.306 -0.1989 -0.2951 -0.5615
 7071TIP3    H245409   4.685   6.922  11.281 -0.0204 -0.3114 -0.3541
 7072TIP3   OH245410   0.533   4.563  11.596  0.0422  0.4178 -0.2360
 7072TIP3    H145411   0.598   4.499  11.626  0.1497  0.9726  0.7455
 7072TIP3    H245412   0.560   4.584  11.506  0.5960 -0.1587 -0.2081
 7073TIP3   OH245413   2.786   6.330  11.978  0.1931 -0.7159  0.0803
 7073TIP3    H145414   2.784   6.326  12.073  1.5582  0.3481  0.1806
 7073TIP3    H245415   2.784   6.239  11.950 -2.6412 -1.0212  1.0109
 7074TIP3   OH245416   1.205   2.029  12.237 -0.2771  0.2013 -0.0629
 7074TIP3    H145417   1.270   1.962  12.259  0.0531  0.1300 -1.1704
 7074TIP3    H245418   1.121   1.984  12.239 -0.4105  0.4582  2.1014
 7075TIP3   OH245419   4.406   3.721  12.500 -0.3372  0.2720  0.0449
 7075TIP3    H145420   4.494   3.704  12.534  0.0074  0.4399 -0.7489
 7075TIP3    H245421   4.351   3.725  12.578  0.1796 -0.8590  0.4907
 7076TIP3   OH245422   1.554   0.491  12.493 -0.0209 -0.6367  0.0221
 7076TIP3    H145423   1.580   0.578  12.521 -0.8199  0.4189 -2.2428
 7076TIP3    H245424   1.634   0.451  12.461  0.2622 -0.5497  0.6175
 7077TIP3   OH245425   5.619   0.865  11.370  0.0010 -0.4843 -0.7398
 7077TIP3    H145426   5.528   0.842  11.354 -0.0080 -1.6319  0.7398
 7077TIP3    H245427   5.665   0.835  11.292 -0.8708  0.1373 -1.5155
 7078TIP3   OH245428   2.145   2.811  10.867 -0.0583 -0.2953  0.1107
 7078TIP3    H145429   2.092   2.887  10.890  1.6356  0.4359  1.8784
 7078TIP3    H245430   2.204   2.843  10.799 -0.3706 -0.4688 -0.2433
 7079TIP3   OH245431   4.276   1.776  12.530 -0.1631 -0.3946  0.2270
 7079TIP3    H145432   4.355   1.764  12.584 -0.8401 -1.2877  1.0540
 7079TIP3    H245433   4.213   1.817  12.588 -0.5866 -0.4585 -0.1821
 7080TIP3   OH245434   3.576   7.887  12.083 -0.2985  0.1832  0.5204
 7080TIP3    H145435   3.514   7.902  12.155 -0.0121  2.0135  0.4311
 7080TIP3    H245436   3.534   7.927  12.007 -2.2369 -4.6372 -1.3449
 7081TIP3   OH245437   0.644   4.567  11.324  0.3021 -0.2270 -0.7445
 7081TIP3    H145438   0.688   4.512  11.260  0.6690 -2.0302  0.9734
 7081TIP3    H245439   0.715   4.606  11.375  0.0432 -2.1939  1.2595
 7082TIP3   OH245440   4.051   5.202  11.456  0.2070  0.6873 -0.3259
 7082TIP3    H145441   4.076   5.111  11.473 -2.8743 -0.4291 -1.0710
 7082TIP3    H245442   4.003   5.229  11.534  1.0503  1.6736 -0.1361
 7083TIP3   OH245443   6.493   6.706  11.508  0.4765  0.0514 -0.0665
 7083TIP3    H145444   6.465   6.630  11.457 -0.6252  0.1647  0.3543
 7083TIP3    H245445   6.554   6.752  11.450 -1.7015  0.8885 -1.8549
 7084TIP3   OH245446   2.472   1.963  11.137  0.1947  0.1093 -0.2125
 7084TIP3    H145447   2.428   1.999  11.215 -0.9266  1.1804 -1.2998
 7084TIP3    H245448   2.428   1.880  11.121  1.6167 -1.0026  1.2822
 7085TIP3   OH245449   8.313   6.343  12.057  0.0129  0.3832 -0.0643
 7085TIP3    H145450   8.345   6.430  12.081 -0.6403  0.7879 -0.6101
 7085TIP3    H245451   8.223   6.341  12.090  0.2553 -0.3623  0.5779
 7086TIP3   OH245452   7.121   3.796  12.142 -0.4832 -0.7312 -0.8465
 7086TIP3    H145453   7.078   3.759  12.219  1.4886 -0.0633  0.6759
 7086TIP3    H245454   7.072   3.876  12.122 -0.9105 -0.8253 -0.1789
 7087TIP3   OH245455   2.317   1.208  10.814 -0.0882 -0.8010  0.0446
 7087TIP3    H145456   2.390   1.216  10.753  0.3754  0.6447  0.7653
 7087TIP3    H245457   2.357   1.213  10.901 -0.9998 -0.2893  0.4483
 7088TIP3   OH245458   8.448   6.881  12.185  0.3764  0.2770  0.5211
 7088TIP3    H145459   8.455   6.787  12.202 -0.2448  0.6541  3.2736
 7088TIP3    H245460   8.364   6.906  12.223  0.1540  1.8448 -0.8921
 7089TIP3   OH245461   5.463   2.678  12.113 -0.1955  0.3505 -0.1338
 7089TIP3    H145462   5.386   2.708  12.161 -0.1225  0.1567  0.1025
 7089TIP3    H245463   5.537   2.705  12.167 -0.1536 -1.2431  0.6623
 7090TIP3   OH245464   7.965   6.643  11.010 -0.4088 -0.4691  0.0590
 7090TIP3    H145465   7.908   6.697  10.955 -2.4031 -1.4904  1.0127
 7090TIP3    H245466   8.028   6.705  11.047 -1.8888  1.0331  0.1959
 7091TIP3   OH245467   4.803   5.096  10.991  0.2209 -0.7997  0.0132
 7091TIP3    H145468   4.719   5.141  10.987  0.1106 -0.8802  1.1344
 7091TIP3    H245469   4.784   5.006  10.968 -0.1325 -0.9658  0.9188
 7092TIP3   OH245470   1.840   3.739  11.583 -0.5517 -0.2680  0.3893
 7092TIP3    H145471   1.913   3.685  11.613  0.3371  1.1562  0.8989
 7092TIP3    H245472   1.836   3.722  11.489 -0.1053 -0.9972  0.4885
 7093TIP3   OH245473   0.531   4.262  12.275  0.0753 -0.0995  0.5421
 7093TIP3    H145474   0.457   4.304  12.233  1.4445  2.6760  0.6866
 7093TIP3    H245475   0.581   4.223  12.203  1.0736  2.4383 -0.2346
 7094TIP3   OH245476   8.317   6.077  10.897 -0.0231 -0.0262 -0.5551
 7094TIP3    H145477   8.371   6.129  10.957  0.6509  1.8223 -2.6505
 7094TIP3    H245478   8.312   5.991  10.939  1.6723  0.7333  1.4003
 7095TIP3   OH245479   3.511   2.911  12.140 -0.4994  0.3640  0.0081
 7095TIP3    H145480   3.568   2.916  12.217 -0.5856 -1.4986  0.2625
 7095TIP3    H245481   3.549   2.841  12.087 -2.0987 -0.4075 -0.1760
 7096TIP3   OH245482   4.088   2.667  12.344  0.0437  0.5006  0.3854
 7096TIP3    H145483   4.092   2.592  12.403  1.1918  0.7603  0.6639
 7096TIP3    H245484   4.005   2.657  12.298  0.3963 -1.2085  0.0571
 7097TIP3   OH245485   1.954   4.260  11.276  0.3097  0.3855 -0.4884
 7097TIP3    H145486   2.027   4.270  11.215  2.2126  1.7733  1.8797
 7097TIP3    H245487   1.947   4.166  11.289  1.2418  0.1954 -1.2163
 7098TIP3   OH245488   6.414   5.795  12.174 -0.0332 -0.3417  0.3324
 7098TIP3    H145489   6.469   5.757  12.242  0.5065 -1.0463 -0.4817
 7098TIP3    H245490   6.460   5.777  12.093 -0.0267  1.5913 -0.1428
 7099TIP3   OH245491   2.005   4.775  11.074  0.3168  0.0367 -0.0903
 7099TIP3    H145492   2.012   4.826  10.993  0.1729  0.5610  0.2222
 7099TIP3    H245493   2.059   4.697  11.058  0.0990  0.0172 -0.7789
 7100TIP3   OH245494   2.533   4.587  12.528 -0.2154  0.1088  0.3119
 7100TIP3    H145495   2.459   4.531  12.509  0.3018 -0.6645  0.5189
 7100TIP3    H245496   2.532   4.596  12.624 -0.1126  0.1961  0.3052
 7101TIP3   OH245497   7.303   0.899  12.809 -0.1031 -0.3751  0.2893
 7101TIP3    H145498   7.301   0.806  12.789 -0.3657 -0.6228  1.3567
 7101TIP3    H245499   7.396   0.924  12.804  0.0063 -0.7777  0.3181
 7102TIP3   OH245500   6.302   3.167  11.990  0.0442 -0.1010 -0.0789
 7102TIP3    H145501   6.260   3.227  12.051  1.6499  1.7340 -0.6887
 7102TIP3    H245502   6.264   3.189  11.905 -1.1349 -1.6686 -0.0031
 7103TIP3   OH245503   7.890   3.831  12.634 -0.4155  0.2237  0.0686
 7103TIP3    H145504   7.862   3.760  12.692  0.3163 -0.7249 -0.6912
 7103TIP3    H245505   7.966   3.869  12.678 -0.2424 -0.0887  0.0478
 7104TIP3   OH245506   1.737   0.731  11.542 -0.3141  0.4047  0.0323
 7104TIP3    H145507   1.831   0.746  11.531 -0.6293  2.3460 -0.2174
 7104TIP3    H245508   1.706   0.805  11.593 -1.8067  0.0416 -0.2915
 7105TIP3   OH245509   4.035   1.361  10.462 -0.2332 -0.3765  0.1827
 7105TIP3    H145510   4.093   1.419  10.513 -0.2869  0.8852 -1.1181
 7105TIP3    H245511   3.956   1.414  10.447 -2.0300 -2.2482  2.3728
 7106TIP3   OH245512   2.273   5.377  12.311  0.4571 -0.8418  0.3627
 7106TIP3    H145513   2.360   5.419  12.310  0.3419 -0.6084 -0.4699
 7106TIP3    H245514   2.219   5.438  12.361  0.0968  0.4548 -1.5034
 7107TIP3   OH245515   3.653   3.880  11.693 -0.1367  0.0448  0.0573
 7107TIP3    H145516   3.622   3.903  11.605 -2.1055 -0.9377  0.4582
 7107TIP3    H245517   3.651   3.963  11.741  0.2431  0.4504 -0.6086
 7108TIP3   OH245518   2.021   4.338  12.739  0.4551  0.0709 -0.1334
 7108TIP3    H145519   1.982   4.327  12.652  1.1537  1.9951 -0.7511
 7108TIP3    H245520   1.954   4.383  12.790  0.5823  0.2705 -0.1406
 7109TIP3   OH245521   5.379   3.664  10.760  0.1362  0.2803  0.3724
 7109TIP3    H145522   5.461   3.666  10.810 -0.6709  2.4725  1.7773
 7109TIP3    H245523   5.320   3.720  10.810 -2.2436 -1.2252 -0.6167
 7110TIP3   OH245524   5.443   7.910  12.278  0.0025  0.0640  0.6221
 7110TIP3    H145525   5.368   7.894  12.335 -0.4709  0.6134  0.1549
 7110TIP3    H245526   5.435   8.001  12.251  1.3942  0.4448  1.3743
 7111TIP3   OH245527   6.258   6.870  12.207 -0.2981  0.3065 -0.0839
 7111TIP3    H145528   6.200   6.936  12.171  0.2476  1.1522  0.5309
 7111TIP3    H245529   6.226   6.855  12.296 -1.2915 -1.3423 -0.6703
 7112TIP3   OH245530   6.248   2.316  11.660 -0.5505  0.2293 -0.1775
 7112TIP3    H145531   6.163   2.325  11.617 -2.1484 -0.2409  2.6214
 7112TIP3    H245532   6.310   2.302  11.589 -2.4124  2.8002 -2.5451
 7113TIP3   OH245533   5.141   4.761  11.767 -0.0186  0.0117  0.1045
 7113TIP3    H145534   5.196   4.812  11.827  1.5761 -0.1768 -1.1295
 7113TIP3    H245535   5.058   4.809  11.764  0.2981  0.6970  1.4986
 7114TIP3   OH245536   2.776   2.469  11.935 -0.0394  0.2707 -0.3976
 7114TIP3    H145537   2.709   2.537  11.943 -0.6118 -0.1992 -1.0554
 7114TIP3    H245538   2.793   2.442  12.025 -1.4725 -0.2950 -0.2674
 7115TIP3   OH245539   0.224   3.537  11.935  0.1460  0.6043 -0.0895
 7115TIP3    H145540   0.143   3.582  11.956 -0.5182 -1.4479  2.3518
 7115TIP3    H245541   0.244   3.563  11.846 -2.5172  2.1414 -0.3446
 7116TIP3   OH245542   0.261   3.013  11.310  0.2153  0.3095 -0.6339
 7116TIP3    H145543   0.251   3.097  11.355  0.1921  0.3552 -0.7235
 7116TIP3    H245544   0.303   3.036  11.227  0.7079  0.1688 -0.4275
 7117TIP3   OH245545   6.895   3.096  10.071 -0.4932 -0.2028  0.1406
 7117TIP3    H145546   6.968   3.158  10.078 -0.6247 -0.1705  1.7869
 7117TIP3    H245547   6.924   3.032  10.007  0.7904  0.0729  0.4004
 7118TIP3   OH245548   1.619   3.532  10.620 -0.4203  0.3550 -0.7609
 7118TIP3    H145549   1.713   3.548  10.615  0.0386 -1.0483  1.7147
 7118TIP3    H245550   1.610   3.437  10.615 -1.4706  0.3072  0.9424
 7119TIP3   OH245551   2.868   5.856  11.033  0.2835  0.1405  0.7236
 7119TIP3    H145552   2.867   5.900  11.118 -0.5205  1.5663  0.0161
 7119TIP3    H245553   2.776   5.849  11.009  0.4308 -1.4194  0.5223
 7120TIP3   OH245554   6.929   3.559  12.732  0.2175  0.0882 -0.9087
 7120TIP3    H145555   6.905   3.488  12.791  0.6370  0.4143 -0.3197
 7120TIP3    H245556   6.974   3.516  12.659 -1.9252 -0.4999 -1.9361
 7121TIP3   OH245557   4.720   2.511  12.034 -0.2481  0.5908 -0.6686
 7121TIP3    H145558   4.713   2.606  12.027 -0.5279  0.7001  0.7032
 7121TIP3    H245559   4.779   2.497  12.108 -2.1181 -0.2571  0.7454
 7122TIP3   OH245560   3.436   6.022  11.015 -0.2673  0.1740  0.3435
 7122TIP3    H145561   3.396   6.101  11.051 -0.8776  0.7749 -1.5251
 7122TIP3    H245562   3.365   5.957  11.016  0.4763 -0.7028  2.7223
 7123TIP3   OH245563   0.909   5.155  12.075 -0.7899 -0.4491  0.2183
 7123TIP3    H145564   0.976   5.139  12.009 -0.4542 -1.5721  0.8103
 7123TIP3    H245565   0.827   5.162  12.026 -0.3760  0.0052 -0.4208
 7124TIP3   OH245566   1.292   6.209  11.716  0.4316 -0.1144 -0.3156
 7124TIP3    H145567   1.201   6.194  11.691  0.5690  0.3953 -1.1626
 7124TIP3    H245568   1.341   6.195  11.635  1.0900 -0.2379  0.1029
 7125TIP3   OH245569   2.008   5.226  12.495  0.7513 -0.2441  0.2206
 7125TIP3    H145570   1.955   5.195  12.569 -1.2223  0.5284 -0.7888
 7125TIP3    H245571   2.040   5.312  12.522 -0.0373  0.0739  0.1647
 7126TIP3   OH245572   4.759   6.456  10.696  0.6046  0.0452 -0.2430
 7126TIP3    H145573   4.777   6.380  10.751  0.6107  1.1852  1.3792
 7126TIP3    H245574   4.680   6.431  10.647  2.0839 -2.0140 -1.7980
 7127TIP3   OH245575   1.824   0.381  12.310  0.0350  0.1424  0.1671
 7127TIP3    H145576   1.873   0.405  12.388 -1.2789  1.4804  0.6154
 7127TIP3    H245577   1.887   0.330  12.258  1.3144  0.2567  1.5111
 7128TIP3   OH245578   7.932   2.349  10.761 -0.2129 -0.4989 -0.2983
 7128TIP3    H145579   7.934   2.445  10.754 -1.0449 -0.4665 -0.2026
 7128TIP3    H245580   7.987   2.319  10.689  1.0301  0.0657  0.3902
 7129TIP3   OH245581   7.802   6.204  10.835 -0.0090  0.0377  0.6743
 7129TIP3    H145582   7.776   6.295  10.820  0.7392 -0.0101 -1.1040
 7129TIP3    H245583   7.894   6.209  10.862  0.1801 -0.2189  0.0854
 7130TIP3   OH245584   7.055   8.171  11.315 -0.0207 -0.3328  0.2319
 7130TIP3    H145585   6.989   8.155  11.247  1.1568 -0.8459 -0.8100
 7130TIP3    H245586   7.053   8.266  11.328 -1.2905 -0.3801  0.5846
 7131TIP3   OH245587   5.826   5.904  11.756 -0.2531  0.3813 -0.3650
 7131TIP3    H145588   5.898   5.869  11.704 -1.5266 -2.0342 -0.6332
 7131TIP3    H245589   5.756   5.919  11.693 -1.2092 -0.8714  0.3625
 7132TIP3   OH245590   3.632   3.662  12.799  0.5809 -0.3983  0.0081
 7132TIP3    H145591   3.644   3.757  12.803  1.4818 -0.4032 -1.6366
 7132TIP3    H245592   3.675   3.636  12.718 -2.0486 -1.8608 -1.0416
 7133TIP3   OH245593   1.637   7.953  10.654 -0.4827 -0.5415  0.5414
 7133TIP3    H145594   1.635   8.049  10.658 -1.6258 -0.5578  0.5873
 7133TIP3    H245595   1.546   7.928  10.638 -0.0662 -1.5917 -0.2624
 7134TIP3   OH245596   3.787   3.435  11.223 -0.7062 -0.6747  0.5353
 7134TIP3    H145597   3.693   3.424  11.207 -0.4446 -1.6198 -0.5353
 7134TIP3    H245598   3.822   3.346  11.221  0.3039 -0.2867  0.2586
 7135TIP3   OH245599   2.090   5.781  10.837  0.0058  0.2399 -0.5655
 7135TIP3    H145600   2.086   5.873  10.812  0.7315  1.2063  2.4478
 7135TIP3    H245601   1.999   5.752  10.840 -0.2407  0.9392 -1.2694
 7136TIP3   OH245602   7.032   5.726  10.786 -0.2662  0.3864  0.2931
 7136TIP3    H145603   6.984   5.731  10.869 -0.1567  2.4004  0.2911
 7136TIP3    H245604   7.118   5.763  10.806  0.2654 -0.4332 -0.4046
 7137TIP3   OH245605   7.562   3.208  12.877 -0.1959 -0.2990 -0.0965
 7137TIP3    H145606   7.603   3.247  12.800  3.4365 -0.8766  1.3285
 7137TIP3    H245607   7.522   3.127  12.846 -1.8848  1.1411 -1.8887
 7138TIP3   OH245608   2.491   0.397  11.332  0.7830  0.1508 -0.5329
 7138TIP3    H145609   2.412   0.449  11.324  0.3839 -0.3477  0.0737
 7138TIP3    H245610   2.470   0.314  11.289  0.0449 -0.9692  1.7768
 7139TIP3   OH245611   4.530   3.183  10.737  0.0779  0.5793  0.0845
 7139TIP3    H145612   4.501   3.246  10.802  1.3602  2.3424 -0.9448
 7139TIP3    H245613   4.599   3.228  10.689 -0.0880 -1.0172 -1.8146
 7140TIP3   OH245614   2.103   4.320  12.284  0.2457  0.3936  0.3057
 7140TIP3    H145615   2.076   4.266  12.359  0.6946 -0.9548 -0.4775
 7140TIP3    H245616   2.195   4.299  12.271  0.2230  0.7593 -0.5060
 7141TIP3   OH245617   0.164   2.615  11.412 -0.2965  0.0030  0.0472
 7141TIP3    H145618   0.096   2.671  11.449 -1.7323 -0.2562 -1.9927
 7141TIP3    H245619   0.243   2.670  11.410 -0.5068  0.4347  2.1077
 7142TIP3   OH245620   3.625   6.255  12.517 -0.1247 -0.2538 -0.2535
 7142TIP3    H145621   3.687   6.319  12.552 -3.5865  2.1572  2.0907
 7142TIP3    H245622   3.619   6.188  12.585  0.3763 -0.9085 -0.8303
 7143TIP3   OH245623   4.895   1.252  10.876  0.2941  0.0065 -0.0818
 7143TIP3    H145624   4.977   1.228  10.832 -0.0497 -0.7448 -0.3366
 7143TIP3    H245625   4.829   1.249  10.807 -0.5668 -2.8256  0.7102
 7144TIP3   OH245626   2.280   2.982  11.623 -0.1150  0.3145 -0.2302
 7144TIP3    H145627   2.367   2.952  11.649 -1.0027 -0.4739  2.0767
 7144TIP3    H245628   2.239   3.010  11.705 -1.8338  1.2717 -1.3496
 7145TIP3   OH245629   2.498   4.899  12.859  0.0138 -0.3369  0.1711
 7145TIP3    H145630   2.460   4.845  12.928  1.1777 -0.7703  0.5037
 7145TIP3    H245631   2.587   4.864  12.848  0.3448  0.6754 -0.5219
 7146TIP3   OH245632   1.997   5.340  10.660  0.0563  0.0318  0.1671
 7146TIP3    H145633   1.923   5.367  10.607  0.5009 -0.2843 -0.6325
 7146TIP3    H245634   2.058   5.414  10.656  0.4831 -0.3458 -0.5254
 7147TIP3   OH245635   3.323   5.019  12.807  0.4236  0.0928  0.4055
 7147TIP3    H145636   3.283   5.102  12.832 -0.4236 -0.4952  1.0380
 7147TIP3    H245637   3.415   5.041  12.789  0.4475  0.9782  1.5457
 7148TIP3   OH245638   8.068   6.337  12.216 -0.4673 -0.1292 -0.0980
 7148TIP3    H145639   8.030   6.421  12.244 -0.4332 -0.5571  1.3398
 7148TIP3    H245640   8.118   6.308  12.292 -0.4244 -1.4267 -0.6063
 7149TIP3   OH245641   0.872   1.846  11.012 -0.2114 -0.5084 -0.4692
 7149TIP3    H145642   0.801   1.782  11.012  0.4478 -1.2827 -1.9019
 7149TIP3    H245643   0.911   1.839  10.925  2.8279 -1.4694  0.8556
 7150TIP3   OH245644   6.198   2.870  10.511  0.5638 -0.3150  0.3137
 7150TIP3    H145645   6.254   2.940  10.479  1.7696 -0.7945  1.3145
 7150TIP3    H245646   6.113   2.886  10.469  1.3311  0.6385 -0.9370
 7151TIP3   OH245647   1.883   2.772  12.209 -0.2205 -0.1751 -0.7936
 7151TIP3    H145648   1.798   2.754  12.249 -0.3927  2.9352  0.5068
 7151TIP3    H245649   1.946   2.735  12.272 -0.5633  2.4297  1.2306
 7152TIP3   OH245650   2.057   2.401  12.452  0.0784  0.2217 -0.3727
 7152TIP3    H145651   2.061   2.311  12.486 -1.3990  0.2123 -0.1674
 7152TIP3    H245652   2.073   2.456  12.529 -0.1695  0.1515 -0.2708
 7153TIP3   OH245653   0.879   0.742  10.905 -0.1938  0.2032 -0.0534
 7153TIP3    H145654   0.964   0.728  10.947  0.7504  2.2676 -1.1406
 7153TIP3    H245655   0.870   0.837  10.901 -2.5849  0.0334  0.0319
 7154TIP3   OH245656   1.349   5.842  11.883 -0.1238  0.4514  0.6584
 7154TIP3    H145657   1.268   5.860  11.930  0.7740 -0.6187  2.7436
 7154TIP3    H245658   1.347   5.748  11.866  1.0654  0.2497  1.5351
 7155TIP3   OH245659   7.119   1.939  10.602 -0.0731  0.0364 -0.3655
 7155TIP3    H145660   7.126   1.998  10.678 -1.9035 -1.9673  1.5187
 7155TIP3    H245661   7.201   1.890  10.602  1.4357  2.3472 -1.8970
 7156TIP3   OH245662   8.186   3.151  12.321  0.3644  0.0787 -0.4666
 7156TIP3    H145663   8.257   3.088  12.312  0.4273 -0.4629  2.6740
 7156TIP3    H245664   8.227   3.236  12.309  1.2243 -0.3076 -0.2870
 7157TIP3   OH245665   5.133   7.381  11.311 -0.2826  0.2996 -0.2253
 7157TIP3    H145666   5.099   7.315  11.250 -0.7563  0.1333  0.2070
 7157TIP3    H245667   5.115   7.345  11.398  0.1339  0.6599  0.0157
 7158TIP3   OH245668   1.373   4.792  11.386  0.3504  0.6483 -0.5774
 7158TIP3    H145669   1.396   4.701  11.370  3.3598  1.4070 -1.1906
 7158TIP3    H245670   1.307   4.789  11.456  2.0322 -1.9055  1.0496
 7159TIP3   OH245671   3.418   5.037  11.260 -0.0550 -0.3453 -0.5895
 7159TIP3    H145672   3.486   4.985  11.216  0.7945  0.2467 -0.0101
 7159TIP3    H245673   3.341   4.980  11.259  0.9843 -1.8716  0.4953
 7160TIP3   OH245674   3.036   6.874  11.765 -0.0845 -0.1885  0.5199
 7160TIP3    H145675   2.999   6.909  11.845  0.2061  0.2517  0.4612
 7160TIP3    H245676   3.016   6.939  11.698 -2.2473 -1.5128 -0.2471
 7161TIP3   OH245677   0.531   6.935  11.262 -0.1344  0.8189  0.2761
 7161TIP3    H145678   0.461   6.994  11.234 -1.5622 -0.7894  0.2646
 7161TIP3    H245679   0.548   6.960  11.353  0.9348  2.7121 -0.3908
 7162TIP3   OH245680   4.208   6.810  11.151  0.2790  0.0737  0.0555
 7162TIP3    H145681   4.114   6.825  11.143  0.0307  0.3935  2.5981
 7162TIP3    H245682   4.247   6.865  11.084 -1.2561  1.6867  0.4221
 7163TIP3   OH245683   5.974   1.809  11.848  0.3339 -0.1965 -0.8150
 7163TIP3    H145684   5.936   1.794  11.761 -0.9090  0.1844 -0.3583
 7163TIP3    H245685   5.960   1.903  11.864  0.9368 -0.1783 -0.3728
 7164TIP3   OH245686   2.716   5.120  10.953 -0.2415 -0.1397  0.3496
 7164TIP3    H145687   2.651   5.107  10.884 -0.6797 -0.3048  0.7887
 7164TIP3    H245688   2.763   5.199  10.927 -1.3365  0.6133  0.5705
 7165TIP3   OH245689   0.848   5.238  11.523 -0.0186  0.4209 -0.1705
 7165TIP3    H145690   0.902   5.311  11.495  1.4192 -1.3114 -2.2237
 7165TIP3    H245691   0.769   5.244  11.470  0.2479  0.3327 -0.5851
 7166TIP3   OH245692   4.214   3.004  11.396 -0.1045  0.0105 -0.2163
 7166TIP3    H145693   4.243   2.913  11.406  0.7066  0.4990  2.8155
 7166TIP3    H245694   4.293   3.056  11.412 -1.0171  1.2521  0.4178
 7167TIP3   OH245695   3.174   4.313  10.582 -0.0369 -0.1944 -0.2243
 7167TIP3    H145696   3.103   4.374  10.605  0.9452  0.4517  1.2253
 7167TIP3    H245697   3.227   4.362  10.519  0.7021  0.4734  0.8726
 7168TIP3   OH245698   3.578   4.291  11.501 -0.1306  0.4706  0.2498
 7168TIP3    H145699   3.618   4.375  11.483  1.2412 -0.2544 -0.2129
 7168TIP3    H245700   3.489   4.299  11.465 -0.3008  1.9540  0.9258
 7169TIP3   OH245701   7.137   6.878  11.050  0.5862 -0.5611 -0.0955
 7169TIP3    H145702   7.062   6.925  11.013  0.5783  0.3713  1.0244
 7169TIP3    H245703   7.106   6.789  11.062  0.8768 -1.1850 -3.1096
 7170TIP3   OH245704   2.677   3.895  12.753  0.0879 -0.1263  0.7973
 7170TIP3    H145705   2.614   3.854  12.813  0.3429 -1.2905  0.3107
 7170TIP3    H245706   2.635   3.976  12.726 -1.0426 -0.6889  0.7939
 7171TIP3   OH245707   5.235   2.323  12.072 -0.3594 -0.1920  0.2289
 7171TIP3    H145708   5.182   2.259  12.026 -1.1477  1.4676 -1.3112
 7171TIP3    H245709   5.202   2.323  12.162  0.3606 -2.6032  0.5516
 7172TIP3   OH245710   1.155   4.391  11.932 -0.4375 -0.3517  0.4865
 7172TIP3    H145711   1.116   4.460  11.985 -1.3661 -0.4817 -0.0167
 7172TIP3    H245712   1.103   4.388  11.853 -0.2065 -1.4064  0.3524
 7173TIP3   OH245713   4.621   2.037  11.705  0.1834 -0.3117  0.1579
 7173TIP3    H145714   4.630   2.052  11.611 -1.0104  0.3019  0.1241
 7173TIP3    H245715   4.563   2.108  11.735 -0.1741 -1.0239  1.1889
 7174TIP3   OH245716   3.509   0.667  12.901 -0.2309  0.1282  0.5197
 7174TIP3    H145717   3.457   0.588  12.914  2.0317 -1.3762  1.1199
 7174TIP3    H245718   3.562   0.648  12.823  1.7320  0.1751  1.7685
 7175TIP3   OH245719   0.784   2.486  11.624 -0.6013 -0.1059  0.1875
 7175TIP3    H145720   0.728   2.467  11.548  1.1406  1.5815 -1.6465
 7175TIP3    H245721   0.760   2.576  11.649  0.7092  0.3657 -0.1635
 7176TIP3   OH245722   4.848   4.057  10.973 -0.1153  0.5572 -0.1099
 7176TIP3    H145723   4.861   4.101  10.889  1.0450  0.3826 -0.0403
 7176TIP3    H245724   4.937   4.034  11.001 -0.3120  1.9932  1.9102
 7177TIP3   OH245725   6.588   2.190  11.050 -0.1572 -0.0137 -0.0671
 7177TIP3    H145726   6.660   2.250  11.030  0.7251 -0.2993  1.9695
 7177TIP3    H245727   6.630   2.117  11.096 -1.8610  0.4371  2.3736
 7178TIP3   OH245728   3.680   6.928  10.905 -0.2019 -0.2177  0.2186
 7178TIP3    H145729   3.728   6.847  10.920 -0.7719 -0.4188  0.9797
 7178TIP3    H245730   3.592   6.911  10.939 -0.5291  0.4828 -0.2521
 7179TIP3   OH245731   3.222   8.088  11.686 -1.3006 -0.0448 -0.0984
 7179TIP3    H145732   3.152   8.047  11.737 -1.7339 -1.5069 -1.7654
 7179TIP3    H245733   3.184   8.171  11.656 -2.3654 -0.8166 -0.9822
 7180TIP3   OH245734   4.114   8.044  11.008  0.3250  0.5843 -0.0380
 7180TIP3    H145735   4.074   8.129  11.026  2.1271  1.1964  1.3052
 7180TIP3    H245736   4.195   8.065  10.961 -0.5702 -0.6064 -2.3206
 7181TIP3   OH245737   1.789   0.384  11.700  0.2808  0.6772 -0.1046
 7181TIP3    H145738   1.763   0.384  11.792  0.5290  0.3457 -0.0338
 7181TIP3    H245739   1.719   0.432  11.655  0.1773  0.8694  0.2608
 7182TIP3   OH245740   4.288   4.570  11.731  0.3952 -0.2751 -0.8399
 7182TIP3    H145741   4.371   4.528  11.707 -1.5915 -3.8558 -2.1156
 7182TIP3    H245742   4.242   4.581  11.648 -1.3296 -0.4617  0.0624
 7183TIP3   OH245743   7.884   5.526  11.171  0.1982 -0.1829  0.4440
 7183TIP3    H145744   7.939   5.479  11.234  0.0369  0.6209  1.1934
 7183TIP3    H245745   7.845   5.597  11.221 -1.3075 -0.5561 -0.1478
 7184TIP3   OH245746   6.077   7.398  11.380 -0.0819  0.3345 -0.7097
 7184TIP3    H145747   6.112   7.311  11.358  0.9918  0.8325 -1.0396
 7184TIP3    H245748   5.986   7.382  11.404  0.0816 -0.8752 -0.8448
 7185TIP3   OH245749   0.835   4.006  12.573  0.5854  0.0866 -0.2869
 7185TIP3    H145750   0.900   3.970  12.634 -0.6675  0.8210  1.5803
 7185TIP3    H245751   0.876   4.085  12.538  1.1497 -0.0827 -0.0227
 7186TIP3   OH245752   6.418   7.041  11.205  0.2342 -0.2829 -0.3134
 7186TIP3    H145753   6.508   7.013  11.191  0.0138 -1.4560  0.4811
 7186TIP3    H245754   6.380   6.973  11.260 -1.0042  0.4397 -0.2386
 7187TIP3   OH245755   5.536   3.188  11.086 -0.0025 -0.7112  0.1567
 7187TIP3    H145756   5.502   3.254  11.146 -0.4548 -0.7879 -0.0103
 7187TIP3    H245757   5.630   3.184  11.105  0.3721  1.1920 -0.9592
 7188TIP3   OH245758   3.561   2.372  11.225  0.0086  0.1013 -0.4899
 7188TIP3    H145759   3.548   2.279  11.208 -0.4273 -0.3005  1.7457
 7188TIP3    H245760   3.475   2.411  11.214 -0.2968 -0.1781  0.6957
 7189TIP3   OH245761   3.029   1.940  11.650 -0.0822 -0.0611 -0.5423
 7189TIP3    H145762   3.019   1.934  11.745  0.8950  3.0083 -0.1595
 7189TIP3    H245763   3.122   1.954  11.636  0.2451 -2.9903 -2.2540
 7190TIP3   OH245764   5.955   7.122  11.358  0.4572 -0.3507  0.2233
 7190TIP3    H145765   5.932   7.104  11.450  2.4654 -1.7154  0.5329
 7190TIP3    H245766   5.903   7.059  11.308 -0.8307  0.5626  0.3691
 7191TIP3   OH245767   7.408   1.656  12.085 -0.1913  0.6784 -0.0379
 7191TIP3    H145768   7.433   1.719  12.152 -0.1216  1.6627 -0.9654
 7191TIP3    H245769   7.449   1.689  12.004 -1.1129  0.0842 -0.7671
 7192TIP3   OH245770   6.840   1.571  12.027 -0.5819 -0.5807  0.2538
 7192TIP3    H145771   6.815   1.524  11.948  0.0272 -1.0088  0.3092
 7192TIP3    H245772   6.934   1.554  12.036 -0.4404  0.2754  0.5247
 7193TIP3   OH245773   8.135   5.721  11.267 -0.2211  0.1559 -0.1732
 7193TIP3    H145774   8.109   5.656  11.333  0.0843  0.3664  0.1604
 7193TIP3    H245775   8.111   5.805  11.306  0.1768  0.2975 -0.2255
 7194TIP3   OH245776   3.332   1.875  11.803  0.1505 -0.3714 -0.0094
 7194TIP3    H145777   3.264   1.851  11.866  0.5731  0.3262  0.7309
 7194TIP3    H245778   3.405   1.904  11.857  0.2345  1.0187 -0.8281
 7195TIP3   OH245779   3.989   5.010  11.699 -0.2489 -0.5228 -0.2132
 7195TIP3    H145780   3.917   5.045  11.646  0.4466 -0.7293 -1.3398
 7195TIP3    H245781   4.038   4.954  11.638  0.0655 -1.4952  0.9031
 7196TIP3   OH245782   0.083   4.035  11.098 -0.1061 -0.5665 -1.0772
 7196TIP3    H145783   0.049   4.064  11.183  2.3066  0.0905 -0.2317
 7196TIP3    H245784   0.095   3.941  11.107 -0.7266 -0.6390 -1.0169
 7197TIP3   OH245785   5.485   4.077  11.524 -0.1009 -0.3537  0.0714
 7197TIP3    H145786   5.437   4.010  11.475  1.4530 -2.0160  0.7126
 7197TIP3    H245787   5.549   4.112  11.461 -1.1082  0.7917 -0.3507
 7198TIP3   OH245788   7.184   4.101  11.948  0.0047  0.3542 -0.3306
 7198TIP3    H145789   7.124   4.109  12.022  0.8780 -0.0284  0.4583
 7198TIP3    H245790   7.259   4.052  11.984  0.3294 -0.0801 -1.5482
 7199TIP3   OH245791   2.296   4.165  11.914 -0.3631 -0.5126  0.2478
 7199TIP3    H145792   2.368   4.227  11.900  0.2562 -1.3043 -0.1275
 7199TIP3    H245793   2.333   4.098  11.971 -0.1531 -2.0045 -1.5706
 7200TIP3   OH245794   4.882   3.348  11.703  0.2256 -0.5505  0.1217
 7200TIP3    H145795   4.889   3.435  11.663  0.1137 -1.2344 -1.4558
 7200TIP3    H245796   4.931   3.356  11.785  0.6460  0.8617 -0.2307
 7201TIP3   OH245797   4.857   5.491  11.929  0.2402  0.2124  0.8216
 7201TIP3    H145798   4.784   5.438  11.962  0.4666  0.2767  1.4329
 7201TIP3    H245799   4.825   5.527  11.846 -0.3052 -0.0139  0.9315
 7202TIP3   OH245800   7.255   2.278  12.546 -0.0966 -0.0443  0.0583
 7202TIP3    H145801   7.206   2.211  12.498 -0.3209 -0.3875  0.7401
 7202TIP3    H245802   7.191   2.347  12.563  0.2679  0.5962 -1.1005
 7203TIP3   OH245803   4.803   6.666  11.766 -0.7232  0.4661  0.3415
 7203TIP3    H145804   4.798   6.591  11.826 -2.1058  1.0800  1.0470
 7203TIP3    H245805   4.857   6.730  11.813  0.2564  0.0335 -0.1594
 7204TIP3   OH245806   1.532   3.816  12.512 -0.2464 -1.1890  0.1717
 7204TIP3    H145807   1.518   3.741  12.570  0.5212 -0.1931  1.7009
 7204TIP3    H245808   1.627   3.820  12.501 -0.3318 -0.8530 -0.4753
 7205TIP3   OH245809   7.251   6.835  11.569 -0.2378  0.1941 -0.0100
 7205TIP3    H145810   7.168   6.787  11.572 -2.0789  3.1068 -0.5745
 7205TIP3    H245811   7.252   6.886  11.650 -0.2272  1.9414 -1.0468
 7206TIP3   OH245812   5.630   2.371  11.795  1.4005 -0.2184  0.2393
 7206TIP3    H145813   5.681   2.404  11.721  1.7147  0.9516  0.9389
 7206TIP3    H245814   5.540   2.366  11.762  1.6799 -0.6307 -0.4907
 7207TIP3   OH245815   2.202   4.039  10.706  0.2599  0.2823  0.1961
 7207TIP3    H145816   2.201   3.991  10.623 -0.6516  1.0262 -0.2472
 7207TIP3    H245817   2.201   3.971  10.773  0.6308 -0.3253 -0.4085
 7208TIP3   OH245818   2.213   3.778  10.833 -0.8661  0.5802  0.3819
 7208TIP3    H145819   2.212   3.770  10.928 -1.0915 -0.4746  0.3040
 7208TIP3    H245820   2.138   3.728  10.803 -0.2604  0.1045 -0.4047
 7209TIP3   OH245821   4.963   8.324  11.544 -0.1446  0.0227 -0.5031
 7209TIP3    H145822   4.973   8.228  11.546  0.2601  0.0695 -0.2400
 7209TIP3    H245823   4.895   8.339  11.478  1.2189 -0.3317 -2.0547
 7210TIP3   OH245824   6.395   6.482  11.388  0.2288 -0.0862 -0.0824
 7210TIP3    H145825   6.377   6.430  11.467  2.1159 -1.0886 -0.2552
 7210TIP3    H245826   6.478   6.448  11.355  2.1244  3.6432  0.3121
 7211TIP3   OH245827   0.152   4.823  11.268  0.4981  0.2772 -0.6203
 7211TIP3    H145828   0.237   4.814  11.310  0.1390  1.3956  0.4074
 7211TIP3    H245829   0.111   4.897  11.313 -1.0411 -0.2887 -1.0400
 7212TIP3   OH245830   5.615   6.062  12.413  0.2206 -0.2144 -0.6265
 7212TIP3    H145831   5.638   6.055  12.506 -2.5643 -0.7147  0.1234
 7212TIP3    H245832   5.654   5.985  12.372 -0.0842 -0.9970  0.5189
 7213TIP3   OH245833   7.311   2.981  11.856  0.2027  0.3865 -0.2252
 7213TIP3    H145834   7.371   2.963  11.784  0.9718  1.0934  0.2148
 7213TIP3    H245835   7.249   2.909  11.855  0.2397  0.3633 -1.5565
 7214TIP3   OH245836   7.388   3.027  10.500 -0.1024 -0.4573 -0.0489
 7214TIP3    H145837   7.464   3.057  10.448  0.4805  0.8827  1.4852
 7214TIP3    H245838   7.381   2.934  10.481  2.1196 -0.6778 -0.0475
 7215TIP3   OH245839   4.592   3.460  11.873 -0.1432  0.0383 -0.4699
 7215TIP3    H145840   4.518   3.470  11.933 -0.9837  0.9523 -1.6299
 7215TIP3    H245841   4.668   3.491  11.924 -0.3217 -1.8793  1.0963
 7216TIP3   OH245842   8.249   8.337  11.557 -0.1986 -0.0340 -0.5373
 7216TIP3    H145843   8.304   8.267  11.592 -2.0766 -0.8145  0.9819
 7216TIP3    H245844   8.170   8.293  11.526 -0.2974  1.1393 -2.1137
 7217TIP3   OH245845   0.435   5.921  12.064 -0.2277 -0.4250  0.1206
 7217TIP3    H145846   0.487   5.967  12.130 -0.2484 -2.1958  1.4440
 7217TIP3    H245847   0.488   5.925  11.984  0.7128  0.0424  0.7520
 7218TIP3   OH245848   3.194   3.179  11.952 -0.7155  0.4694  0.2525
 7218TIP3    H145849   3.196   3.230  11.871 -0.8794 -1.0171 -0.7075
 7218TIP3    H245850   3.243   3.100  11.933 -0.5466  0.1947  1.6934
 7219TIP3   OH245851   7.702   8.368  12.829  0.1765  0.1286  0.0306
 7219TIP3    H145852   7.608   8.382  12.845  0.1120  1.3073 -1.1966
 7219TIP3    H245853   7.746   8.435  12.881  0.2339  0.6058 -0.6151
 7220TIP3   OH245854   6.122   2.152  10.542 -0.2519 -0.3783  0.1592
 7220TIP3    H145855   6.189   2.112  10.487  0.1729 -1.2033  1.2327
 7220TIP3    H245856   6.167   2.223  10.588 -0.2895 -0.4785  0.3532
 7221TIP3   OH245857   4.448   1.513  11.636 -0.2216  0.0415 -0.1397
 7221TIP3    H145858   4.500   1.450  11.685  2.1424  0.7672 -1.5308
 7221TIP3    H245859   4.361   1.473  11.630  0.3920 -1.6963  1.4685
 7222TIP3   OH245860   6.922   3.030  11.052  0.0371  0.4424 -0.3647
 7222TIP3    H145861   6.898   2.993  10.967  0.5802 -1.2743  0.1803
 7222TIP3    H245862   6.941   2.953  11.107 -0.5113  1.4921  1.3780
 7223TIP3   OH245863   5.943   4.121  11.959  0.0183 -0.2952  0.1197
 7223TIP3    H145864   6.005   4.104  12.029  1.6327  0.7028 -0.9887
 7223TIP3    H245865   5.931   4.216  11.960 -0.5557 -0.3486 -0.4443
 7224TIP3   OH245866   8.032   0.470  10.732 -0.0441  0.7030 -0.3491
 7224TIP3    H145867   8.035   0.566  10.736  1.5088  0.6632  0.0393
 7224TIP3    H245868   7.959   0.450  10.673 -1.8087  2.0786  1.2316
 7225TIP3   OH245869   3.800   3.625  11.703  0.4432  0.0425  0.2991
 7225TIP3    H145870   3.748   3.704  11.721  0.9613  0.6042 -0.6284
 7225TIP3    H245871   3.816   3.627  11.609 -0.7153 -1.9114 -0.0215
 7226TIP3   OH245872   5.009   7.213  10.783 -0.0988 -0.2791  0.1324
 7226TIP3    H145873   4.928   7.251  10.750  0.8930  1.2976 -0.6110
 7226TIP3    H245874   5.058   7.189  10.705 -0.1969 -2.0747  0.5787
 7227TIP3   OH245875   7.514   0.674  11.352  0.1078 -0.0889  0.2269
 7227TIP3    H145876   7.427   0.649  11.384  0.2310  0.7487  1.2549
 7227TIP3    H245877   7.563   0.592  11.349 -0.9479 -0.7280 -1.2130
 7228TIP3   OH245878   2.996   4.806  11.152  0.2699 -0.8502  0.1882
 7228TIP3    H145879   2.925   4.753  11.116 -0.2880  0.8153 -1.3810
 7228TIP3    H245880   2.966   4.897  11.140  2.3478 -0.1135  0.1346
 7229TIP3   OH245881   4.629   7.851  12.182  0.6519  0.4462  0.3328
 7229TIP3    H145882   4.533   7.856  12.184  0.7246  2.4266  2.1525
 7229TIP3    H245883   4.658   7.942  12.179  2.4916 -0.0819  0.8675
 7230TIP3   OH245884   2.115   6.240  12.074 -0.7789 -0.3362 -0.1870
 7230TIP3    H145885   2.132   6.207  11.985  0.2502  0.6010 -0.3616
 7230TIP3    H245886   2.177   6.193  12.129  0.3810  0.9137 -0.3704
 7231TIP3   OH245887   1.144   3.046  10.884  0.5445  0.3088  0.0412
 7231TIP3    H145888   1.234   3.044  10.851  0.1843  0.8816 -1.0219
 7231TIP3    H245889   1.127   2.957  10.915  1.4357  0.1726  0.1466
 7232TIP3   OH245890   8.297   1.719  11.346  1.1237  0.4421  0.4389
 7232TIP3    H145891   8.263   1.693  11.261 -0.7121  0.0626  1.2491
 7232TIP3    H245892   8.302   1.815  11.342  0.4285  0.4669  0.1352
 7233TIP3   OH245893   5.343   6.670  10.653  0.8043 -0.6203  0.6404
 7233TIP3    H145894   5.338   6.621  10.571  2.5252  0.0305  0.1177
 7233TIP3    H245895   5.306   6.755  10.632  0.3155 -0.7791  0.8319
 7234TIP3   OH245896   0.822   0.158  10.478  0.1589 -0.2696 -0.4780
 7234TIP3    H145897   0.773   0.076  10.473  0.1141 -0.2125 -1.0807
 7234TIP3    H245898   0.878   0.149  10.555 -1.0026 -0.2301  0.4038
 7235TIP3   OH245899   2.948   7.955  11.536  0.1032  0.0049  0.5687
 7235TIP3    H145900   3.018   7.915  11.485  1.3693  1.1085  1.3616
 7235TIP3    H245901   2.989   7.976  11.620 -1.0253  1.1877  0.8624
 7236TIP3   OH245902   6.149   4.706  10.543  0.2795  0.4065  0.5168
 7236TIP3    H145903   6.155   4.611  10.534  0.0014  0.0660  3.0600
 7236TIP3    H245904   6.230   4.739  10.505  1.1785 -1.0142  1.1100
 7237TIP3   OH245905   5.777   5.877  10.863  0.4242 -0.1905  0.0769
 7237TIP3    H145906   5.729   5.923  10.932 -0.5515  0.3191 -0.9143
 7237TIP3    H245907   5.723   5.801  10.842  0.3231  0.0775 -0.6546
 7238TIP3   OH245908   1.445   5.743  12.220 -0.4106 -0.1975  0.4830
 7238TIP3    H145909   1.378   5.810  12.205  0.6355  0.7400 -0.1802
 7238TIP3    H245910   1.493   5.775  12.297 -0.0927 -0.3362  0.3428
 7239TIP3   OH245911   2.105   4.907  12.501  0.1770 -0.0673 -0.1507
 7239TIP3    H145912   2.134   4.997  12.482 -0.1742 -0.1599 -1.1487
 7239TIP3    H245913   2.157   4.882  12.578  0.7016  0.7831 -0.2077
 7240TIP3   OH245914   8.023   5.950  11.342 -0.2177 -0.4616  0.2641
 7240TIP3    H145915   8.012   6.039  11.376  0.3796 -0.4196  0.3525
 7240TIP3    H245916   7.998   5.957  11.250 -1.7136 -0.5454  0.6352
 7241TIP3   OH245917   5.594   7.414  11.124 -0.2142  0.5821 -0.2922
 7241TIP3    H145918   5.599   7.340  11.185  2.3678  1.2893  0.4819
 7241TIP3    H245919   5.541   7.382  11.051  0.2544 -1.7979  0.3350
 7242TIP3   OH245920   4.982   7.905  12.186  0.5728 -0.5820 -0.4426
 7242TIP3    H145921   4.942   7.845  12.249 -0.0967 -0.6358 -0.9042
 7242TIP3    H245922   4.959   7.992  12.217 -1.8680 -0.6179 -1.8809
 7243TIP3   OH245923   3.070   8.323  11.604 -0.2067  0.0944  0.0413
 7243TIP3    H145924   3.018   8.299  11.527  0.0079  2.0174 -0.7541
 7243TIP3    H245925   3.014   8.384  11.652  0.8675  1.4146 -0.3058
 7244TIP3   OH245926   8.423   7.840  11.162 -0.2135 -0.2091  0.1305
 7244TIP3    H145927   8.443   7.912  11.102  3.1851 -0.9685  0.1310
 7244TIP3    H245928   8.410   7.882  11.247  2.5507  0.4564  0.3028
 7245TIP3   OH245929   0.136   4.994  11.715  0.2332 -0.9544 -0.3335
 7245TIP3    H145930   0.156   4.914  11.667  0.6619 -0.6243 -0.7103
 7245TIP3    H245931   0.216   5.046  11.710 -0.1226 -0.3970 -0.3022
 7246TIP3   OH245932   3.638   5.791  12.005 -0.1841  0.3246 -0.3448
 7246TIP3    H145933   3.717   5.737  12.003  0.7523  1.5633  1.2263
 7246TIP3    H245934   3.661   5.869  11.955 -0.6125  0.4443 -0.3590
 7247TIP3   OH245935   0.841   5.296  11.166 -0.6613 -0.4325  0.0022
 7247TIP3    H145936   0.835   5.237  11.091 -1.0454  0.0372 -0.3416
 7247TIP3    H245937   0.927   5.337  11.158  0.1034 -1.7829  0.8861
 7248TIP3   OH245938   0.840   5.622  10.633  0.0456  0.2637  0.2718
 7248TIP3    H145939   0.861   5.556  10.568 -1.8985  1.0151 -1.2038
 7248TIP3    H245940   0.745   5.614  10.646  0.4565 -0.6234  3.9192
 7249TIP3   OH245941   1.682   3.294  10.922  0.4257 -0.1972 -0.3841
 7249TIP3    H145942   1.771   3.309  10.955  0.0385  0.6340  0.3146
 7249TIP3    H245943   1.633   3.372  10.949 -0.5823 -0.7614 -0.5534
 7250TIP3   OH245944   6.178   1.704  11.220  0.1826 -0.1395 -0.1522
 7250TIP3    H145945   6.256   1.651  11.205 -0.8536 -1.4159 -1.2725
 7250TIP3    H245946   6.166   1.753  11.138 -1.2880 -1.4687 -0.7732
 7251TIP3   OH245947   6.549   6.428  11.829 -0.2261  0.1390 -0.0242
 7251TIP3    H145948   6.466   6.430  11.780 -0.9561 -0.0550  1.1716
 7251TIP3    H245949   6.585   6.516  11.818 -0.0686 -0.0694 -1.3897
 7252TIP3   OH245950   5.804   4.785  10.366 -0.3412 -0.2669 -0.1881
 7252TIP3    H145951   5.891   4.750  10.345 -0.0000  1.1729 -1.3463
 7252TIP3    H245952   5.777   4.737  10.444  1.9581 -0.0028  0.8565
 7253TIP3   OH245953   1.305   3.047  11.194 -0.6504  0.2892 -0.3387
 7253TIP3    H145954   1.358   3.105  11.248 -0.0860  0.4601 -1.0556
 7253TIP3    H245955   1.368   3.007  11.133 -1.3166  0.3977 -1.1183
 7254TIP3   OH245956   6.930   6.066  10.965  0.4890 -0.7821 -0.1249
 7254TIP3    H145957   6.835   6.071  10.966  0.5366  0.5166 -0.7556
 7254TIP3    H245958   6.955   6.066  11.058 -0.1718 -3.0592  0.1084
 7255TIP3   OH245959   3.986   7.014  11.182  0.4125  0.2308 -0.0077
 7255TIP3    H145960   4.039   7.092  11.200  0.3486  0.2027  0.3216
 7255TIP3    H245961   3.906   7.048  11.143  0.1496  0.3800  0.6517
 7256TIP3   OH245962   6.361   2.404  11.406 -0.1991  0.2408  0.1707
 7256TIP3    H145963   6.451   2.437  11.414 -0.5809  1.3196  0.2517
 7256TIP3    H245964   6.307   2.472  11.448 -1.1301  0.0209 -0.6388
 7257TIP3   OH245965   0.030   7.426  12.364  0.0073  0.3722 -0.5261
 7257TIP3    H145966   0.009   7.335  12.342  0.6103 -0.0189  0.4819
 7257TIP3    H245967   0.125   7.429  12.365 -0.0049  0.6594  0.8736
 7258TIP3   OH245968   2.998   7.173  10.508 -0.0447  0.2736 -0.1042
 7258TIP3    H145969   2.930   7.131  10.456 -1.5889 -1.4452  2.9784
 7258TIP3    H245970   2.950   7.223  10.574  1.6351 -0.3058  1.6489
 7259TIP3   OH245971   8.114   1.113  11.335 -0.0028 -0.4780  0.2761
 7259TIP3    H145972   8.147   1.023  11.333  0.8705 -0.1962  0.9525
 7259TIP3    H245973   8.156   1.155  11.260  0.5494 -0.3361  0.6557
 7260TIP3   OH245974   0.204   5.310  10.550 -0.5188 -0.0145 -0.5082
 7260TIP3    H145975   0.208   5.325  10.645  0.3305 -0.2364 -0.4996
 7260TIP3    H245976   0.119   5.269  10.536 -0.8029  0.3368  0.1090
 7261TIP3   OH245977   6.007   2.699  12.742  0.0437 -0.0239 -0.0606
 7261TIP3    H145978   5.994   2.632  12.675  2.1734  1.2510 -1.9485
 7261TIP3    H245979   6.059   2.656  12.810 -2.2138 -1.3641  0.9301
 7262TIP3   OH245980   4.319   0.026  11.176 -0.8156  0.1503  0.0424
 7262TIP3    H145981   4.266   0.008  11.254 -0.8633  1.3687  0.3062
 7262TIP3    H245982   4.257   0.017  11.103 -0.6592 -1.4857  0.0752
 7263TIP3   OH245983   6.011   8.416  11.374  0.6691  0.0128  0.4337
 7263TIP3    H145984   6.099   8.379  11.369  0.6146  0.0034 -0.8182
 7263TIP3    H245985   6.021   8.507  11.346  0.2249 -0.1065 -0.1488
 7264TIP3   OH245986   3.360   8.270  10.835 -0.7818 -0.1223 -0.2608
 7264TIP3    H145987   3.405   8.336  10.782  1.0425 -1.3503 -0.3197
 7264TIP3    H245988   3.300   8.320  10.889 -0.9442  1.3985 -1.7460
 7265TIP3   OH245989   7.577   7.122  16.139  0.2379 -0.1936  0.3720
 7265TIP3    H145990   7.624   7.202  16.116 -0.9064  0.3176 -0.2862
 7265TIP3    H245991   7.496   7.126  16.089  1.0798 -2.8421 -1.4374
 7266TIP3   OH245992   2.548   5.368  11.206 -0.1147 -0.1476  0.3647
 7266TIP3    H145993   2.535   5.400  11.117 -0.9221  0.4535  0.6873
 7266TIP3    H245994   2.502   5.431  11.261 -1.2757 -1.5396  1.0696
 7267TIP3   OH245995   2.538   4.586  12.195 -0.1259  0.1561 -0.2850
 7267TIP3    H145996   2.594   4.641  12.250 -0.6110  1.3171 -0.9305
 7267TIP3    H245997   2.451   4.625  12.202 -0.3626 -0.1775 -1.2168
 7268TIP3   OH245998   4.706   1.274  11.083 -0.4940 -0.0979  0.6080
 7268TIP3    H145999   4.795   1.260  11.051 -0.6854 -1.1956  0.5054
 7268TIP3    H246000   4.651   1.264  11.005 -0.7246  0.4590  0.6921
 7269TIP3   OH246001   8.402   2.210  11.174 -0.1238  0.3782  0.6114
 7269TIP3    H146002   8.476   2.269  11.158 -0.8436  1.2328  0.3739
 7269TIP3    H246003   8.367   2.238  11.258 -1.5351  1.4532 -0.2997
 7270TIP3   OH246004   7.166   2.732  11.858 -0.6482  0.3076 -0.4788
 7270TIP3    H146005   7.141   2.730  11.950 -0.5154 -2.1701 -0.4198
 7270TIP3    H246006   7.219   2.653  11.846 -1.4898  0.0269 -2.8782
 7271TIP3   OH246007   0.922   4.993  11.028  0.2153  0.1691  0.3607
 7271TIP3    H146008   0.926   4.898  11.017 -0.0533  0.1688  0.2657
 7271TIP3    H246009   0.958   5.028  10.947 -0.6919  0.1563 -0.0569
 7272TIP3   OH246010   1.170   4.302  11.369  0.5195  0.1152 -0.4416
 7272TIP3    H146011   1.172   4.222  11.422  0.5570  0.0364 -0.5604
 7272TIP3    H246012   1.222   4.280  11.291  0.4434  0.2204 -0.5222
 7273TIP3   OH246013   6.129   6.465  12.146 -0.0014  0.2262  0.0159
 7273TIP3    H146014   6.153   6.523  12.074 -0.8662  0.6058  0.0153
 7273TIP3    H246015   6.075   6.520  12.203  0.3860 -0.1690  0.7797
 7274TIP3   OH246016   5.627   7.371  10.713 -0.2145 -0.1391  0.0008
 7274TIP3    H146017   5.603   7.436  10.647 -0.0233 -0.3344 -0.2578
 7274TIP3    H246018   5.711   7.401  10.746 -1.6631  1.7020  2.3626
 7275TIP3   OH246019   6.378   0.991  10.757 -0.0386  0.0251  0.5812
 7275TIP3    H146020   6.464   0.983  10.715 -0.4477  0.2617 -0.3444
 7275TIP3    H246021   6.377   1.079  10.794 -0.3038  0.4789 -0.4499
 7276TIP3   OH246022   3.112   5.038  11.700 -0.4282 -0.2776  0.3831
 7276TIP3    H146023   3.203   5.010  11.703 -0.6244 -1.5597 -2.6664
 7276TIP3    H246024   3.116   5.134  11.700  1.2228 -0.2286 -3.0352
 7277TIP3   OH246025   5.639   7.240  11.621  0.1589 -0.7857 -0.4256
 7277TIP3    H146026   5.731   7.212  11.613  0.5742 -0.7847  3.0764
 7277TIP3    H246027   5.591   7.160  11.640 -0.6730 -0.7876 -2.2783
 7278TIP3   OH246028   0.778   8.287  11.381 -0.4287  0.3904  0.1118
 7278TIP3    H146029   0.806   8.283  11.289  0.2226  0.1043  0.3190
 7278TIP3    H246030   0.712   8.356  11.383  1.6278  2.4534 -0.0185
 7279TIP3   OH246031   0.153   6.685  11.118 -0.2617 -0.3831  0.6349
 7279TIP3    H146032   0.226   6.658  11.174 -0.5167  1.0499  1.7385
 7279TIP3    H246033   0.082   6.704  11.179 -1.8458 -2.4287 -0.4569
 7280TIP3   OH246034   1.915   5.685  12.284  0.1354 -0.2786 -0.1298
 7280TIP3    H146035   1.883   5.595  12.289 -2.3607  0.5749  0.2292
 7280TIP3    H246036   1.912   5.718  12.373  1.7637 -0.0145 -0.1307
 7281TIP3   OH246037   4.943   7.563  10.710 -0.8203 -0.0822 -0.1066
 7281TIP3    H146038   4.858   7.541  10.749 -0.5252 -0.5613  0.2714
 7281TIP3    H246039   4.928   7.647  10.666 -1.4597 -0.1078  0.0569
 7282TIP3   OH246040   4.730   8.091  10.479 -0.6273 -0.2424 -0.3145
 7282TIP3    H146041   4.751   8.045  10.397  1.1565 -0.2328  0.0866
 7282TIP3    H246042   4.635   8.083  10.487 -0.8643 -0.2682 -2.3691
 7283TIP3   OH246043   8.316   5.849  10.691  0.0520  0.0816 -0.3639
 7283TIP3    H146044   8.308   5.927  10.747  1.6753 -0.2222  0.3483
 7283TIP3    H246045   8.239   5.796  10.713  1.1505 -0.5270  2.4827
 7284TIP3   OH246046   1.428   6.370  11.334  0.1941 -0.3660 -1.0535
 7284TIP3    H146047   1.464   6.444  11.383  0.6222  0.0157 -1.9221
 7284TIP3    H246048   1.445   6.294  11.390  0.4812  0.0823 -0.5182
 7285TIP3   OH246049   4.608   2.910  11.178 -0.0971 -0.1733  0.0252
 7285TIP3    H146050   4.643   2.992  11.214 -0.2339 -0.5220  0.9682
 7285TIP3    H246051   4.517   2.930  11.156  0.1174  0.1724 -0.5981
 7286TIP3   OH246052   7.529   7.996  11.615  0.6110  0.9637  0.3283
 7286TIP3    H146053   7.497   7.941  11.543  2.3602  0.0171  0.2108
 7286TIP3    H246054   7.456   8.001  11.676 -0.5485  0.8932 -1.0119
 7287TIP3   OH246055   8.265   6.597  12.408 -0.2965 -0.2787 -0.3401
 7287TIP3    H146056   8.332   6.663  12.390 -0.1808 -0.2772  0.0953
 7287TIP3    H246057   8.313   6.515  12.417 -0.3782 -0.3213 -0.2896
 7288TIP3   OH246058   0.629   2.541  12.012 -0.2643 -0.3415 -0.0393
 7288TIP3    H146059   0.698   2.481  11.984 -0.0835  0.4914 -1.4703
 7288TIP3    H246060   0.665   2.628  11.996 -1.0438  0.1352  0.7201
 7289TIP3   OH246061   5.728   7.076  10.243  0.6598  0.0759  0.0104
 7289TIP3    H146062   5.821   7.060  10.229  0.4469 -0.9284 -0.3089
 7289TIP3    H246063   5.717   7.170  10.228  1.9216  0.5650  1.7252
 7290TIP3   OH246064   2.807   4.443  10.895  0.0028  0.3055 -1.0646
 7290TIP3    H146065   2.851   4.358  10.885  2.0217  1.3515 -1.6097
 7290TIP3    H246066   2.747   4.430  10.969 -0.8685 -2.0107 -2.0785
 7291TIP3   OH246067   6.670   3.387  11.393 -0.1372 -0.3281  0.0130
 7291TIP3    H146068   6.701   3.472  11.363 -0.5308  0.0156  0.5544
 7291TIP3    H246069   6.674   3.331  11.316 -1.7942  0.7107 -0.8914
 7292TIP3   OH246070   5.078   4.186  11.384 -0.2865  0.2389  0.1828
 7292TIP3    H146071   5.035   4.106  11.353 -0.0342 -0.2162  0.9803
 7292TIP3    H246072   5.088   4.240  11.305  0.9310 -1.1475 -0.6751
 7293TIP3   OH246073   3.048   6.001  11.709 -0.0560 -0.5391  0.5636
 7293TIP3    H146074   3.000   5.925  11.675 -0.7235 -0.2066  0.7322
 7293TIP3    H246075   3.138   5.971  11.718 -0.7508 -2.1718  3.1195
 7294TIP3   OH246076   1.724   2.488  10.866 -0.3498 -0.6191  0.2112
 7294TIP3    H146077   1.726   2.499  10.771  1.2008 -3.1145 -0.1256
 7294TIP3    H246078   1.731   2.578  10.900  0.0819  0.2584 -2.0098
 7295TIP3   OH246079   3.377   3.521  12.333 -0.0424 -0.4342 -0.1679
 7295TIP3    H146080   3.359   3.446  12.390 -0.4036  0.3144  0.7283
 7295TIP3    H246081   3.432   3.579  12.386  0.7280 -0.3199 -1.0613
 7296TIP3   OH246082   3.196   1.357  11.015  0.2914 -0.0753  0.7596
 7296TIP3    H146083   3.181   1.265  11.037  2.6535 -1.0119 -1.0834
 7296TIP3    H246084   3.275   1.381  11.063  1.2260  0.1124 -0.7951
 7297TIP3   OH246085   5.016   6.987  10.953 -0.2381  0.4586 -0.3121
 7297TIP3    H146086   4.928   6.953  10.941 -1.0792  1.8440  1.3884
 7297TIP3    H246087   5.017   7.069  10.903 -0.1065  0.7237  0.1212
 7298TIP3   OH246088   4.068   1.290  11.171  0.1217  0.1083 -0.2034
 7298TIP3    H146089   4.021   1.275  11.253 -2.3816 -0.1854 -1.6120
 7298TIP3    H246090   4.013   1.352  11.122  1.8260  0.7098 -1.4547
 7299TIP3   OH246091   4.180   2.918  10.804  0.8329 -0.1511 -0.0727
 7299TIP3    H146092   4.270   2.916  10.836  0.7196 -0.7058  0.2135
 7299TIP3    H246093   4.131   2.965  10.872  1.1030  1.1975 -0.7604
 7300TIP3   OH246094   2.593   8.281  11.250 -0.1298 -0.7082  0.5851
 7300TIP3    H146095   2.674   8.313  11.290  0.8163 -0.9863 -1.0383
 7300TIP3    H246096   2.607   8.290  11.156 -1.2934 -2.3846  0.1985
 7301TIP3   OH246097   3.355   5.961  10.641 -0.3772  0.0724  0.3126
 7301TIP3    H146098   3.288   6.024  10.670 -0.5827  0.0924 -0.1913
 7301TIP3    H246099   3.305   5.889  10.604 -0.1150  0.3606 -0.6248
 7302TIP3   OH246100   2.589   5.783  12.022  0.3608  0.1708 -0.1925
 7302TIP3    H146101   2.679   5.767  12.048  0.5711 -0.2068 -1.1092
 7302TIP3    H246102   2.596   5.832  11.940 -0.2736  1.7427  0.6593
 7303TIP3   OH246103   3.738   0.127  11.526 -0.3565  0.0592 -0.0180
 7303TIP3    H146104   3.779   0.057  11.578 -1.3382  0.4680  1.3781
 7303TIP3    H246105   3.804   0.151  11.461  0.5476 -1.1655  0.4135
 7304TIP3   OH246106   6.977   0.423  11.624  0.1306  0.5655 -0.7324
 7304TIP3    H146107   7.065   0.448  11.654  0.6528 -0.5844 -1.2653
 7304TIP3    H246108   6.957   0.344  11.674 -1.7118  2.1676  1.3051
 7305TIP3   OH246109   4.823   4.214  10.740  0.0601  0.2879 -0.0483
 7305TIP3    H146110   4.804   4.307  10.733 -0.8476  0.1350  0.2806
 7305TIP3    H246111   4.749   4.171  10.697  0.0792 -0.3040  0.4954
 7306TIP3   OH246112   1.115   2.502  11.799 -0.0697 -0.0462  0.4392
 7306TIP3    H146113   1.133   2.489  11.892 -1.6840 -1.7003  0.5746
 7306TIP3    H246114   1.131   2.595  11.785  1.3449  0.0107  2.0860
 7307TIP3   OH246115   0.995   0.847  11.820 -0.1550 -0.0748  0.0065
 7307TIP3    H146116   0.971   0.829  11.729 -0.6526 -0.6414  0.2466
 7307TIP3    H246117   1.022   0.763  11.855  0.3855  0.2083  0.2910
 7308TIP3   OH246118   1.026   6.801  11.970  0.1682  0.2413  0.3235
 7308TIP3    H146119   1.016   6.893  11.944  0.7998  0.1349 -0.3525
 7308TIP3    H246120   1.077   6.805  12.050 -0.1189  0.4959  0.4981
 7309TIP3   OH246121   2.894   2.446  11.216 -0.2037 -0.1889  0.0482
 7309TIP3    H146122   2.895   2.536  11.249  1.5991 -0.4822  0.8740
 7309TIP3    H246123   2.871   2.455  11.124  0.1222  1.1480  0.0800
 7310TIP3   OH246124   8.369   3.121  10.890  0.2387 -0.0012 -0.1474
 7310TIP3    H146125   8.334   3.054  10.831  0.6963  1.3887 -2.0729
 7310TIP3    H246126   8.367   3.202  10.840  4.7397  0.5077  0.0572
 7311TIP3   OH246127   5.755   4.604  10.588 -0.0174 -0.1721 -0.1580
 7311TIP3    H146128   5.727   4.544  10.520 -1.7761 -0.6572  0.9468
 7311TIP3    H246129   5.812   4.552  10.645 -1.2317 -0.7172  0.5836
 7312TIP3   OH246130   6.338   3.806  11.459  0.1004 -0.2195 -0.6190
 7312TIP3    H146131   6.254   3.844  11.484 -0.6984 -1.0073 -1.9776
 7312TIP3    H246132   6.317   3.718  11.426  1.4466 -0.4399 -0.9902
 7313TIP3   OH246133   8.145   7.756  10.818  0.1494  0.6968 -0.1735
 7313TIP3    H146134   8.153   7.753  10.722  0.2755  2.4489 -0.2554
 7313TIP3    H246135   8.219   7.811  10.846  1.1732 -1.2449  1.1186
 7314TIP3   OH246136   0.876   6.399  10.641 -0.5201 -0.1286  0.6033
 7314TIP3    H146137   0.801   6.437  10.595  0.0356 -0.5173 -0.6535
 7314TIP3    H246138   0.849   6.397  10.733 -0.9543  2.3723  0.5907
 7315TIP3   OH246139   5.099   3.601  12.562  0.0971 -0.0743 -0.3413
 7315TIP3    H146140   5.007   3.614  12.585 -0.7550 -5.2153  0.3024
 7315TIP3    H246141   5.098   3.593  12.466 -0.1443 -0.1348 -0.3350
 7316TIP3   OH246142   6.840   4.667  12.696  0.5296 -0.1118 -0.1752
 7316TIP3    H146143   6.907   4.599  12.683  1.1510  0.3440  0.5450
 7316TIP3    H246144   6.883   4.747  12.664  0.2800  0.1646  0.1916
 7317TIP3   OH246145   5.323   6.844  12.605 -0.5142 -0.0297 -0.0345
 7317TIP3    H146146   5.414   6.873  12.596 -0.9393  1.5387  0.3779
 7317TIP3    H246147   5.278   6.919  12.645 -1.3615 -1.8504  2.7224
 7318TIP3   OH246148   3.339   0.281  11.775 -0.1650 -0.1087  0.4705
 7318TIP3    H146149   3.293   0.237  11.703  0.3270  1.5652 -0.9500
 7318TIP3    H246150   3.341   0.216  11.845 -0.8211 -1.7776 -0.9603
 7319TIP3   OH246151   0.543   4.086  11.634 -0.8821  0.2684  0.0216
 7319TIP3    H146152   0.475   4.143  11.600 -0.9256 -0.4581 -1.1856
 7319TIP3    H246153   0.543   4.011  11.574  0.4796 -0.0781  0.4172
 7320TIP3   OH246154   4.883   6.520  12.185 -0.0014 -0.2061  0.9706
 7320TIP3    H146155   4.962   6.473  12.211  1.1562  1.5643  0.8052
 7320TIP3    H246156   4.818   6.496  12.252  0.4292 -2.2001  0.7409
 7321TIP3   OH246157   3.733   4.492  10.929  0.3479  0.2124  0.2935
 7321TIP3    H146158   3.697   4.465  11.014  0.3150  1.1745  0.5957
 7321TIP3    H246159   3.655   4.504  10.874  0.3386  0.1483  0.2914
 7322TIP3   OH246160   5.260   1.430  10.824 -0.1163  0.1308 -0.0854
 7322TIP3    H146161   5.313   1.503  10.855  1.9369 -0.6111 -1.6376
 7322TIP3    H246162   5.310   1.352  10.848 -1.8586 -0.7771  0.8026
 7323TIP3   OH246163   5.078   4.944  10.809 -0.5317 -0.1632 -0.0208
 7323TIP3    H146164   4.995   4.901  10.827 -1.3862  0.8559 -1.3618
 7323TIP3    H246165   5.054   5.026  10.766  1.1305  0.7148  0.6291
 7324TIP3   OH246166   0.886   4.257  10.869  0.1486 -0.2725 -0.1416
 7324TIP3    H146167   0.818   4.190  10.862  0.1082 -0.2200 -0.2458
 7324TIP3    H246168   0.915   4.251  10.960 -1.2583  0.9315  0.4241
 7325TIP3   OH246169   7.428   3.841  11.493  0.4620  0.5434 -0.0865
 7325TIP3    H146170   7.434   3.806  11.582  1.5667 -0.5882 -0.5756
 7325TIP3    H246171   7.469   3.928  11.498 -0.1171  0.7851  0.6408
 7326TIP3   OH246172   8.361   2.536  11.277  0.3651  0.0050  0.4474
 7326TIP3    H146173   8.452   2.553  11.252  0.5470  2.0405  2.1757
 7326TIP3    H246174   8.367   2.471  11.346  0.5692  0.3540  0.7675
 7327TIP3   OH246175   5.741   0.273  12.812 -0.4330  0.2576  0.0321
 7327TIP3    H146176   5.768   0.192  12.854  0.7039  1.0160  0.8290
 7327TIP3    H246177   5.799   0.281  12.736 -0.3232  0.4825  0.1390
 7328TIP3   OH246178   2.172   6.053  11.865  0.4581 -0.8848 -0.4877
 7328TIP3    H146179   2.239   5.990  11.891  1.0368 -0.9889 -2.1274
 7328TIP3    H246180   2.214   6.107  11.798 -1.3548 -1.5694 -2.2697
 7329TIP3   OH246181   4.237   7.953  11.835 -0.2443  0.4890 -0.0026
 7329TIP3    H146182   4.145   7.941  11.858 -0.2874  1.2692  0.2673
 7329TIP3    H246183   4.236   7.986  11.745 -0.3189  2.0081  0.5360
 7330TIP3   OH246184   3.587   6.305  11.121  0.5719 -0.1195 -0.1222
 7330TIP3    H146185   3.590   6.375  11.055  0.6007 -0.0282 -0.0242
 7330TIP3    H246186   3.674   6.265  11.119  0.4809 -0.3067 -0.3452
 7331TIP3   OH246187   1.796   2.352  12.679 -0.8220  0.3517  0.2747
 7331TIP3    H146188   1.860   2.314  12.739 -0.4160 -0.8280 -0.8475
 7331TIP3    H246189   1.847   2.407  12.620 -0.8961 -0.1827 -0.3004
 7332TIP3   OH246190   2.398   1.163  11.075  0.2572  1.2351 -0.1024
 7332TIP3    H146191   2.331   1.119  11.127  0.4889 -2.6026 -2.7212
 7332TIP3    H246192   2.453   1.208  11.140 -2.3437  1.0127  2.4301
 7333TIP3   OH246193   5.430   5.580  10.910 -0.1561  0.2905 -0.0129
 7333TIP3    H146194   5.507   5.601  10.856 -0.0490 -0.1551 -0.0309
 7333TIP3    H246195   5.383   5.663  10.916  0.7456  0.7727  0.6773
 7334TIP3   OH246196   2.244   1.771  11.456  0.4150 -0.6013 -0.2566
 7334TIP3    H146197   2.203   1.794  11.373 -0.3838  2.3845  0.8400
 7334TIP3    H246198   2.336   1.755  11.434 -0.2651 -2.4802 -2.0246
 7335TIP3   OH246199   5.297   2.776  10.894 -0.1704 -0.1663  0.0067
 7335TIP3    H146200   5.260   2.841  10.955 -1.9882 -2.5227  1.6205
 7335TIP3    H246201   5.230   2.766  10.827 -0.4358 -1.0967  0.3827
 7336TIP3   OH246202   6.849   7.052  11.279 -0.2882 -0.0255  0.2087
 7336TIP3    H146203   6.878   7.134  11.319  2.6677 -0.5457 -0.6336
 7336TIP3    H246204   6.881   7.056  11.189  1.6259 -2.7856  0.6242
 7337TIP3   OH246205   8.363   4.643  10.908 -0.1422  0.5817 -0.4763
 7337TIP3    H146206   8.271   4.649  10.884 -0.3357 -0.8603 -0.1899
 7337TIP3    H246207   8.365   4.671  11.000 -0.8871 -2.5083  0.5988
 7338TIP3   OH246208   5.858   5.565  10.977  0.0436 -0.5627 -0.1356
 7338TIP3    H146209   5.945   5.604  10.967 -0.4006  0.1623 -1.4391
 7338TIP3    H246210   5.811   5.625  11.035  0.1588 -0.5280 -0.0778
 7339TIP3   OH246211   1.188   3.432  10.626 -0.4968  0.0975 -0.5176
 7339TIP3    H146212   1.111   3.485  10.647 -0.7227  0.0961 -1.3386
 7339TIP3    H246213   1.156   3.366  10.565 -0.5652 -1.9551  1.5871
 7340TIP3   OH246214   2.606   5.073  11.904 -0.2306 -0.3689 -0.6522
 7340TIP3    H146215   2.556   5.155  11.897  0.2184 -0.0077  0.1989
 7340TIP3    H246216   2.690   5.093  11.862 -0.9106 -1.0959 -2.4297
 7341TIP3   OH246217   6.862   7.009  11.002  0.2542  0.1093  0.2171
 7341TIP3    H146218   6.860   7.055  10.919  1.6505 -0.5192 -0.1981
 7341TIP3    H246219   6.788   6.949  10.998 -0.5619  1.1083  0.0606
 7342TIP3   OH246220   5.387   1.668  12.608 -0.4217  0.4859  0.7974
 7342TIP3    H146221   5.435   1.740  12.650  0.8029  0.3959 -0.3691
 7342TIP3    H246222   5.454   1.603  12.589 -1.3488 -0.5242  0.8871
 7343TIP3   OH246223   8.329   3.850  10.935 -0.4560  0.0614  0.3313
 7343TIP3    H146224   8.377   3.777  10.973 -0.5044 -0.2073 -0.1060
 7343TIP3    H246225   8.392   3.921  10.929 -0.2369 -0.1437  0.1924
 7344TIP3   OH246226   5.671   0.807  11.994  0.4668  0.2797  0.3800
 7344TIP3    H146227   5.620   0.856  12.059 -0.0884  1.5194 -0.9202
 7344TIP3    H246228   5.611   0.740  11.962  1.2548 -1.4088  2.2243
 7345TIP3   OH246229   0.358   4.294  11.545 -0.3072 -0.6128  0.4431
 7345TIP3    H146230   0.266   4.293  11.522 -0.0173  1.1836 -1.1354
 7345TIP3    H246231   0.365   4.359  11.615 -0.0738  0.5473 -0.6118
 7346TIP3   OH246232   6.619   5.396  10.849 -0.4650  0.3766  0.4024
 7346TIP3    H146233   6.605   5.378  10.942 -0.0276  0.6923  0.5317
 7346TIP3    H246234   6.710   5.371  10.833 -0.7077 -0.2405 -0.0836
 7347TIP3   OH246235   0.902   5.946  11.329  0.3335  0.2165 -0.7592
 7347TIP3    H146236   0.871   5.882  11.265  0.8807  0.1702 -0.9849
 7347TIP3    H246237   0.835   5.947  11.397 -0.4219  0.4964 -1.4829
 7348TIP3   OH246238   3.205   2.604  10.555 -0.1192  0.0692 -0.7193
 7348TIP3    H146239   3.206   2.697  10.580  0.0218 -0.3436  0.9280
 7348TIP3    H246240   3.247   2.559  10.628 -0.0791 -1.2905 -1.5509
 7349TIP3   OH246241   0.401   0.938  11.138 -0.8452 -0.3758 -0.1214
 7349TIP3    H146242   0.482   0.978  11.171  0.0653 -2.2164  0.0584
 7349TIP3    H246243   0.384   0.981  11.055 -0.6870  1.2679  0.6628
 7350TIP3   OH246244   8.014   2.461  12.912 -0.5088 -0.1281  0.3400
 7350TIP3    H146245   7.975   2.374  12.910 -0.6756 -0.0465 -0.0489
 7350TIP3    H246246   7.976   2.502  12.990  0.1438 -0.6618  0.9469
 7351TIP3   OH246247   0.124   5.830  10.804  0.2873  0.4324 -0.9005
 7351TIP3    H146248   0.101   5.824  10.897  0.1084  1.2963 -0.8844
 7351TIP3    H246249   0.039   5.832  10.760  0.3714 -0.3666 -1.1217
 7352TIP3   OH246250   8.115   1.807  10.332  0.0742 -0.1367 -0.3855
 7352TIP3    H146251   8.027   1.771  10.329 -1.4180  3.0505  0.4386
 7352TIP3    H246252   8.137   1.808  10.426 -0.1540  1.4188 -0.3240
 7353TIP3   OH246253   5.497   3.197  12.593  0.0778  0.6999  0.0048
 7353TIP3    H146254   5.591   3.208  12.578  0.1246 -0.7089 -0.8727
 7353TIP3    H246255   5.478   3.108  12.566 -1.6477  1.1450 -0.3969
 7354TIP3   OH246256   3.990   2.944  10.567  0.0602  0.3475  0.0937
 7354TIP3    H146257   4.039   2.996  10.503  0.9811  0.5780  0.9676
 7354TIP3    H246258   4.049   2.936  10.642 -1.3965  0.9706  1.3453
 7355TIP3   OH246259   4.978   0.113  11.268  0.4566  0.3462  0.1189
 7355TIP3    H146260   4.934   0.039  11.310  0.4199  1.1379  1.5447
 7355TIP3    H246261   5.071   0.097  11.282  0.5660 -0.4035 -1.3027
 7356TIP3   OH246262   2.581   1.074  12.200 -0.3464  0.2816  0.2715
 7356TIP3    H146263   2.565   0.984  12.170  2.1884 -0.4073  0.7254
 7356TIP3    H246264   2.627   1.116  12.127  1.8285 -0.0180  1.3874
 7357TIP3   OH246265   7.893   6.554  12.248  0.2256 -0.0248 -0.1553
 7357TIP3    H146266   7.971   6.601  12.218 -1.1017  2.5489  0.1126
 7357TIP3    H246267   7.830   6.566  12.178  0.0352 -2.1095 -0.3847
 7358TIP3   OH246268   4.347   7.270  12.492 -0.0750 -0.0094 -0.0686
 7358TIP3    H146269   4.273   7.221  12.457  1.8173 -2.4249 -1.0026
 7358TIP3    H246270   4.361   7.341  12.430 -1.2054  0.0897 -0.2211
 7359TIP3   OH246271   7.466   2.021  11.745 -0.0328  0.3906 -0.4561
 7359TIP3    H146272   7.396   2.074  11.707 -1.4310 -0.2719  1.0758
 7359TIP3    H246273   7.422   1.940  11.773  1.4394 -0.2366  0.1370
 7360TIP3   OH246274   1.344   2.298  12.197 -0.1492  1.0498  0.2450
 7360TIP3    H146275   1.323   2.231  12.263 -0.6148  1.1618  0.2183
 7360TIP3    H246276   1.333   2.252  12.113  1.6390  0.5635  0.2489
 7361TIP3   OH246277   2.053   0.822  11.367  0.2288  0.0931 -0.3090
 7361TIP3    H146278   2.005   0.859  11.293 -0.1680  0.2942  0.0420
 7361TIP3    H246279   2.067   0.730  11.344 -2.0246 -0.4844  0.4111
 7362TIP3   OH246280   8.439   4.526  11.500  0.0305 -0.4766 -0.2769
 7362TIP3    H146281   8.370   4.459  11.503 -1.5816  1.0495 -1.2008
 7362TIP3    H246282   8.413   4.584  11.428  2.3919  0.0839 -0.7506
 7363TIP3   OH246283   5.218   1.422  12.132  0.6383  0.4004 -0.1352
 7363TIP3    H146284   5.200   1.466  12.049 -0.0872 -0.8872 -0.6924
 7363TIP3    H246285   5.149   1.355  12.139  0.7350  0.4295  1.4669
 7364TIP3   OH246286   7.132   4.073  10.612  0.9867  0.4870 -0.1636
 7364TIP3    H146287   7.180   4.061  10.531  0.7114 -0.4108 -0.2097
 7364TIP3    H246288   7.144   4.165  10.634 -0.8988  1.3993 -2.4844
 7365TIP3   OH246289   3.149   4.647  11.940  0.3947  0.2414  0.2538
 7365TIP3    H146290   3.084   4.630  12.008 -0.3502  1.3978 -0.1441
 7365TIP3    H246291   3.198   4.565  11.933 -2.7721 -1.6916 -1.3906
 7366TIP3   OH246292   2.712   3.288  10.600 -0.3664  0.1199  0.8808
 7366TIP3    H146293   2.700   3.292  10.695 -0.2926 -0.9492  0.9546
 7366TIP3    H246294   2.805   3.300  10.587 -0.3788  0.2850  0.9491
 7367TIP3   OH246295   3.159   5.505  12.308  0.2335 -0.4834  0.3113
 7367TIP3    H146296   3.216   5.440  12.351 -1.5655 -2.2917  0.1028
 7367TIP3    H246297   3.105   5.539  12.378 -0.4803 -1.0262  0.0333
 7368TIP3   OH246298   0.677   3.610  10.892 -0.0493 -0.2616 -0.3434
 7368TIP3    H146299   0.658   3.517  10.897 -0.4127 -0.1873 -0.3127
 7368TIP3    H246300   0.760   3.621  10.939  0.1187 -0.6013 -0.5538
 7369TIP3   OH246301   5.346   4.754  11.581 -0.1331  0.6862  0.2567
 7369TIP3    H146302   5.274   4.790  11.633  0.0800  0.4513  0.7247
 7369TIP3    H246303   5.404   4.714  11.646 -0.6533 -1.0190 -0.2960
 7370TIP3   OH246304   7.905   1.136  11.844 -0.1068  0.5791  0.1670
 7370TIP3    H146305   7.881   1.179  11.762  0.2865  1.3237  0.4367
 7370TIP3    H246306   7.988   1.092  11.824 -0.4481  0.0203 -0.0727
 7371TIP3   OH246307   2.552   3.153  11.899 -0.4227  0.0123  0.2587
 7371TIP3    H146308   2.549   3.193  11.986 -0.5562 -1.0853  0.7766
 7371TIP3    H246309   2.563   3.060  11.916  0.9262 -0.0766 -0.9429
 7372TIP3   OH246310   2.936   2.276  10.416  0.1486  0.0351 -0.0068
 7372TIP3    H146311   2.851   2.239  10.392  0.2052 -0.4030  0.4622
 7372TIP3    H246312   2.951   2.247  10.505  0.4750  0.6994  0.1620
 7373TIP3   OH246313   1.445   1.903  11.708  0.3507  0.0177  0.1961
 7373TIP3    H146314   1.518   1.842  11.720  1.1540  0.8300 -0.4170
 7373TIP3    H246315   1.387   1.886  11.782 -0.1948 -2.4965 -0.7033
 7374TIP3   OH246316   3.810   6.110  11.154  0.1950 -0.6262  0.1584
 7374TIP3    H146317   3.880   6.128  11.216  0.1376  0.8574 -0.1714
 7374TIP3    H246318   3.843   6.038  11.101  0.1047 -2.1748  2.0897
 7375TIP3   OH246319   0.291   0.835  11.383  0.0760 -0.4035  0.4312
 7375TIP3    H146320   0.323   0.881  11.305  2.4610 -2.1183  0.2596
 7375TIP3    H246321   0.331   0.748  11.377 -0.5776 -0.9663  3.0086
 7376TIP3   OH246322   6.022   6.226  10.543  0.5450  0.4305 -0.0734
 7376TIP3    H146323   6.103   6.193  10.503  0.6917  1.5660 -0.7677
 7376TIP3    H246324   6.029   6.321  10.536  0.6740  0.7381  2.8984
 7377TIP3   OH246325   6.152   7.751  12.710 -0.3998  0.2946 -0.4978
 7377TIP3    H146326   6.102   7.826  12.742 -1.2901  0.3104 -1.8398
 7377TIP3    H246327   6.120   7.677  12.761  0.5193  0.7901  0.8746
 7378TIP3   OH246328   2.924   3.362  10.463 -0.2209 -0.6482  0.1293
 7378TIP3    H146329   2.879   3.417  10.399 -0.4689 -3.2234 -2.1285
 7378TIP3    H246330   3.008   3.340  10.421  0.6600 -0.5413  1.7575
 7379TIP3   OH246331   4.555   5.719  12.374  0.2926  0.3908 -0.1180
 7379TIP3    H146332   4.472   5.765  12.363 -0.8881 -0.8671  2.5495
 7379TIP3    H246333   4.611   5.781  12.420 -0.1522  0.3446  0.5087
 7380TIP3   OH246334   6.504   8.242  11.436  0.0734 -0.1449 -0.1916
 7380TIP3    H146335   6.549   8.313  11.482  0.9916  0.0669 -1.3611
 7380TIP3    H246336   6.490   8.175  11.503  0.2405  0.6476  0.6626
 7381TIP3   OH246337   5.074   5.087  11.109 -0.1462 -0.2795  0.3100
 7381TIP3    H146338   4.987   5.096  11.069 -0.2577 -2.8171 -0.2064
 7381TIP3    H246339   5.128   5.048  11.041  1.3956  1.0751  0.6947
 7382TIP3   OH246340   2.892   3.045  10.508  0.1275 -0.5651  0.3658
 7382TIP3    H146341   2.919   3.112  10.445 -0.8600 -1.6772 -1.3116
 7382TIP3    H246342   2.848   3.094  10.577  1.5753  0.7259  0.4527
 7383TIP3   OH246343   0.564   5.587  10.654  0.1551 -0.2560 -0.1898
 7383TIP3    H146344   0.517   5.650  10.598  0.8014 -0.3438 -0.8485
 7383TIP3    H246345   0.531   5.604  10.742  0.3358  1.0372 -0.3479
 7384TIP3   OH246346   5.065   5.046  12.050 -0.8117 -0.3982 -0.0048
 7384TIP3    H146347   5.019   5.031  11.967 -2.1551  1.1956  0.4085
 7384TIP3    H246348   5.126   5.118  12.031  0.6089 -1.5872 -0.1808
 7385TIP3   OH246349   5.193   0.224  10.835 -0.3024 -0.5548  0.4384
 7385TIP3    H146350   5.229   0.254  10.918 -1.7814 -0.3629  1.0252
 7385TIP3    H246351   5.112   0.178  10.858 -1.6217  0.9230 -1.0021
 7386TIP3   OH246352   4.385   4.060  11.097 -0.3280 -0.1204 -0.0053
 7386TIP3    H146353   4.447   4.003  11.143  1.0963  0.6450 -0.8928
 7386TIP3    H246354   4.302   4.012  11.100  0.1145 -0.8706  1.8206
 7387TIP3   OH246355   7.679   6.354  12.224  0.1675 -0.5681 -0.0552
 7387TIP3    H146356   7.758   6.332  12.175 -0.7701 -0.2558 -1.7597
 7387TIP3    H246357   7.704   6.340  12.316  1.9387 -1.2526 -0.5922
 7388TIP3   OH246358   6.376   4.220  10.799 -0.0334 -0.2229 -0.0940
 7388TIP3    H146359   6.408   4.134  10.771 -0.5292 -0.3771 -0.1904
 7388TIP3    H246360   6.414   4.282  10.737  0.5577 -0.3366  0.1435
 7389TIP3   OH246361   5.105   2.824  10.479  0.3090 -0.0535  0.5434
 7389TIP3    H146362   5.087   2.793  10.390  0.7580  1.9111 -0.2697
 7389TIP3    H246363   5.196   2.854  10.475  1.3174 -2.4975  2.4564
 7390TIP3   OH246364   7.232   1.032  11.596 -0.0902  0.1716 -0.4541
 7390TIP3    H146365   7.287   0.954  11.601 -2.3196 -1.4563 -0.0332
 7390TIP3    H246366   7.255   1.083  11.673  1.1159 -0.2584 -0.5157
 7391TIP3   OH246367   6.472   0.473  11.093 -0.1498  0.3967 -0.5502
 7391TIP3    H146368   6.447   0.564  11.104 -0.0740  0.4452 -0.7765
 7391TIP3    H246369   6.528   0.472  11.016  0.8865  0.3504  0.1861
 7392TIP3   OH246370   2.154   5.545  10.677 -0.5892  0.1144 -0.1093
 7392TIP3    H146371   2.124   5.625  10.718 -3.0350 -0.6155 -0.3425
 7392TIP3    H246372   2.240   5.567  10.641 -1.1568  2.5804 -0.0920
 7393TIP3   OH246373   0.062   2.107  11.960  0.4008  0.5722  0.0583
 7393TIP3    H146374   0.102   2.193  11.975  0.5716  0.5340 -0.1683
 7393TIP3    H246375  -0.032   2.125  11.953  0.3390  0.6204  0.9393
 7394TIP3   OH246376   3.074   2.915  12.297 -0.0181 -0.1332 -0.6721
 7394TIP3    H146377   3.132   2.983  12.266 -0.1043 -0.4949 -1.6503
 7394TIP3    H246378   2.991   2.932  12.253 -0.5249  0.0865  0.3337
 7395TIP3   OH246379   7.984   0.607  11.170 -0.6240 -0.3380 -0.1063
 7395TIP3    H146380   7.899   0.578  11.136 -0.0837 -0.9672 -0.9852
 7395TIP3    H246381   8.013   0.673  11.106 -0.5146 -0.0134  0.2750
 7396TIP3   OH246382   4.781   0.178  10.802 -0.0167  0.9475 -0.1485
 7396TIP3    H146383   4.772   0.184  10.707 -2.7632  1.9587  0.0749
 7396TIP3    H246384   4.710   0.121  10.830  0.4149  1.0922  1.3590
 7397TIP3   OH246385   3.105   2.424  10.915  0.5924  0.3228 -0.1011
 7397TIP3    H146386   3.118   2.352  10.978  0.8968 -1.2308 -1.8599
 7397TIP3    H246387   3.017   2.456  10.934  0.2161 -0.9091  0.3663
 7398TIP3   OH246388   2.020   2.731  12.810 -0.0449 -0.2782 -0.8630
 7398TIP3    H146389   1.947   2.735  12.749  0.1511 -0.5145 -1.1135
 7398TIP3    H246390   2.054   2.820  12.812 -0.8804  0.0468 -0.0757
 7399TIP3   OH246391   7.629   3.703  10.626  0.4265  0.6579  0.1262
 7399TIP3    H146392   7.549   3.655  10.650 -0.3790  1.3092 -1.1121
 7399TIP3    H246393   7.700   3.641  10.644 -0.3586  0.0110  1.1372
 7400TIP3   OH246394   4.594   6.746  11.036  0.2881  0.2873  0.1387
 7400TIP3    H146395   4.569   6.768  11.126  0.4111 -0.3719  0.3352
 7400TIP3    H246396   4.559   6.819  10.984  1.0142  1.1394  0.8120
 7401TIP3   OH246397   1.748   5.064  11.682 -0.0646  0.1219  0.4580
 7401TIP3    H146398   1.682   5.042  11.615  0.4900  1.6222 -0.6486
 7401TIP3    H246399   1.707   5.132  11.734  0.5365  0.9940 -0.1754
 7402TIP3   OH246400   1.598   2.844  12.089 -0.2656 -0.5146 -0.0414
 7402TIP3    H146401   1.614   2.749  12.086 -0.1139 -0.5177  0.6337
 7402TIP3    H246402   1.648   2.879  12.015  1.6248 -0.7022  1.0795
 7403TIP3   OH246403   7.431   1.682  11.549  0.7435 -0.0761 -0.0935
 7403TIP3    H146404   7.342   1.675  11.514  1.2983  0.1534 -1.6524
 7403TIP3    H246405   7.420   1.675  11.644 -1.4088  3.6202  0.1576
 7404TIP3   OH246406   3.426   3.809  11.331 -0.3848 -0.8329  0.4523
 7404TIP3    H146407   3.369   3.767  11.266 -1.4290  0.1774  0.6763
 7404TIP3    H246408   3.436   3.899  11.299  1.3958 -1.0585  0.2465
 7405TIP3   OH246409   6.054   2.445  10.651  0.4638 -0.0852 -0.1394
 7405TIP3    H146410   6.140   2.404  10.645  0.6556  0.3781 -0.7782
 7405TIP3    H246411   5.994   2.373  10.666  0.9832 -0.3938  0.5050
 7406TIP3   OH246412   5.242   7.689  10.411  0.0762 -0.3061  0.4496
 7406TIP3    H146413   5.174   7.648  10.465  0.0093 -1.0236 -0.1554
 7406TIP3    H246414   5.204   7.773  10.385 -0.4126 -0.5242  0.4512
 7407TIP3   OH246415   4.492   5.537  12.106  0.2144 -0.1766 -0.1502
 7407TIP3    H146416   4.494   5.586  12.188  0.7120  0.2423 -0.4033
 7407TIP3    H246417   4.428   5.582  12.052 -0.2928 -0.5992  0.0948
 7408TIP3   OH246418   6.356   2.055  10.401 -0.2306 -0.2407  0.1395
 7408TIP3    H146419   6.388   1.991  10.337  0.6150 -0.2274  0.5293
 7408TIP3    H246420   6.435   2.103  10.427 -0.8572  1.0574 -0.2399
 7409TIP3   OH246421   4.138   7.155  12.318  0.1672 -0.3382 -0.1642
 7409TIP3    H146422   4.069   7.216  12.293  2.4550  1.3899 -2.7143
 7409TIP3    H246423   4.101   7.069  12.299 -1.7047  0.4329 -0.2534
 7410TIP3   OH246424   6.552   6.907  11.851  0.1499 -0.4951  0.5690
 7410TIP3    H146425   6.480   6.969  11.861  0.3031 -0.3518  0.8104
 7410TIP3    H246426   6.528   6.833  11.907 -1.2332 -1.7851 -1.6213
 7411TIP3   OH246427   4.469   8.208  10.582  0.3697  0.8305  0.1242
 7411TIP3    H146428   4.383   8.246  10.602  0.0863  0.5749 -0.5784
 7411TIP3    H246429   4.449   8.128  10.532  0.9999  0.4687  0.4449
 7412TIP3   OH246430   6.782   7.592  12.257  0.0669 -0.0604  0.5266
 7412TIP3    H146431   6.712   7.530  12.236 -1.7438  1.9628  0.1865
 7412TIP3    H246432   6.768   7.614  12.349 -0.3661  1.0369  0.2191
 7413TIP3   OH246433   1.939   6.118  10.801  0.6803 -0.2118 -0.1430
 7413TIP3    H146434   1.857   6.085  10.839  0.9323  0.0830  0.6975
 7413TIP3    H246435   1.984   6.160  10.875  1.7331 -0.6433 -0.5121
 7414TIP3   OH246436   1.919   5.459  11.776  0.0660 -0.1823  0.3083
 7414TIP3    H146437   1.944   5.367  11.783  0.1967 -0.1946 -0.3367
 7414TIP3    H246438   1.824   5.457  11.762 -0.1265 -0.1728  1.4953
 7415TIP3   OH246439   2.495   2.609  11.828  0.0721  0.4371  0.6050
 7415TIP3    H146440   2.476   2.556  11.905 -2.4386  0.9799  0.4312
 7415TIP3    H246441   2.411   2.619  11.784  1.3653  0.3961 -2.0816
 7416TIP3   OH246442   0.409   2.464  12.149  0.0311  0.2167 -0.3164
 7416TIP3    H146443   0.497   2.499  12.142  0.1045  0.0124 -0.4116
 7416TIP3    H246444   0.409   2.386  12.094  0.6996 -1.6098  2.1031
 7417TIP3   OH246445   6.079   4.058  12.888 -0.3015  0.0343  0.2470
 7417TIP3    H146446   6.062   3.990  12.824 -0.1236  0.1666  0.0571
 7417TIP3    H246447   5.999   4.062  12.941 -0.3882 -0.1797  0.1312
 7418TIP3   OH246448   2.235   2.147  10.927 -0.0107  0.2248 -0.2307
 7418TIP3    H146449   2.277   2.206  10.865  0.5571  0.3077  0.2198
 7418TIP3    H246450   2.218   2.201  11.004 -0.5290  0.0765 -0.2371
 7419TIP3   OH246451   4.279   1.577  10.826  0.3775  0.0398 -0.0718
 7419TIP3    H146452   4.186   1.600  10.823  0.8785  2.2147 -0.2011
 7419TIP3    H246453   4.294   1.549  10.916 -0.0276  1.5591  0.5055
 7420TIP3   OH246454   4.296   1.737  12.237 -0.0251 -0.4687  0.1917
 7420TIP3    H146455   4.286   1.739  12.332 -0.6682  2.1222  0.1505
 7420TIP3    H246456   4.389   1.721  12.223  0.6189  1.8098  1.3898
 7421TIP3   OH246457   7.926   0.230  11.409 -0.3549  0.8917 -0.1093
 7421TIP3    H146458   7.985   0.286  11.459  0.4610 -1.0799  1.3202
 7421TIP3    H246459   7.886   0.173  11.476  0.3670 -1.5084 -1.6012
 7422TIP3   OH246460   4.653   3.414  10.643  0.0347 -0.4172 -0.3495
 7422TIP3    H146461   4.713   3.457  10.703 -1.1944  0.7860  0.0785
 7422TIP3    H246462   4.652   3.471  10.566 -0.1603 -0.6971 -0.5561
 7423TIP3   OH246463   4.966   5.895  11.722 -0.3242 -0.1230  0.1886
 7423TIP3    H146464   5.017   5.821  11.756 -1.7931 -1.1699  0.2125
 7423TIP3    H246465   4.899   5.910  11.788 -0.7768  0.4652 -0.3937
 7424TIP3   OH246466   3.397   0.426  12.859 -0.1796  0.3141 -0.0422
 7424TIP3    H146467   3.435   0.338  12.851 -0.0538  0.2445  1.1424
 7424TIP3    H246468   3.347   0.438  12.778  2.1807  0.3264 -1.5877
 7425TIP3   OH246469   7.460   4.048  11.824  0.0532 -0.0787 -0.3783
 7425TIP3    H146470   7.529   4.022  11.763  1.0479  0.7333  0.3689
 7425TIP3    H246471   7.411   3.967  11.841 -0.2605 -0.3128 -2.2455
 7426TIP3   OH246472   4.998   0.080  10.931  0.7092 -0.1763  0.4229
 7426TIP3    H146473   4.918   0.131  10.933  0.7289 -0.1648  1.4234
 7426TIP3    H246474   4.969  -0.011  10.931  0.6924 -0.1710  0.4572
 7427TIP3   OH246475   5.927   4.410  11.119  0.0949 -0.7970 -0.1358
 7427TIP3    H146476   5.837   4.425  11.149  0.3176 -0.0380  0.1644
 7427TIP3    H246477   5.940   4.474  11.049  0.8608  0.0454  0.7634
 7428TIP3   OH246478   4.396   3.244  11.396  0.4115 -0.6122 -0.2740
 7428TIP3    H146479   4.460   3.292  11.449  1.1376 -1.3523 -0.4708
 7428TIP3    H246480   4.358   3.310  11.338  1.1417 -0.2116 -0.2972
 7429TIP3   OH246481   0.878   6.129  10.412 -0.5418  0.8076  0.0746
 7429TIP3    H146482   0.857   6.037  10.401  0.7584  0.4655  0.3381
 7429TIP3    H246483   0.820   6.174  10.351 -0.4002 -0.2748 -0.8978
 7430TIP3   OH246484   3.355   1.669  11.589  0.1317 -0.1982 -0.5308
 7430TIP3    H146485   3.393   1.715  11.515 -1.1177  0.1686 -0.9699
 7430TIP3    H246486   3.345   1.737  11.656 -2.0250  0.3054 -1.2956
 7431TIP3   OH246487   0.314   2.091  10.425 -0.0996 -0.2557 -0.2490
 7431TIP3    H146488   0.375   2.022  10.401  1.0087 -0.0474  1.7433
 7431TIP3    H246489   0.366   2.171  10.429 -1.5679  1.0669 -3.6271
 7432TIP3   OH246490   1.141   7.216  12.716  0.3260  0.1072  0.5514
 7432TIP3    H146491   1.156   7.214  12.621 -0.0703  0.6999  0.4713
 7432TIP3    H246492   1.091   7.137  12.734 -0.6241  0.5889  0.0790
 7433TIP3   OH246493   7.942   7.832  10.992  0.1538 -0.5722  0.0096
 7433TIP3    H146494   7.916   7.918  10.960  3.0237  0.5822  0.4927
 7433TIP3    H246495   8.006   7.801  10.927  0.9660 -1.2282  1.0917
 7434TIP3   OH246496   2.756   2.529  11.484  0.3889  0.5054 -0.0239
 7434TIP3    H146497   2.723   2.498  11.399  1.9268  0.3035 -0.5833
 7434TIP3    H246498   2.721   2.466  11.547 -0.6428  0.5569 -0.5146
 7435TIP3   OH246499   7.762   4.251  11.592 -0.9744 -0.0840 -0.4142
 7435TIP3    H146500   7.745   4.306  11.668 -0.7415 -1.6608  0.8143
 7435TIP3    H246501   7.796   4.169  11.628  0.0345 -0.5351 -2.2670
 7436TIP3   OH246502   4.308   0.665  11.457  0.3866  0.1678  0.2588
 7436TIP3    H146503   4.322   0.708  11.542 -0.6170  0.5293  0.2574
 7436TIP3    H246504   4.237   0.715  11.417 -0.8920 -1.5435  0.2972
 7437TIP3   OH246505   5.417   1.458  11.215 -0.2169  0.6901  0.0670
 7437TIP3    H146506   5.483   1.455  11.284 -1.5726  0.7577  1.4112
 7437TIP3    H246507   5.413   1.368  11.183 -2.0608 -0.2339  2.5819
 7438TIP3   OH246508   6.704   4.492  10.940 -0.4024  0.1996 -0.3703
 7438TIP3    H146509   6.759   4.416  10.920 -0.2450  0.1377  0.2859
 7438TIP3    H246510   6.712   4.504  11.034 -1.1095  0.5087 -0.3390
 7439TIP3   OH246511   6.493   0.053  11.009 -0.8332  0.4599  0.8909
 7439TIP3    H146512   6.538   0.084  10.931  0.4380  0.3337  1.5496
 7439TIP3    H246513   6.443   0.129  11.040 -1.3384  0.5136 -0.0186
 7440TIP3   OH246514   7.808   4.662  12.283  0.0360 -0.5143 -0.0422
 7440TIP3    H146515   7.903   4.666  12.273 -0.0606  1.6982 -0.6114
 7440TIP3    H246516   7.786   4.743  12.330 -1.5506 -1.0957  0.2677
 7441TIP3   OH246517   1.828   0.827  12.370  0.0983  0.0718 -0.0251
 7441TIP3    H146518   1.840   0.897  12.306 -1.9961  2.3050  1.8311
 7441TIP3    H246519   1.781   0.759  12.322 -2.6086  2.2188 -0.7380
 7442TIP3   OH246520   8.401   7.088  10.855 -0.1287  0.0172 -0.4508
 7442TIP3    H146521   8.421   7.164  10.910  0.3715 -1.2252  1.1436
 7442TIP3    H246522   8.462   7.020  10.885 -0.4736 -0.9916 -1.9351
 7443TIP3   OH246523   3.540   1.339  10.859 -0.1005 -0.5370  0.0484
 7443TIP3    H146524   3.455   1.361  10.823 -0.8611  0.4039  2.2234
 7443TIP3    H246525   3.532   1.247  10.887  0.2672 -1.0473 -1.4519
 7444TIP3   OH246526   8.002   1.560  12.774  0.0409  0.0224  0.0270
 7444TIP3    H146527   8.036   1.603  12.696  1.5326 -0.6522  0.2697
 7444TIP3    H246528   7.939   1.622  12.811  1.8494  1.8352  0.1822
 7445TIP3   OH246529   3.209   7.385  11.005 -0.3028  0.2277  0.2477
 7445TIP3    H146530   3.234   7.378  10.913 -0.8584 -0.1782  0.1250
 7445TIP3    H246531   3.250   7.467  11.034  1.4378 -0.5625  0.1563
 7446TIP3   OH246532   1.371   2.692  10.763 -0.6659 -0.3472  0.3719
 7446TIP3    H146533   1.315   2.626  10.805 -0.4670  0.0008  1.1955
 7446TIP3    H246534   1.443   2.642  10.724 -1.4107 -0.7793 -0.5037
 7447TIP3   OH246535   8.061   1.185  12.628 -0.0990  0.2857  0.5315
 7447TIP3    H146536   8.119   1.114  12.602  1.0187  1.2526  0.2377
 7447TIP3    H246537   8.060   1.245  12.553 -2.4514 -0.2399  0.0655
 7448TIP3   OH246538   7.809   0.178  10.996 -0.1034  0.4951 -0.3063
 7448TIP3    H146539   7.878   0.181  10.930  0.2994  0.6370  0.1113
 7448TIP3    H246540   7.830   0.100  11.048  0.3709  1.1339  0.4841
 7449TIP3   OH246541   5.762   0.508  11.699 -0.1193 -0.5061 -0.1740
 7449TIP3    H146542   5.769   0.430  11.645 -0.6222 -1.0756  0.5635
 7449TIP3    H246543   5.766   0.476  11.789 -0.8661  0.2427  0.1449
 7450TIP3   OH246544   2.606   2.752  12.632  0.3286  0.8007  0.0681
 7450TIP3    H146545   2.671   2.817  12.606  1.1068 -0.1191 -0.3334
 7450TIP3    H246546   2.626   2.733  12.724  0.4991  0.6573  0.0004
 7451TIP3   OH246547   3.035   2.769  12.665  0.6625 -0.2091 -0.5944
 7451TIP3    H146548   3.106   2.819  12.624  0.1264  1.1244  0.0477
 7451TIP3    H246549   3.012   2.820  12.743 -3.4779  1.4600 -2.6245
 7452TIP3   OH246550   6.107   5.015  12.256  0.1289 -0.3419 -0.3287
 7452TIP3    H146551   6.184   5.053  12.298 -0.5681 -0.4781  1.1554
 7452TIP3    H246552   6.035   5.036  12.316 -1.1896  0.7267 -2.1953
 7453TIP3   OH246553   4.957   1.391  11.693  0.7697  0.0628 -0.1033
 7453TIP3    H146554   4.945   1.422  11.783  0.2589  1.5342 -0.6461
 7453TIP3    H246555   4.894   1.442  11.642 -0.0476 -1.8121 -1.1058
 7454TIP3   OH246556   5.724   1.605  11.851 -0.2987 -0.0899 -0.1440
 7454TIP3    H146557   5.782   1.637  11.782 -0.7133  0.7955 -0.1041
 7454TIP3    H246558   5.694   1.520  11.820 -0.0455  0.0552 -0.8051
 7455TIP3   OH246559   2.364   0.645  11.532  0.0603  0.6706  0.4311
 7455TIP3    H146560   2.319   0.615  11.453  0.1809  2.0732 -0.1983
 7455TIP3    H246561   2.294   0.681  11.586  0.2465  1.8280 -0.0640
 7456TIP3   OH246562   4.185   0.157  12.315  0.1039 -0.2755  0.2186
 7456TIP3    H146563   4.096   0.121  12.313  0.3794 -0.9725 -2.3662
 7456TIP3    H246564   4.242   0.080  12.320  0.5946  0.0299 -0.4868
 7457TIP3   OH246565   1.396   7.483  10.495 -0.2354  0.3293 -0.0226
 7457TIP3    H146566   1.414   7.432  10.574 -1.6668  1.3153  1.0040
 7457TIP3    H246567   1.478   7.530  10.478 -0.3327  1.2447  1.7880
 7458TIP3   OH246568   5.727   0.178  12.430 -0.6274  0.2398 -0.0350
 7458TIP3    H146569   5.780   0.249  12.466 -1.1546  0.2186  0.8033
 7458TIP3    H246570   5.792   0.115  12.397 -0.1251  0.2680  0.8620
 7459TIP3   OH246571   0.934   2.974  12.752  0.1423  0.3556  0.1608
 7459TIP3    H146572   0.870   2.913  12.788  0.5158 -0.4551 -0.5205
 7459TIP3    H246573   1.005   2.918  12.720  1.0584  1.2106  0.6192
 7460TIP3   OH246574   0.058   7.201  12.718  0.3717  0.0615  0.6048
 7460TIP3    H146575   0.029   7.234  12.803  2.5494  0.2063  1.3585
 7460TIP3    H246576   0.099   7.278  12.676  0.5658 -0.3457  0.0367
 7461TIP3   OH246577   4.449   4.230  12.568  0.2002 -0.1373  0.8246
 7461TIP3    H146578   4.363   4.244  12.528  0.8382  0.7583 -0.2814
 7461TIP3    H246579   4.497   4.180  12.503  0.4995 -0.7315  1.4873
 7462TIP3   OH246580   2.211   6.724  11.489  0.1074  0.2947  0.1525
 7462TIP3    H146581   2.223   6.805  11.441  1.0631  1.0061  1.5154
 7462TIP3    H246582   2.288   6.718  11.546  0.7494 -2.2570 -0.8512
 7463TIP3   OH246583   2.957   2.768  12.015 -0.1676  0.3988 -0.5448
 7463TIP3    H146584   2.962   2.860  12.041  0.9138 -0.1609  1.4169
 7463TIP3    H246585   3.037   2.753  11.965 -1.2211  0.9411 -2.4653
 7464TIP3   OH246586   3.710   4.912  10.843 -0.3246 -0.0264 -0.0651
 7464TIP3    H146587   3.672   4.972  10.780  0.4146 -0.3022 -0.7947
 7464TIP3    H246588   3.803   4.907  10.819  0.2088  0.6431  1.6644
 7465TIP3   OH246589   4.364   6.632  10.508  0.1401 -0.6721 -0.5355
 7465TIP3    H146590   4.400   6.564  10.565  1.2047  0.8566  0.6608
 7465TIP3    H246591   4.398   6.611  10.421  2.7299 -0.1780  0.2775
 7466TIP3   OH246592   5.723   5.867  12.233 -0.7149  0.7628  0.1766
 7466TIP3    H146593   5.730   5.773  12.249 -2.3174  0.6684  0.4072
 7466TIP3    H246594   5.788   5.884  12.164 -0.1165 -0.4199  0.4207
 7467TIP3   OH246595   1.065   4.182  10.670  0.0124  0.5290  0.2853
 7467TIP3    H146596   1.146   4.215  10.708  0.4044  0.2012 -0.2468
 7467TIP3    H246597   0.997   4.203  10.734  0.6592 -0.0454  1.1630
 7468TIP3   OH246598   1.043   4.116  12.004 -0.5405 -0.0500  0.3171
 7468TIP3    H146599   1.098   4.124  11.926 -1.7324 -0.0726 -0.5577
 7468TIP3    H246600   0.997   4.200  12.010  0.4868  0.4485  1.7753
 7469TIP3   OH246601   3.417   6.317  12.364  0.0316 -0.2947  0.0099
 7469TIP3    H146602   3.347   6.305  12.429  0.5073  2.4911  1.1796
 7469TIP3    H246603   3.498   6.310  12.416  0.5167 -0.4651 -0.7619
 7470TIP3   OH246604   5.187   0.954  11.350  0.8840 -0.2419  0.0469
 7470TIP3    H146605   5.201   0.969  11.256 -1.6474  0.0266 -0.3560
 7470TIP3    H246606   5.103   0.995  11.369  1.5863  0.2057  2.6083
 7471TIP3   OH246607   6.637   2.059  10.491  0.0036 -0.0669 -0.3676
 7471TIP3    H146608   6.702   1.991  10.510  1.7191  0.9672 -2.1265
 7471TIP3    H246609   6.687   2.127  10.446 -1.9262  1.7590  0.1155
 7472TIP3   OH246610   0.967   5.039  10.742 -0.3069  0.2916 -0.3009
 7472TIP3    H146611   0.947   5.133  10.744 -2.0978 -0.0657  0.5279
 7472TIP3    H246612   1.052   5.032  10.787 -0.1701  1.5010 -0.3368
 7473TIP3   OH246613   6.346   6.103  11.521 -0.2078  0.2096  0.1208
 7473TIP3    H146614   6.404   6.030  11.541  0.8206  0.5408 -1.4588
 7473TIP3    H246615   6.298   6.075  11.444 -0.9600  0.6018  0.4342
 7474TIP3   OH246616   8.238   2.819  11.748 -0.5519 -0.3814  0.6311
 7474TIP3    H146617   8.172   2.873  11.705  0.0987 -0.9900 -1.2450
 7474TIP3    H246618   8.206   2.807  11.837 -1.3099  2.0651  0.7509
 7475TIP3   OH246619   1.050   2.589  11.152  0.1164  0.4346  0.0800
 7475TIP3    H146620   1.087   2.580  11.240  1.2249 -1.0672 -0.4965
 7475TIP3    H246621   0.959   2.559  11.162  0.5467 -0.7868  0.5152
 7476TIP3   OH246622   0.256   0.152  12.002 -0.1795 -0.1979  0.5070
 7476TIP3    H146623   0.264   0.074  12.056  0.3391 -1.3440 -1.1284
 7476TIP3    H246624   0.176   0.139  11.952 -0.3052  0.5187  0.5118
 7477TIP3   OH246625   0.388   6.075  11.595  0.3367 -0.2853  0.1344
 7477TIP3    H146626   0.298   6.051  11.574  0.0703  1.4399 -0.9103
 7477TIP3    H246627   0.389   6.085  11.690 -1.6871  3.4425 -0.0692
 7478TIP3   OH246628   3.385   7.512  10.530  0.5179 -0.1899 -0.0906
 7478TIP3    H146629   3.344   7.596  10.506 -0.1501 -0.7907 -1.1307
 7478TIP3    H246630   3.320   7.446  10.508  1.5358 -1.0822 -0.5225
 7479TIP3   OH246631   1.829   4.855  15.741  0.1764 -0.1611 -0.5431
 7479TIP3    H146632   1.914   4.811  15.751 -0.9896 -2.2687  0.8038
 7479TIP3    H246633   1.765   4.784  15.748 -1.7762  1.5968  0.2325
 7480TIP3   OH246634   7.190   5.929  11.220 -0.0536 -0.3953  0.2291
 7480TIP3    H146635   7.126   5.883  11.275 -0.4460 -0.4263 -0.2509
 7480TIP3    H246636   7.252   5.967  11.283  1.4093 -3.1598  0.6414
 7481TIP3   OH246637   5.261   4.223  12.050 -0.5382  0.1025 -0.6117
 7481TIP3    H146638   5.311   4.179  11.981 -0.1458 -0.6710  0.1436
 7481TIP3    H246639   5.271   4.166  12.126 -2.8995 -0.2766 -0.5102
 7482TIP3   OH246640   5.370   6.760  10.117 -0.2956  0.1624 -0.5258
 7482TIP3    H146641   5.407   6.835  10.164 -0.5837 -0.0298  0.0118
 7482TIP3    H246642   5.346   6.796  10.031 -2.6827  1.3197  0.5374
 7483TIP3   OH246643   7.233   1.336  11.248 -0.1566 -0.0856  0.0717
 7483TIP3    H146644   7.152   1.350  11.297 -1.1637  0.9910 -1.7890
 7483TIP3    H246645   7.300   1.321  11.316 -1.9109 -1.2706  1.6499
 7484TIP3   OH246646   5.529   3.029  11.584 -0.1849 -0.2735  0.0477
 7484TIP3    H146647   5.471   2.954  11.597 -0.5131 -0.0281  0.0135
 7484TIP3    H246648   5.601   3.015  11.646  1.4660 -2.2860 -2.1442
 7485TIP3   OH246649   5.236   0.623  11.721 -0.1587  0.0650 -0.6602
 7485TIP3    H146650   5.170   0.604  11.787  0.6241 -1.6192 -0.3032
 7485TIP3    H246651   5.205   0.703  11.678 -2.7895 -1.0325 -0.9981
 7486TIP3   OH246652   0.594   6.221  11.776 -0.0544  0.1803  0.1780
 7486TIP3    H146653   0.645   6.140  11.783  0.2615  0.3123 -0.4522
 7486TIP3    H246654   0.505   6.197  11.801  0.7280  0.4499  3.7188
 7487TIP3   OH246655   8.360   3.438  11.434  0.3247 -0.0793  0.5142
 7487TIP3    H146656   8.428   3.415  11.497 -0.0808  1.9007  1.7653
 7487TIP3    H246657   8.315   3.355  11.416  1.4872 -0.9706  1.5836
 7488TIP3   OH246658   3.417   5.622  10.491  0.1778 -0.1363  0.0789
 7488TIP3    H146659   3.430   5.717  10.482 -1.3843 -0.0442 -2.0150
 7488TIP3    H246660   3.506   5.585  10.487  0.7294  1.1710 -0.4841
 7489TIP3   OH246661   2.930   4.443  10.622 -0.0008  0.3727 -0.3015
 7489TIP3    H146662   2.888   4.457  10.707 -0.6365  0.0337 -0.5489
 7489TIP3    H246663   2.923   4.527  10.578 -0.2793  0.3644 -0.2757
 7490TIP3   OH246664   3.681   0.204  12.799  0.2077  0.0007 -0.3254
 7490TIP3    H146665   3.671   0.279  12.740  0.5281  1.3545  1.2892
 7490TIP3    H246666   3.775   0.201  12.819  0.2003 -0.8484 -0.3805
 7491TIP3   OH246667   3.124   2.993  10.767  0.1615  0.0421  0.1993
 7491TIP3    H146668   3.082   3.079  10.758  0.1918 -0.0103 -0.4649
 7491TIP3    H246669   3.187   2.990  10.696  1.2350  0.0722  1.1311
 7492TIP3   OH246670   3.539   8.430  12.481 -0.1641 -0.3522 -0.2966
 7492TIP3    H146671   3.627   8.428  12.444 -0.3458 -1.0385 -0.7109
 7492TIP3    H246672   3.494   8.501  12.435  0.1796  0.0097 -0.0699
 7493TIP3   OH246673   6.997   4.139  10.970 -0.2751  0.4109  0.5658
 7493TIP3    H146674   6.964   4.226  10.949  1.0530  0.8513  0.2185
 7493TIP3    H246675   7.057   4.153  11.043 -0.4238 -0.2990  0.8383
 7494TIP3   OH246676   4.848   1.790  11.797 -0.2098  0.8447  0.0300
 7494TIP3    H146677   4.912   1.839  11.746  1.6390 -1.8131 -0.4297
 7494TIP3    H246678   4.796   1.743  11.732  0.7702 -0.9334  0.4853
 7495TIP3   OH246679   7.286   3.852  11.870 -0.0994  0.8745  0.5286
 7495TIP3    H146680   7.234   3.774  11.851  2.4254 -1.0627  0.8834
 7495TIP3    H246681   7.222   3.919  11.893 -2.4360 -0.9272 -0.2947
 7496TIP3   OH246682   6.546   6.679  12.720  0.4741  0.2121  0.0500
 7496TIP3    H146683   6.626   6.645  12.681  0.4795 -0.3574  0.5422
 7496TIP3    H246684   6.576   6.742  12.786  0.4457  1.8198 -1.4135
 7497TIP3   OH246685   5.428   0.390  12.331 -0.0160  0.1558  0.2423
 7497TIP3    H146686   5.336   0.399  12.353  0.1714 -0.4116  1.3436
 7497TIP3    H246687   5.450   0.300  12.355  0.9954  0.5088  0.7056
 7498TIP3   OH246688   0.074   1.508  11.864 -0.1708  0.3460  0.5616
 7498TIP3    H146689   0.054   1.509  11.771  1.9660 -0.6885  0.0030
 7498TIP3    H246690   0.102   1.598  11.884  2.6325 -0.1375 -0.7025
 7499TIP3   OH246691   0.926   5.054  12.556 -0.2638  0.0257 -0.1916
 7499TIP3    H146692   0.889   5.099  12.480  0.4834  1.2167  0.1195
 7499TIP3    H246693   0.893   5.103  12.631 -0.5171 -0.7772  0.2360
 7500TIP3   OH246694   5.030   4.696  11.066  0.4772 -0.0749  0.1970
 7500TIP3    H146695   4.955   4.725  11.014  1.0152  0.5711 -0.2321
 7500TIP3    H246696   5.008   4.721  11.156 -0.3252 -0.9287  0.2440
 7501TIP3   OH246697   3.946   6.965  11.648 -0.0948 -0.4059 -0.1889
 7501TIP3    H146698   3.942   6.899  11.579 -0.6790 -1.7327  1.0729
 7501TIP3    H246699   3.918   6.919  11.727  0.6306  1.0546  0.9610
 7502TIP3   OH246700   4.983   3.415  10.961  0.3306  0.3760  0.0415
 7502TIP3    H146701   5.009   3.452  11.045 -1.3231  2.4238 -0.2638
 7502TIP3    H246702   4.904   3.365  10.981  1.8851 -2.1729  0.2360
 7503TIP3   OH246703   7.184   6.443  11.754  0.1090  0.5105 -0.1629
 7503TIP3    H146704   7.109   6.477  11.705  0.7857 -0.7721 -2.1772
 7503TIP3    H246705   7.251   6.511  11.744 -0.5816  1.4667  1.2934
 7504TIP3   OH246706   5.155   0.369  12.206  0.2836  0.1321  0.3287
 7504TIP3    H146707   5.065   0.348  12.180  0.4689 -1.3354  0.7542
 7504TIP3    H246708   5.209   0.309  12.155  0.9791  0.5778  0.5304
 7505TIP3   OH246709   2.625   0.486  12.307  0.3613 -0.6794  0.1416
 7505TIP3    H146710   2.572   0.541  12.250  0.2958 -0.4009  0.4646
 7505TIP3    H246711   2.715   0.510  12.288  0.3179 -0.0389  0.6846
 7506TIP3   OH246712   8.170   3.403  12.728  0.1225 -0.3403  0.3418
 7506TIP3    H146713   8.134   3.488  12.752 -0.3619 -0.7435  1.0539
 7506TIP3    H246714   8.119   3.339  12.778  0.9570 -1.0041  0.3754
 7507TIP3   OH246715   0.049   7.528  10.734 -0.0502  0.3885  0.2884
 7507TIP3    H146716  -0.010   7.591  10.774 -0.9770 -1.4778  2.0732
 7507TIP3    H246717  -0.007   7.477  10.675  0.8090  1.5170 -1.6132
 7508TIP3   OH246718   3.380   4.304  11.812  0.4440 -0.6057  0.2627
 7508TIP3    H146719   3.317   4.233  11.800  0.6990 -1.0359  1.3497
 7508TIP3    H246720   3.350   4.350  11.890  0.2270  0.5635 -0.4866
 7509TIP3   OH246721   2.456   8.072  12.053  0.1575  0.1117  0.0088
 7509TIP3    H146722   2.515   8.120  12.112  0.0957 -0.4763  0.5663
 7509TIP3    H246723   2.514   8.024  11.995  0.2509 -0.8962  0.9101
 7510TIP3   OH246724   0.722   2.821  12.855  0.4764  0.1998  0.1987
 7510TIP3    H146725   0.676   2.901  12.879  0.7568  0.1617  0.8671
 7510TIP3    H246726   0.678   2.751  12.903  0.1442 -0.0744 -0.4882
 7511TIP3   OH246727   7.195   2.000  12.562  0.2732  0.0251  0.2936
 7511TIP3    H146728   7.114   2.030  12.521  1.2618  1.5667 -0.6452
 7511TIP3    H246729   7.171   1.917  12.605 -1.8448  0.5818  0.3088
 7512TIP3   OH246730   6.386   0.674  10.836  0.1045 -0.3539 -0.7668
 7512TIP3    H146731   6.354   0.762  10.818 -1.1973 -0.9168 -1.3262
 7512TIP3    H246732   6.310   0.628  10.872 -0.0718 -2.0137 -3.0367
 7513TIP3   OH246733   1.050   3.289  10.964 -0.3843  0.3779 -0.7268
 7513TIP3    H146734   1.074   3.197  10.953  0.1746  0.2318  1.3149
 7513TIP3    H246735   1.132   3.334  10.983 -0.6328  1.3542 -1.8389
 7514TIP3   OH246736   0.690   4.523  10.920 -0.3011  0.5704 -0.3479
 7514TIP3    H146737   0.609   4.498  10.965 -0.3398  1.5290  0.1405
 7514TIP3    H246738   0.662   4.551  10.833 -0.3165 -0.5121 -0.7073
 7515TIP3   OH246739   5.375   6.877  11.902 -0.2058  0.4175 -0.8863
 7515TIP3    H146740   5.448   6.818  11.914 -0.2707  0.2213 -1.4048
 7515TIP3    H246741   5.370   6.928  11.983  0.9940  0.9830 -1.1499
 7516TIP3   OH246742   7.080   7.330  10.987 -0.6611  0.0298  0.5176
 7516TIP3    H146743   7.097   7.424  10.988 -1.2095  0.2025 -1.5953
 7516TIP3    H246744   7.166   7.290  11.003 -0.4528  0.8731  1.5863
 7517TIP3   OH246745   4.107   2.089  12.020 -0.1367 -0.5558 -0.2969
 7517TIP3    H146746   4.024   2.123  12.052 -0.1027 -0.0854 -0.6931
 7517TIP3    H246747   4.084   2.007  11.975 -0.3733 -0.4752 -0.3214
 7518TIP3   OH246748   6.290   6.677  12.676  0.2519 -0.0492  0.0710
 7518TIP3    H146749   6.248   6.600  12.638  0.5938 -0.3859  0.3609
 7518TIP3    H246750   6.383   6.653  12.682  0.3675  0.3975  0.1326
 7519TIP3   OH246751   3.140   3.588  11.896 -0.4989  0.0283 -0.0021
 7519TIP3    H146752   3.210   3.653  11.901  0.6080 -1.1218  0.0162
 7519TIP3    H246753   3.127   3.560  11.987 -0.2987 -0.4602 -0.1217
 7520TIP3   OH246754   0.626   1.275  11.458  0.0116 -0.2437  0.5213
 7520TIP3    H146755   0.652   1.317  11.377  0.6677 -3.2156 -0.9578
 7520TIP3    H246756   0.708   1.243  11.496 -0.6134 -3.1213 -0.2817
 7521TIP3   OH246757   3.799   4.706  11.327 -0.4051  0.4929 -0.3199
 7521TIP3    H146758   3.878   4.750  11.297  0.5043  0.3120  1.6057
 7521TIP3    H246759   3.742   4.776  11.357 -0.6500  0.5826 -0.9992
 7522TIP3   OH246760   0.213   5.019  10.737 -0.2539 -0.1404  0.0776
 7522TIP3    H146761   0.118   5.014  10.734 -0.2725  0.6098 -1.0660
 7522TIP3    H246762   0.232   5.075  10.812 -0.7314  0.1435 -0.0125
 7523TIP3   OH246763   6.176   5.699  12.254 -0.0245  0.2237 -0.1319
 7523TIP3    H146764   6.264   5.731  12.234 -0.3055 -0.1138 -2.0532
 7523TIP3    H246765   6.155   5.739  12.339  1.8297  0.5854  0.1998
 7524TIP3   OH246766   0.497   4.754  12.319 -0.1676  0.2711  0.3541
 7524TIP3    H146767   0.542   4.726  12.399  0.4506  0.1469 -0.0333
 7524TIP3    H246768   0.419   4.698  12.315 -1.3875  1.7026  1.9967
 7525TIP3   OH246769   4.701   3.815  12.371  0.6135 -1.3741 -0.3040
 7525TIP3    H146770   4.750   3.897  12.361  0.2391 -1.1105  0.0093
 7525TIP3    H246771   4.696   3.802  12.466 -2.1050 -0.0698 -0.1798
 7526TIP3   OH246772   4.896   0.942  11.384  0.0701  0.2353  0.2665
 7526TIP3    H146773   4.893   0.914  11.475 -3.1780 -1.9202 -0.3555
 7526TIP3    H246774   4.910   0.862  11.334 -2.2074  0.7057 -1.2706
 7527TIP3   OH246775   3.273   0.093  11.609  0.7718 -0.3688  0.2221
 7527TIP3    H146776   3.270   0.130  11.521  0.1383 -0.0636  0.3648
 7527TIP3    H246777   3.313   0.007  11.598 -0.8026 -1.0455 -0.6341
 7528TIP3   OH246778   3.085   4.916  12.022  0.3352  0.0170 -0.2578
 7528TIP3    H146779   3.072   4.821  12.023 -2.7030  0.3266  0.0707
 7528TIP3    H246780   3.125   4.934  11.937  1.0702 -1.5334 -0.2786
 7529TIP3   OH246781   2.111   0.949  12.398  0.3828 -0.6574  0.6904
 7529TIP3    H146782   2.033   0.895  12.404 -0.4015  0.4356  0.6435
 7529TIP3    H246783   2.140   0.960  12.489 -0.4258  0.2004  0.8563
 7530TIP3   OH246784   1.709   7.738  10.995  0.5978 -0.3461  0.0870
 7530TIP3    H146785   1.632   7.681  10.992  0.6888 -0.4448 -0.7133
 7530TIP3    H246786   1.766   7.704  10.926  1.4284 -0.3641  0.7719
 7531TIP3   OH246787   1.875   0.126  11.847  0.7587 -0.2997 -0.5008
 7531TIP3    H146788   1.894   0.123  11.941  0.1625  1.9852 -0.2326
 7531TIP3    H246789   1.935   0.193  11.814  1.4648 -1.5816 -1.9260
 7532TIP3   OH246790   6.050   0.424  11.975  0.3071 -0.0216  0.5476
 7532TIP3    H146791   5.985   0.354  11.963  1.4528 -1.2358  1.0738
 7532TIP3    H246792   6.010   0.483  12.039  0.2671 -1.5591  2.0483
 7533TIP3   OH246793   1.121   4.722  11.133  0.0367  0.3194 -0.1209
 7533TIP3    H146794   1.033   4.724  11.095 -0.8886 -1.7134  1.6526
 7533TIP3    H246795   1.155   4.636  11.108 -0.0749 -0.5065  2.3155
 7534TIP3   OH246796   4.456   6.117  10.306 -0.3219  0.0918  0.1657
 7534TIP3    H146797   4.365   6.110  10.335 -0.6367 -0.1528 -0.8483
 7534TIP3    H246798   4.504   6.060  10.365 -0.7244  0.7146  1.1177
 7535TIP3   OH246799   0.065   6.228  11.060 -0.4679 -0.3260 -0.4781
 7535TIP3    H146800   0.063   6.321  11.039 -1.3062  0.0100  0.9594
 7535TIP3    H246801   0.107   6.223  11.146 -0.4451 -1.2730 -0.5263
 7536TIP3   OH246802   3.150   6.591  10.681 -0.2703  0.2467 -0.1444
 7536TIP3    H146803   3.235   6.622  10.650  1.0661 -2.4297  0.5223
 7536TIP3    H246804   3.138   6.633  10.766 -0.2315  1.5618 -0.7685
 7537TIP3   OH246805   7.753   5.948  10.764  0.1326  0.6091  0.3086
 7537TIP3    H146806   7.785   5.952  10.674  0.3425  0.8614  0.3933
 7537TIP3    H246807   7.771   6.035  10.800  1.9013 -0.0720  1.2212
 7538TIP3   OH246808   0.711   1.876  10.655  0.0874 -0.1075  0.3405
 7538TIP3    H146809   0.701   1.935  10.580 -1.4263  0.7473  1.1631
 7538TIP3    H246810   0.745   1.795  10.617 -1.1270  0.1176 -1.3648
 7539TIP3   OH246811   5.523   3.846  10.502  0.2676 -0.4327 -0.6625
 7539TIP3    H146812   5.445   3.800  10.471 -0.7813  1.4559 -1.0272
 7539TIP3    H246813   5.556   3.793  10.574  1.0893 -3.4700 -3.0787
 7540TIP3   OH246814   5.402   3.035  11.977 -0.2974  0.5378 -0.2523
 7540TIP3    H146815   5.495   3.034  12.002 -0.3507  2.3644  0.1018
 7540TIP3    H246816   5.396   2.969  11.908  1.4190  0.8850 -0.7932
 7541TIP3   OH246817   1.248   1.603  11.500  0.7993  0.1103 -0.2411
 7541TIP3    H146818   1.342   1.616  11.505  1.0506 -0.8309 -1.7765
 7541TIP3    H246819   1.238   1.514  11.467 -0.6831 -0.6498  2.0020
 7542TIP3   OH246820   0.343   3.506  11.089 -0.0367  0.5221 -0.2803
 7542TIP3    H146821   0.361   3.588  11.136  2.7124 -0.1383  0.0022
 7542TIP3    H246822   0.260   3.476  11.126 -0.2158  2.2661  0.9060
 7543TIP3   OH246823   5.665   3.388  11.812  0.1260  0.1413  0.5606
 7543TIP3    H146824   5.752   3.365  11.779 -0.5773 -0.8482 -0.7084
 7543TIP3    H246825   5.656   3.481  11.791  1.1410  0.4532  1.3876
 7544TIP3   OH246826   8.430   2.354  12.350  0.5876  0.4704  0.0848
 7544TIP3    H146827   8.525   2.358  12.367  0.8066 -0.8615 -0.6649
 7544TIP3    H246828   8.416   2.418  12.281  1.3345 -0.7636 -1.2665
 7545TIP3   OH246829   7.361   5.190  11.069 -0.7055  0.1209 -0.0473
 7545TIP3    H146830   7.336   5.269  11.117 -0.6399  0.0111  0.1649
 7545TIP3    H246831   7.338   5.210  10.978 -0.3866  0.5161 -0.0457
 7546TIP3   OH246832   5.058   2.705  12.086  0.2190 -0.6264 -1.3112
 7546TIP3    H146833   5.007   2.656  12.151  1.8471 -0.7388 -0.0518
 7546TIP3    H246834   5.134   2.737  12.134 -0.0449  1.9442 -2.4386
 7547TIP3   OH246835   1.343   1.071  12.346 -0.3521 -0.0245 -0.3105
 7547TIP3    H146836   1.434   1.046  12.327  0.1699  0.0046  1.8877
 7547TIP3    H246837   1.312   1.003  12.406 -0.7918  1.4883  1.2583
 7548TIP3   OH246838   7.115   7.133  12.753  0.3065 -0.1664  0.1841
 7548TIP3    H146839   7.133   7.127  12.847  1.6706 -0.0945 -0.0622
 7548TIP3    H246840   7.189   7.181  12.717 -0.1454 -0.2974 -0.9569
 7549TIP3   OH246841   4.827   1.120  11.683  0.1922  0.0699  0.3962
 7549TIP3    H146842   4.901   1.179  11.669  0.3399 -0.2151 -0.0485
 7549TIP3    H246843   4.863   1.033  11.668 -0.0316 -0.1352  1.0308
 7550TIP3   OH246844   7.903   3.615  10.828 -0.3728  0.5877 -0.7561
 7550TIP3    H146845   7.982   3.664  10.851 -0.3667  0.4451 -0.4752
 7550TIP3    H246846   7.831   3.669  10.860 -0.3506  0.1637  0.0436
 7551TIP3   OH246847   5.969   4.896  11.284  0.4803  0.3618 -0.5127
 7551TIP3    H146848   6.016   4.824  11.325 -1.1532 -0.4940 -0.0764
 7551TIP3    H246849   5.946   4.864  11.197  0.5134  0.6991 -0.6485
 7552TIP3   OH246850   1.485   7.012  12.701  0.0606 -0.1021 -0.5685
 7552TIP3    H146851   1.528   7.034  12.619  0.2333  0.4871 -0.3248
 7552TIP3    H246852   1.446   7.095  12.731  0.7064 -0.1207  0.3590
 7553TIP3   OH246853   0.743   0.488  12.356 -0.1645  0.0267  0.1571
 7553TIP3    H146854   0.759   0.417  12.418 -2.1978  0.4562  1.2787
 7553TIP3    H246855   0.731   0.444  12.272  2.6155 -0.5725 -0.0019
 7554TIP3   OH246856   1.244   2.836  12.062  0.3758 -0.2471  0.1869
 7554TIP3    H146857   1.293   2.760  12.091  0.3224 -0.3851 -0.0878
 7554TIP3    H246858   1.207   2.811  11.977  1.2890  0.4743 -0.4479
 7555TIP3   OH246859   3.296   3.470  10.525 -0.5989 -0.2135 -0.3097
 7555TIP3    H146860   3.387   3.498  10.534 -0.4617 -0.9399  0.6626
 7555TIP3    H246861   3.273   3.432  10.609 -1.2822 -1.5641 -1.0610
 7556TIP3   OH246862   3.187   2.067  10.653 -0.5733 -0.2148  0.0714
 7556TIP3    H146863   3.098   2.093  10.673 -0.2909  0.0957  0.9588
 7556TIP3    H246864   3.214   2.128  10.583 -1.3162 -0.8391 -0.7791
 7557TIP3   OH246865   7.322   7.363  11.705  0.4251 -0.8412  0.3146
 7557TIP3    H146866   7.371   7.328  11.631 -0.1685  0.2636 -0.6381
 7557TIP3    H246867   7.389   7.402  11.762  0.6941  0.7711 -1.0354
 7558TIP3   OH246868   5.416   3.369  11.249 -0.0098  0.1438 -0.2743
 7558TIP3    H146869   5.396   3.428  11.176  0.3209  0.5618 -0.0343
 7558TIP3    H246870   5.437   3.428  11.322  0.9513 -0.2665 -0.2027
 7559TIP3   OH246871   3.818   0.335  11.783 -0.0469 -0.8201  0.0416
 7559TIP3    H146872   3.728   0.305  11.793 -0.3354  0.6939  3.0615
 7559TIP3    H246873   3.871   0.270  11.828  0.0196 -0.1775  0.9124
 7560TIP3   OH246874   7.062   3.891  11.600 -0.4246 -0.4150  0.0876
 7560TIP3    H146875   6.967   3.887  11.613 -0.6504  0.4741 -1.0713
 7560TIP3    H246876   7.092   3.801  11.611 -1.6010 -0.9557 -0.8565
 7561TIP3   OH246877   5.227   1.465  11.547  0.1766  0.4230  0.3913
 7561TIP3    H146878   5.233   1.378  11.588  3.1815 -0.0723 -0.8944
 7561TIP3    H246879   5.282   1.521  11.601 -0.4101  1.1741  0.2282
 7562TIP3   OH246880   7.959   2.192  10.220  0.1243 -0.1693  0.0507
 7562TIP3    H146881   8.010   2.181  10.301  0.3595  3.0008  0.4618
 7562TIP3    H246882   8.023   2.219  10.154 -0.3143 -1.1176 -0.7824
 7563TIP3   OH246883   0.220   2.576  10.901 -0.2919 -0.0304 -0.0919
 7563TIP3    H146884   0.167   2.648  10.865  0.1888  1.3642  1.7976
 7563TIP3    H246885   0.305   2.616  10.919 -0.1126 -0.9660  1.3199
 7564TIP3   OH246886   3.541   3.005  10.596 -0.1775 -0.0558 -0.7271
 7564TIP3    H146887   3.610   2.947  10.629  0.3188  1.4128  1.0234
 7564TIP3    H246888   3.581   3.092  10.598 -2.3430  1.0092  1.3381
 7565TIP3   OH246889   6.281   4.685  11.074  0.2540 -0.6346 -0.0838
 7565TIP3    H146890   6.275   4.739  10.995  0.8517 -0.9926 -0.3839
 7565TIP3    H246891   6.339   4.735  11.132 -0.5978 -0.1251  0.3424
 7566TIP3   OH246892   0.105   3.094  10.664 -0.4636  0.1074 -0.1442
 7566TIP3    H146893   0.084   3.115  10.755 -1.4977 -0.2573 -0.2930
 7566TIP3    H246894   0.195   3.126  10.652 -0.7547  1.2813  0.6448
 7567TIP3   OH246895   3.241   6.668  12.219 -0.2615  0.8153  0.1272
 7567TIP3    H146896   3.231   6.735  12.286  0.7649  0.6085  0.4948
 7567TIP3    H246897   3.184   6.596  12.247 -0.0465  0.8417  0.6314
 7568TIP3   OH246898   3.864   7.373  11.649 -0.4045 -0.2801 -0.2225
 7568TIP3    H146899   3.817   7.294  11.676 -0.8646  0.0899  0.0684
 7568TIP3    H246900   3.903   7.407  11.730 -0.6555  0.0845 -0.2525
 7569TIP3   OH246901   2.349   0.836  12.273 -0.1795 -0.1196 -0.0774
 7569TIP3    H146902   2.307   0.838  12.187 -1.6576 -1.3390  0.5655
 7569TIP3    H246903   2.293   0.892  12.328  1.4403  1.6694 -0.1456
 7570TIP3   OH246904   5.580   3.634  13.203 -1.3508  0.1129  0.2570
 7570TIP3    H146905   5.653   3.572  13.194  0.4898  2.2701 -0.7933
 7570TIP3    H246906   5.520   3.611  13.132 -0.3656 -0.0763 -0.5406
 7571TIP3   OH246907   3.816   5.972  10.644  0.4864  0.1920  0.7170
 7571TIP3    H146908   3.830   6.025  10.722 -0.0167  1.9067 -0.2984
 7571TIP3    H246909   3.728   5.937  10.653 -0.0166  1.3508  0.3884
 7572TIP3   OH246910   3.071   6.483  12.325  0.1595 -0.5254 -0.1116
 7572TIP3    H146911   3.070   6.517  12.414  1.4257  3.1802 -1.3206
 7572TIP3    H246912   2.979   6.484  12.298 -0.3249 -2.4199  1.3190
 7573TIP3   OH246913   3.080   5.210  10.489 -0.5482 -0.0377 -0.5199
 7573TIP3    H146914   3.010   5.270  10.514 -0.6349 -0.6836  0.8532
 7573TIP3    H246915   3.143   5.265  10.443  0.0124  1.4261  1.8475
 7574TIP3   OH246916   2.180   2.309  11.168 -0.5419 -0.2695  0.2979
 7574TIP3    H146917   2.111   2.289  11.232  0.7316 -0.9875  1.4900
 7574TIP3    H246918   2.165   2.401  11.145 -0.1766  0.4515  2.7281
 7575TIP3   OH246919   7.671   4.815  10.649  0.1183  0.2963  0.1403
 7575TIP3    H146920   7.683   4.742  10.588  1.4702 -0.5071  1.3055
 7575TIP3    H246921   7.718   4.888  10.609  0.0919  0.0863 -0.2820
 7576TIP3   OH246922   7.600   1.832  11.331  0.0921 -0.0914  0.2492
 7576TIP3    H146923   7.585   1.851  11.238 -0.1669  0.3274  0.3720
 7576TIP3    H246924   7.513   1.810  11.365  0.3394 -1.2763  0.1730
 7577TIP3   OH246925   5.862   0.350  11.142 -0.0591 -0.6187 -0.0978
 7577TIP3    H146926   5.865   0.422  11.204 -0.2650 -0.4149 -0.3205
 7577TIP3    H246927   5.809   0.283  11.185 -1.3064  0.0236 -0.5606
 7578TIP3   OH246928   6.647   0.045  10.624  0.2568  0.6167 -0.2220
 7578TIP3    H146929   6.672   0.014  10.537  1.4668  1.9981 -0.4012
 7578TIP3    H246930   6.571  -0.009  10.648  2.7698 -3.1671 -0.0223
 7579TIP3   OH246931   5.882   6.029  12.019  0.0789 -0.2319  0.3874
 7579TIP3    H146932   5.792   6.059  12.010  1.0054  2.8299  0.2173
 7579TIP3    H246933   5.907   5.999  11.932 -0.8413 -1.4808  0.5238
 7580TIP3   OH246934   3.110   1.114  11.151  0.5489  0.2267 -0.0527
 7580TIP3    H146935   3.150   1.127  11.237 -0.5345 -0.2876  0.5589
 7580TIP3    H246936   3.099   1.019  11.145  0.1867  0.3004 -0.5583
 7581TIP3   OH246937   0.270   7.053  11.314 -0.0777 -0.3574  0.1889
 7581TIP3    H146938   0.304   7.130  11.360  0.4741 -0.8114  0.5577
 7581TIP3    H246939   0.211   7.089  11.248  1.2321  0.4964 -0.5864
 7582TIP3   OH246940   3.605   1.781  12.454 -0.4083 -0.0876  0.3575
 7582TIP3    H146941   3.530   1.723  12.464 -0.7373  0.1164 -0.8719
 7582TIP3    H246942   3.589   1.852  12.517 -0.5833 -0.7015  1.0205
 7583TIP3   OH246943   0.334   4.730  11.481  0.2453 -0.0612  0.3544
 7583TIP3    H146944   0.249   4.720  11.525  1.0610 -1.2639  1.7632
 7583TIP3    H246945   0.389   4.664  11.522  1.5861 -0.0054 -1.2737
 7584TIP3   OH246946   7.566   6.836  10.451 -0.1638  0.5042  0.2574
 7584TIP3    H146947   7.587   6.817  10.360 -0.2238 -1.9379  0.6867
 7584TIP3    H246948   7.634   6.897  10.479  0.2392  0.7768 -1.2205
 7585TIP3   OH246949   3.597   1.416  11.729 -0.7142 -0.5142 -0.7162
 7585TIP3    H146950   3.657   1.395  11.657 -0.8338  0.3162 -1.0786
 7585TIP3    H246951   3.607   1.511  11.741  0.1613 -0.7859  1.1428
 7586TIP3   OH246952   1.706   4.063  11.881 -0.6992  0.1763  0.4454
 7586TIP3    H146953   1.791   4.105  11.869  0.8115 -1.7386  3.2051
 7586TIP3    H246954   1.663   4.115  11.949 -0.7402 -0.1523  0.6742
 7587TIP3   OH246955   4.879   4.919  12.696 -0.3840  0.1060  0.0836
 7587TIP3    H146956   4.822   4.872  12.756 -0.7286 -2.4764 -2.1072
 7587TIP3    H246957   4.836   5.004  12.685 -0.0071  0.9621  3.7675
 7588TIP3   OH246958   7.857   2.391  11.785  1.0087  0.1850  0.2946
 7588TIP3    H146959   7.817   2.307  11.807 -2.0275  1.6943  1.1197
 7588TIP3    H246960   7.893   2.423  11.867  3.9259 -1.0078 -0.3780
 7589TIP3   OH246961   2.366   6.391  12.149  0.3259  0.1083 -0.6561
 7589TIP3    H146962   2.301   6.326  12.177  0.0203  0.2562 -1.0177
 7589TIP3    H246963   2.422   6.404  12.226 -0.6745  0.7303 -0.0098
 7590TIP3   OH246964   6.479   0.193  12.210 -0.2901 -0.1219  0.4290
 7590TIP3    H146965   6.400   0.194  12.156 -2.0093  0.1501  2.7642
 7590TIP3    H246966   6.493   0.101  12.231 -1.4536 -0.0030  1.9043
 7591TIP3   OH246967   2.967   3.039  12.066  0.7760 -0.1253  0.2807
 7591TIP3    H146968   2.930   3.113  12.113 -2.8341 -0.2622 -1.9694
 7591TIP3    H246969   3.016   3.079  11.994 -2.6040  0.3695 -1.9834
 7592TIP3   OH246970   3.419   6.451  10.241 -0.5926 -0.3796  0.9282
 7592TIP3    H146971   3.485   6.499  10.291  0.7180  0.6041 -1.5831
 7592TIP3    H246972   3.344   6.510  10.235 -0.7886 -0.5326  1.7155
 7593TIP3   OH246973   4.837   3.073  11.601  0.0071 -0.5896  0.3498
 7593TIP3    H146974   4.861   3.165  11.598 -1.1145 -0.0731  3.2700
 7593TIP3    H246975   4.902   3.033  11.659  1.4178 -2.0610 -2.0976
 7594TIP3   OH246976   6.191   4.810  11.438 -0.5606  0.7950 -0.3244
 7594TIP3    H146977   6.215   4.900  11.460 -0.0684  0.6578 -0.2965
 7594TIP3    H246978   6.260   4.779  11.379  0.0694 -0.0371  0.7994
 7595TIP3   OH246979   0.914   0.854  11.219  0.0690 -0.3024 -0.2669
 7595TIP3    H146980   0.836   0.878  11.269 -1.7459  0.2905 -3.1450
 7595TIP3    H246981   0.971   0.931  11.223  0.8916 -0.9666  2.3733
 7596TIP3   OH246982   4.912   5.864  12.165 -0.6511 -0.1820  0.4320
 7596TIP3    H146983   4.849   5.798  12.134  0.1890 -0.9350  0.2643
 7596TIP3    H246984   4.859   5.927  12.214 -1.2381 -2.0842  2.4031
 7597TIP3   OH246985   0.497   0.843  12.470  0.5736 -0.3450 -0.4425
 7597TIP3    H146986   0.590   0.832  12.450  0.3089 -2.3711 -0.7785
 7597TIP3    H246987   0.460   0.755  12.461 -1.1710  0.2053  0.7644
 7598TIP3   OH246988   0.131   5.935  11.107  0.0855 -0.7978  0.1298
 7598TIP3    H146989   0.143   6.026  11.082  1.1793 -0.7126  0.9090
 7598TIP3    H246990   0.073   5.939  11.183 -1.4304 -0.9101 -0.9711
 7599TIP3   OH246991   5.309   8.101  11.387 -0.4730  0.1159  0.5025
 7599TIP3    H146992   5.236   8.134  11.334 -0.6978 -0.6936  0.2933
 7599TIP3    H246993   5.316   8.008  11.363 -0.1445 -0.1049  1.3932
 7600TIP3   OH246994   1.808   4.032  12.334 -0.7240  0.0419 -0.1772
 7600TIP3    H146995   1.840   3.988  12.255 -1.7579  1.8023 -1.6572
 7600TIP3    H246996   1.810   3.964  12.402  0.0062 -1.5879 -1.7411
 7601TIP3   OH246997   5.404   5.001  11.346 -0.2078  0.0105  0.5257
 7601TIP3    H146998   5.399   5.051  11.265  0.9112  0.6441  0.8193
 7601TIP3    H246999   5.498   5.000  11.368 -0.4168 -0.7029  1.4652
 7602TIP3   OH247000   0.363   6.541  11.269  0.2941 -0.0948 -0.1390
 7602TIP3    H147001   0.438   6.600  11.260 -0.1732  0.3643 -1.1668
 7602TIP3    H247002   0.320   6.570  11.349  1.9476 -1.2505  1.2481
 7603TIP3   OH247003   5.162   4.968  12.591  0.1323 -0.8450  0.4601
 7603TIP3    H147004   5.077   4.925  12.600 -1.6195  2.0009 -0.8869
 7603TIP3    H247005   5.157   5.011  12.506  2.6374  0.0974  0.7216
 7604TIP3   OH247006   3.390   1.091  10.959  0.6480  0.0401  0.3002
 7604TIP3    H147007   3.409   1.082  11.052 -3.0676 -2.3486  1.0245
 7604TIP3    H247008   3.313   1.037  10.945 -0.3818  2.1833 -3.7375
 7605TIP3   OH247009   8.030   3.650  11.237  0.3845 -0.2117  0.3787
 7605TIP3    H147010   7.984   3.573  11.204  1.8091 -0.5192 -0.9837
 7605TIP3    H247011   7.960   3.709  11.265 -0.9009 -0.4425 -2.0989
 7606TIP3   OH247012   7.366   0.815  11.732  0.2655  0.3639 -0.0899
 7606TIP3    H147013   7.386   0.882  11.797  0.4719 -1.1616  1.4810
 7606TIP3    H247014   7.449   0.798  11.689  0.5335  0.0560  0.5453
 7607TIP3   OH247015   6.070   2.054  12.510  0.2938 -0.5866  0.6141
 7607TIP3    H147016   6.071   2.137  12.462  2.5880 -0.5616  0.5819
 7607TIP3    H247017   6.029   1.992  12.449  0.4208  0.1003 -0.1904
 7608TIP3   OH247018   0.187   2.417  11.144  0.3248  0.1824 -0.7257
 7608TIP3    H147019   0.195   2.477  11.069  0.8607 -0.1851 -0.9704
 7608TIP3    H247020   0.217   2.468  11.219 -0.4501  0.6333 -0.7180
 7609TIP3   OH247021   6.675   2.525  12.819 -0.6067 -0.5737 -0.7465
 7609TIP3    H147022   6.765   2.501  12.796  0.2590  0.7047  1.0689
 7609TIP3    H247023   6.653   2.468  12.893 -1.3885 -1.0044 -1.2913
 7610TIP3   OH247024   3.333   0.516  12.129  0.6430 -0.2648 -0.7064
 7610TIP3    H147025   3.329   0.609  12.151 -0.0806 -0.0534 -1.6760
 7610TIP3    H247026   3.248   0.497  12.090  0.8344 -1.3089 -0.6341
 7611TIP3   OH247027   3.548   3.232  10.913  0.2796  0.2174 -0.3259
 7611TIP3    H147028   3.459   3.243  10.946  0.2619 -0.6211 -0.0772
 7611TIP3    H247029   3.581   3.154  10.957  1.3535  0.8422  0.0276
 7612TIP3   OH247030   5.458   0.017  12.580  0.6286  0.7802 -0.6559
 7612TIP3    H147031   5.447  -0.076  12.564 -1.9964  1.1261 -1.3559
 7612TIP3    H247032   5.457   0.025  12.676  0.0196  0.1803 -0.6086
 7613TIP3   OH247033   2.625   6.970  10.582 -0.2897 -0.1212  0.0227
 7613TIP3    H147034   2.624   7.006  10.671 -0.3052 -1.1863  0.4610
 7613TIP3    H247035   2.611   6.876  10.594 -0.2914 -0.2734 -1.1095
 7614TIP3   OH247036   3.441   8.057  11.849  0.0854  0.3677  0.9186
 7614TIP3    H147037   3.379   8.072  11.778  1.4157 -1.5630 -0.7730
 7614TIP3    H247038   3.466   8.145  11.878  1.5828  1.4124 -2.9389
 7615TIP3   OH247039   4.989   6.732  12.034  0.2208  0.1440  0.0421
 7615TIP3    H147040   4.951   6.819  12.046 -1.5548 -0.5363 -0.2650
 7615TIP3    H247041   4.936   6.675  12.090  1.0880 -0.8206 -0.0842
 7616TIP3   OH247042   2.503   2.466  10.503  0.0977 -0.1298  0.3045
 7616TIP3    H147043   2.524   2.521  10.578  1.0479  0.8821 -0.6657
 7616TIP3    H247044   2.453   2.522  10.444  0.5035 -0.4890 -0.4051
 7617TIP3   OH247045   6.700   6.969  12.092 -0.0058  0.0999 -0.0657
 7617TIP3    H147046   6.795   6.963  12.076 -0.0132 -1.1800  0.2452
 7617TIP3    H247047   6.661   6.968  12.005  0.2286 -0.3217 -0.1665
 7618TIP3   OH247048   2.204   5.048  11.009  0.5051 -0.1081 -0.3598
 7618TIP3    H147049   2.142   4.984  10.975  0.5030  0.4466 -1.4174
 7618TIP3    H247050   2.156   5.130  11.013  0.2129 -0.3392  1.9376
 7619TIP3   OH247051   0.802   2.770  11.951 -0.6182  0.8894  0.5239
 7619TIP3    H147052   0.856   2.749  12.027 -1.1235  0.6335  0.8111
 7619TIP3    H247053   0.847   2.845  11.910  1.7416 -1.2231 -1.0575
 7620TIP3   OH247054   3.450   4.081  11.234 -0.4037  0.0005 -0.0256
 7620TIP3    H147055   3.534   4.117  11.204 -0.2239  2.0167  2.6073
 7620TIP3    H247056   3.384   4.134  11.189 -0.2903 -0.6381 -0.9859
 7621TIP3   OH247057   0.357   2.685  11.780 -0.3348  0.0655 -0.3438
 7621TIP3    H147058   0.364   2.592  11.759  0.0571  0.4538 -2.0687
 7621TIP3    H247059   0.320   2.687  11.868 -2.5063 -1.7090 -1.1232
 7622TIP3   OH247060   0.668   0.484  11.406  0.0339 -0.6147  0.0405
 7622TIP3    H147061   0.740   0.546  11.420 -1.0872  0.2948  2.2077
 7622TIP3    H247062   0.664   0.434  11.487 -1.7736 -0.6418 -0.0347
 7623TIP3   OH247063   5.914   7.116  10.938 -0.1937  0.4066  0.2341
 7623TIP3    H147064   5.835   7.115  10.884  0.1598  1.6718 -0.3338
 7623TIP3    H247065   5.909   7.198  10.988 -0.3014 -0.5280  1.8434
 7624TIP3   OH247066   5.534   7.716  11.779  0.4272  0.4636 -0.3276
 7624TIP3    H147067   5.540   7.627  11.745  2.4401  0.8721 -1.1642
 7624TIP3    H247068   5.616   7.730  11.827 -0.9681  1.0064  2.0852
 7625TIP3   OH247069   7.621   5.644  12.387 -0.2772  0.2046 -0.1210
 7625TIP3    H147070   7.632   5.707  12.458  0.1033  0.4594 -0.4025
 7625TIP3    H247071   7.589   5.696  12.313 -1.4531 -0.1890  0.0865
 7626TIP3   OH247072   6.591   2.723  12.181 -0.0483 -0.3746  0.6943
 7626TIP3    H147073   6.618   2.695  12.269  1.5154  1.9013  1.0276
 7626TIP3    H247074   6.609   2.646  12.126 -1.2978 -1.9379  2.3276
 7627TIP3   OH247075   4.677   2.128  11.447 -0.4003  0.0444 -0.2831
 7627TIP3    H147076   4.723   2.172  11.376 -0.3567  2.5737  1.1710
 7627TIP3    H247077   4.588   2.164  11.444 -0.6496 -0.4978  0.3834
 7628TIP3   OH247078   4.572   7.862  11.468 -0.1940  0.2192  0.0969
 7628TIP3    H147079   4.646   7.823  11.514  0.8877  1.0754 -0.8584
 7628TIP3    H247080   4.597   7.954  11.455 -1.4883  0.5659 -0.1178
 7629TIP3   OH247081   8.295   0.642  11.708  0.1403 -0.2668  0.3322
 7629TIP3    H147082   8.250   0.622  11.790 -0.5779  0.6287  0.1696
 7629TIP3    H247083   8.264   0.730  11.684 -0.6940 -1.0300 -1.5811
 7630TIP3   OH247084   7.488   5.586  11.952  0.3403  0.0665 -0.2373
 7630TIP3    H147085   7.426   5.553  11.888  0.8910 -0.1157 -0.6886
 7630TIP3    H247086   7.498   5.515  12.016 -0.4948  0.3930  0.2633
 7631TIP3   OH247087   2.861   3.816  11.854 -0.0914  0.4419  0.0102
 7631TIP3    H147088   2.951   3.789  11.839 -0.3290  0.2852 -1.1976
 7631TIP3    H247089   2.831   3.759  11.925  0.6915  0.3720  0.2966
 7632TIP3   OH247090   3.382   1.440  11.238 -0.0681  0.3497 -0.4288
 7632TIP3    H147091   3.436   1.386  11.295  1.2591  2.0162 -0.0188
 7632TIP3    H247092   3.440   1.513  11.213 -1.8833  1.7931 -0.6114
 7633TIP3   OH247093   4.728   5.551  10.612 -0.0877  0.1632 -0.0191
 7633TIP3    H147094   4.781   5.627  10.586  0.2942  0.4759  1.5620
 7633TIP3    H247095   4.638   5.584  10.610  0.0806  0.6852  0.7246
 7634TIP3   OH247096   1.395   3.488  12.291  0.2511 -0.4757 -1.2105
 7634TIP3    H147097   1.460   3.454  12.352  0.5378 -0.0737 -1.2842
 7634TIP3    H247098   1.314   3.443  12.314  0.3374 -0.2639 -0.4714
 7635TIP3   OH247099   5.093   5.306  11.943  0.1643  0.5921 -0.4786
 7635TIP3    H147100   5.034   5.361  11.891  0.8873  1.3800 -0.4960
 7635TIP3    H247101   5.176   5.309  11.895 -0.0239 -1.3218 -1.0106
 7636TIP3   OH247102   6.686   4.250  12.950 -0.3607  0.3054  0.2703
 7636TIP3    H147103   6.693   4.164  12.992  0.4186 -0.1135 -0.6781
 7636TIP3    H247104   6.768   4.260  12.901 -2.1216 -0.3465 -3.1574
 7637TIP3   OH247105   2.057   0.267  12.224  0.1851  0.8464  0.1754
 7637TIP3    H147106   2.118   0.291  12.294  0.0810 -1.7259  1.2918
 7637TIP3    H247107   2.098   0.192  12.182 -1.3510  0.2027 -0.2482
 7638TIP3   OH247108   8.027   8.201  12.604 -0.1919 -0.4013  0.2035
 7638TIP3    H147109   8.008   8.262  12.532 -0.7363  0.1065  0.7650
 7638TIP3    H247110   8.061   8.257  12.674  1.8591 -1.0834 -0.1866
 7639TIP3   OH247111   5.217   6.582  11.356 -0.1482  0.6443 -0.3676
 7639TIP3    H147112   5.171   6.663  11.379 -0.4877  0.4913 -0.4945
 7639TIP3    H247113   5.300   6.587  11.404 -0.6967  0.4838  0.6448
 7640TIP3   OH247114   5.949   2.196  11.570 -0.2715  1.0149  0.2221
 7640TIP3    H147115   5.912   2.197  11.482 -0.0098  0.7595  0.1083
 7640TIP3    H247116   5.915   2.275  11.612 -1.0450  0.7204  0.1613
 7641TIP3   OH247117   4.946   7.270  10.418  0.0758 -0.2009  0.1896
 7641TIP3    H147118   4.892   7.295  10.493  0.6972 -2.0264  1.3122
 7641TIP3    H247119   4.890   7.215  10.365  0.3947 -1.0283  0.6853
 7642TIP3   OH247120   2.469   7.259  12.001  0.0168 -0.4470  0.6538
 7642TIP3    H147121   2.396   7.319  12.014 -0.3447 -0.4874 -0.9441
 7642TIP3    H247122   2.431   7.172  12.013  0.0946 -0.4230  1.0717
 7643TIP3   OH247123   3.834   1.931  12.504  0.0095 -0.2602  0.2314
 7643TIP3    H147124   3.849   1.894  12.591 -1.7334 -0.0264  0.6847
 7643TIP3    H247125   3.782   1.864  12.459 -0.8410  0.4617  0.1114
 7644TIP3   OH247126   3.598   4.878  11.102 -0.0400  0.3108  0.1465
 7644TIP3    H147127   3.644   4.878  11.019  0.8744  0.2153  0.6426
 7644TIP3    H247128   3.543   4.799  11.100  0.3042  0.0833 -0.1836
 7645TIP3   OH247129   7.540   1.413  11.669 -0.2939  0.3575  0.4762
 7645TIP3    H147130   7.566   1.490  11.617  1.7460 -0.2316  0.5119
 7645TIP3    H247131   7.598   1.416  11.745  0.0267 -1.3393  0.3347
 7646TIP3   OH247132   8.176   5.268  10.775  0.3130 -0.2120 -0.2560
 7646TIP3    H147133   8.112   5.312  10.831  1.0231  0.9496 -0.3198
 7646TIP3    H247134   8.132   5.188  10.745 -0.9437  0.3637  0.0234
 7647TIP3   OH247135   5.506   4.591  11.791 -0.7635 -0.6263 -0.5389
 7647TIP3    H147136   5.499   4.511  11.738  1.4521 -0.6351 -0.8959
 7647TIP3    H247137   5.471   4.565  11.876  0.0778 -2.0647 -0.5873
 7648TIP3   OH247138   7.608   2.656  11.105  0.4056  0.3073 -0.1022
 7648TIP3    H147139   7.616   2.574  11.056 -0.5720 -0.3923  0.8645
 7648TIP3    H247140   7.677   2.712  11.070  1.2976 -1.0436 -0.5644
 7649TIP3   OH247141   8.260   5.830  11.010  0.2074  0.3276 -0.2184
 7649TIP3    H147142   8.238   5.809  11.100 -1.5360  0.7134 -0.5098
 7649TIP3    H247143   8.175   5.831  10.964  1.0819 -0.2732 -1.9485
 7650TIP3   OH247144   6.852   4.937  10.534 -0.2543 -0.7090  0.6350
 7650TIP3    H147145   6.802   4.859  10.509  0.8752 -2.5543  3.5672
 7650TIP3    H247146   6.919   4.904  10.594  1.9393  2.2214  0.0166
 7651TIP3   OH247147   0.621   3.097  11.508 -0.2072  0.4433  0.5924
 7651TIP3    H147148   0.706   3.054  11.500 -0.7450 -0.6765  0.7508
 7651TIP3    H247149   0.565   3.051  11.446 -0.5462  1.6137 -0.0133
 7652TIP3   OH247150   3.568   6.063  12.690 -0.1635  0.3066  0.5148
 7652TIP3    H147151   3.491   6.101  12.733 -1.1918  0.2667 -1.1777
 7652TIP3    H247152   3.589   5.985  12.742 -2.4123 -0.7041  0.0349
 7653TIP3   OH247153   0.963   8.380  11.582  0.6680 -0.0849  0.1554
 7653TIP3    H147154   1.053   8.361  11.555  0.7495 -0.6812  0.8072
 7653TIP3    H247155   0.909   8.330  11.521  0.8300 -0.8441  0.6137
 7654TIP3   OH247156   0.160   5.407  10.816  0.3638  0.4237  0.1114
 7654TIP3    H147157   0.157   5.337  10.880 -0.6633  1.1876  0.9427
 7654TIP3    H247158   0.131   5.485  10.864  3.6983  1.9713 -0.1137
 7655TIP3   OH247159   4.280   8.381  10.691  0.1843  0.3674  0.2267
 7655TIP3    H147160   4.202   8.413  10.735 -0.2577 -0.4471  0.0380
 7655TIP3    H247161   4.342   8.454  10.698 -1.0768  1.6331 -0.9209
 7656TIP3   OH247162   0.465   2.123  12.580 -0.2242  0.0988 -0.2204
 7656TIP3    H147163   0.446   2.211  12.548 -2.0715  0.2515  1.1298
 7656TIP3    H247164   0.379   2.080  12.583  0.3707 -1.0555  1.1018
 7657TIP3   OH247165   8.124   0.725  10.830 -0.2511  0.3351  0.1259
 7657TIP3    H147166   8.130   0.793  10.763 -1.8610 -1.5134 -2.0559
 7657TIP3    H247167   8.190   0.749  10.895  0.5693  2.8839 -1.5077
 7658TIP3   OH247168   1.514   8.398  11.373  0.3785 -0.0456 -0.5735
 7658TIP3    H147169   1.588   8.338  11.370  0.9258  0.3052  2.4656
 7658TIP3    H247170   1.544   8.476  11.327  1.3148 -0.4744 -0.7120
 7659TIP3   OH247171   4.406   3.980  11.519  0.3683  0.4787 -0.4418
 7659TIP3    H147172   4.328   4.035  11.511  0.6397  0.7823 -1.0740
 7659TIP3    H247173   4.414   3.964  11.613 -1.3037 -0.8272 -0.4978
 7660TIP3   OH247174   1.940   6.304  12.903  0.5331  0.1741  0.2298
 7660TIP3    H147175   1.937   6.321  12.997  0.6032 -1.0537  0.4721
 7660TIP3    H247176   2.018   6.351  12.873  2.5024 -2.1014  1.4127
 7661TIP3   OH247177   2.385   3.118  10.892 -0.0444 -0.2762 -0.3255
 7661TIP3    H147178   2.375   3.213  10.880 -0.4766 -0.1585  0.7633
 7661TIP3    H247179   2.362   3.104  10.984 -0.3608 -1.4916 -0.5750
 7662TIP3   OH247180   1.432   7.855  11.105 -0.1329  0.4882 -0.5773
 7662TIP3    H147181   1.436   7.821  11.016  1.1766 -1.3738  0.1326
 7662TIP3    H247182   1.522   7.882  11.124 -0.3132  0.4800  0.3326
 7663TIP3   OH247183   6.937   2.026  12.068  0.0447  0.5447  0.2591
 7663TIP3    H147184   6.976   2.087  12.130  0.2668  0.9380 -0.2652
 7663TIP3    H247185   6.925   1.945  12.119  1.3992  0.4552  0.4710
 7664TIP3   OH247186   0.683   3.282  11.732 -0.8402 -0.1463  0.8441
 7664TIP3    H147187   0.764   3.307  11.688 -0.7143  0.3813  1.3723
 7664TIP3    H247188   0.666   3.192  11.702 -0.9681  0.3255 -0.5912
 7665TIP3   OH247189   3.765   1.706  11.976 -0.0843 -0.5006 -0.4395
 7665TIP3    H147190   3.808   1.621  11.985  0.0676 -0.1571  3.5324
 7665TIP3    H247191   3.700   1.692  11.907  0.3364 -3.6227 -0.3573
 7666TIP3   OH247192   5.837   5.178  11.550 -0.2187 -0.0022  0.1019
 7666TIP3    H147193   5.840   5.244  11.619 -2.1673  1.1259 -0.8058
 7666TIP3    H247194   5.919   5.189  11.502  0.2630  0.5448  1.0394
 7667TIP3   OH247195   7.352   6.269  11.879 -0.0793  0.0899  0.0591
 7667TIP3    H147196   7.380   6.221  11.802 -0.9184  0.7171 -0.6582
 7667TIP3    H247197   7.274   6.317  11.851 -0.4081  0.3290  1.2946
 7668TIP3   OH247198   1.751   0.099  11.536 -0.4683 -0.3203  0.6362
 7668TIP3    H147199   1.820   0.147  11.581  1.2167 -1.8200 -0.2481
 7668TIP3    H247200   1.718   0.037  11.601  0.0740 -0.6212  0.6307
 7669TIP3   OH247201   1.633   4.359  11.517  0.5414 -0.1411  0.0074
 7669TIP3    H147202   1.728   4.374  11.511  0.4431  0.4782  0.0007
 7669TIP3    H247203   1.605   4.414  11.590  0.1192 -0.0252 -0.2464
 7670TIP3   OH247204   3.914   0.113  11.936  0.7418 -0.2265  0.3145
 7670TIP3    H147205   3.871   0.070  11.863  0.1993  0.8502 -0.0063
 7670TIP3    H247206   3.880   0.068  12.014  0.7979 -0.9092 -0.0493
 7671TIP3   OH247207   0.634   7.714  11.204  0.1850 -0.4733 -0.3542
 7671TIP3    H147208   0.570   7.783  11.183 -0.3137 -0.8604 -0.1370
 7671TIP3    H247209   0.717   7.748  11.171 -0.3623 -0.5513 -1.9260
 7672TIP3   OH247210   6.230   3.668  12.314 -0.5368 -0.1610 -0.6186
 7672TIP3    H147211   6.288   3.744  12.321 -0.7124  0.0479 -1.3414
 7672TIP3    H247212   6.194   3.673  12.225 -0.9861 -0.7761 -0.4808
 7673TIP3   OH247213   7.338   3.405  12.739 -0.0803  0.4372  0.3373
 7673TIP3    H147214   7.276   3.414  12.666  0.4570  1.4778 -0.0248
 7673TIP3    H247215   7.314   3.324  12.782 -0.1806 -0.4201 -1.2389
 7674TIP3   OH247216   0.462   4.049  10.606 -0.5135 -0.4517  0.7323
 7674TIP3    H147217   0.461   3.958  10.636  0.4257 -0.0990  1.8743
 7674TIP3    H247218   0.371   4.065  10.578 -1.1067 -1.2261  2.1040
 7675TIP3   OH247219   3.397   4.569  11.282  0.2727 -0.0079 -0.1772
 7675TIP3    H147220   3.424   4.640  11.340 -3.6133  0.9013  0.8371
 7675TIP3    H247221   3.408   4.604  11.194  2.2273  0.2264  0.1284
 7676TIP3   OH247222   8.019   1.264  10.874 -0.7789  0.3705 -0.2359
 7676TIP3    H147223   8.006   1.329  10.943 -0.0355 -0.4596  0.7074
 7676TIP3    H247224   7.942   1.208  10.878 -0.5523  0.0899  0.1770
 7677TIP3   OH247225   1.959   3.968  12.096  0.5717  0.3547  0.7742
 7677TIP3    H147226   1.965   4.019  12.016 -0.6793  0.3412  0.6560
 7677TIP3    H247227   1.935   3.880  12.067 -0.0117  0.3801  1.1616
 7678TIP3   OH247228   0.490   4.900  11.343 -0.2048 -0.2690  0.3419
 7678TIP3    H147229   0.460   4.817  11.382 -2.3236 -0.1883 -0.9651
 7678TIP3    H247230   0.515   4.954  11.418  0.4081 -1.7800  1.2685
 7679TIP3   OH247231   4.487   5.107  11.253  0.6562  0.3807  0.4137
 7679TIP3    H147232   4.448   5.193  11.269  0.5693  0.3262  0.4996
 7679TIP3    H247233   4.481   5.062  11.337  0.1024  0.0557  0.2075
 7680TIP3   OH247234   0.834   3.096  10.819  0.5038 -0.0182 -0.4716
 7680TIP3    H147235   0.866   3.045  10.745  1.0937 -2.8619  1.5631
 7680TIP3    H247236   0.913   3.133  10.859  0.3857 -0.0630 -0.1928
 7681TIP3   OH247237   3.183   7.860  11.423  0.0831 -0.2966 -0.4185
 7681TIP3    H147238   3.232   7.942  11.429 -1.4573  0.9926 -3.2206
 7681TIP3    H247239   3.245   7.798  11.385  0.7255  0.1277 -0.0803
 7682TIP3   OH247240   0.233   3.605  12.284 -0.6443 -0.3015  0.5720
 7682TIP3    H147241   0.244   3.700  12.274  0.0209 -0.3842  0.5170
 7682TIP3    H247242   0.320   3.573  12.307 -0.6525 -1.0250 -0.3471
 7683TIP3   OH247243   5.739   2.062  11.733  0.0020 -0.0212  0.2906
 7683TIP3    H147244   5.816   2.119  11.735 -0.0341  0.0974 -1.1629
 7683TIP3    H247245   5.696   2.078  11.818  1.1394  0.4928  0.7940
 7684TIP3   OH247246   6.800   7.966  10.900 -0.4574  0.1709 -0.4081
 7684TIP3    H147247   6.891   7.977  10.930 -1.1004  1.0780  1.3221
 7684TIP3    H247248   6.770   8.054  10.881 -1.1506 -0.0642 -0.4338
 7685TIP3   OH247249   6.008   7.718  12.016  0.1399  0.0196 -0.4196
 7685TIP3    H147250   5.988   7.673  12.098 -0.5576 -0.2793 -0.7488
 7685TIP3    H247251   6.002   7.811  12.038 -0.3539 -0.0624 -0.2054
 7686TIP3   OH247252   3.141   4.168  11.804  0.1486 -0.2481  0.3342
 7686TIP3    H147253   3.177   4.091  11.848 -1.8065 -1.3439  0.1461
 7686TIP3    H247254   3.078   4.132  11.741 -0.1860  1.4797 -0.3787
 7687TIP3   OH247255   0.824   3.317  12.511  0.2982  0.3965 -0.0114
 7687TIP3    H147256   0.737   3.277  12.512 -0.0137  1.0649  1.2840
 7687TIP3    H247257   0.885   3.243  12.512 -0.2508 -0.0688 -0.5332
 7688TIP3   OH247258   7.796   3.069  10.307 -0.3147 -0.1800 -0.1567
 7688TIP3    H147259   7.781   2.978  10.282 -1.6444  0.0313 -0.1609
 7688TIP3    H247260   7.712   3.112  10.296  0.4986  1.2698 -0.9909
 7689TIP3   OH247261   1.106   5.318  11.316  0.1745  0.2815 -0.7306
 7689TIP3    H147262   1.103   5.403  11.360  0.0365  0.6924 -1.5135
 7689TIP3    H247263   1.110   5.254  11.387 -0.8430  0.8935 -0.0988
 7690TIP3   OH247264   2.416   2.335  12.363 -0.3733 -0.0411 -0.1815
 7690TIP3    H147265   2.401   2.306  12.454 -1.4702  0.4251 -0.1988
 7690TIP3    H247266   2.497   2.291  12.337  0.3643  0.4031  1.2682
 7691TIP3   OH247267   7.753   6.191  12.440  0.2266  0.2451  0.7731
 7691TIP3    H147268   7.698   6.112  12.439 -2.2217  1.8124  1.9990
 7691TIP3    H247269   7.822   6.170  12.503  0.6998 -1.5446 -0.2792
 7692TIP3   OH247270   0.805   1.735  11.706 -0.0470 -0.8707 -0.5024
 7692TIP3    H147271   0.794   1.831  11.703  0.2285 -0.8130  0.1682
 7692TIP3    H247272   0.881   1.718  11.651  0.9611 -0.5131  0.7241
 7693TIP3   OH247273   1.747   1.599  17.180  0.1529 -0.0911  0.2730
 7693TIP3    H147274   1.692   1.644  17.116 -0.3917  0.0730  0.8542
 7693TIP3    H247275   1.736   1.506  17.160 -1.6205 -0.1644  1.3947
 7694TIP3   OH247276   6.265   5.574  12.851 -0.1063 -0.0623  0.4362
 7694TIP3    H147277   6.341   5.587  12.908  0.9210 -0.4658 -0.8127
 7694TIP3    H247278   6.228   5.490  12.879  0.6285 -0.4521  0.2678
 7695TIP3   OH247279   2.876   0.320  12.004  0.2580 -1.1000  0.5760
 7695TIP3    H147280   2.855   0.232  12.034 -0.4233 -0.9207  0.6439
 7695TIP3    H247281   2.818   0.377  12.055 -0.7663 -0.7671 -0.8981
 7696TIP3   OH247282   5.741   3.510  12.957 -0.1748 -0.6894 -0.2141
 7696TIP3    H147283   5.698   3.434  12.997  0.6665 -1.9674 -1.6532
 7696TIP3    H247284   5.827   3.515  12.999  0.1122 -1.0848 -0.7496
 7697TIP3   OH247285   6.285   2.912  10.969 -0.5855  0.1047  0.1867
 7697TIP3    H147286   6.280   2.826  10.926 -0.3961  0.6345 -0.9232
 7697TIP3    H247287   6.196   2.927  11.001 -0.5139 -0.6997  0.7881
 7698TIP3   OH247288   6.574   5.397  10.586  0.1754 -0.3804  0.6402
 7698TIP3    H147289   6.611   5.401  10.674 -0.4057 -1.0209  0.9234
 7698TIP3    H247290   6.620   5.326  10.543  0.1733 -0.3372  0.5667
 7699TIP3   OH247291   7.824   1.792  10.978  0.0680 -0.2393  0.8052
 7699TIP3    H147292   7.881   1.827  10.909  0.0650 -1.6711  0.0511
 7699TIP3    H247293   7.884   1.755  11.042  0.1959  2.9020  2.7161
 7700TIP3   OH247294   4.416   0.789  11.061 -0.0589  0.1796 -0.1158
 7700TIP3    H147295   4.382   0.847  11.129 -0.7597  0.7083 -0.8939
 7700TIP3    H247296   4.432   0.846  10.987 -1.2877 -0.6832 -1.0943
 7701TIP3   OH247297   5.152   8.361  12.195  0.4201  0.0503  0.0311
 7701TIP3    H147298   5.125   8.429  12.258  1.5775 -1.2000  1.9897
 7701TIP3    H247299   5.074   8.307  12.185 -0.5380  1.6041 -1.6024
 7702TIP3   OH247300   5.325   4.133  10.447 -0.0984  0.0603  0.2166
 7702TIP3    H147301   5.271   4.132  10.526  1.0790 -0.9275  1.0499
 7702TIP3    H247302   5.360   4.044  10.441 -0.7400 -0.1031 -1.8567
 7703TIP3   OH247303   7.661   0.376  12.079 -0.3007  0.7291  0.0542
 7703TIP3    H147304   7.727   0.373  12.010 -0.3717  0.3473 -0.0009
 7703TIP3    H247305   7.614   0.458  12.064  0.1487  0.9954  0.0872
 7704TIP3   OH247306   1.892   7.030  12.550 -0.4693 -1.2523 -0.0589
 7704TIP3    H147307   1.954   7.100  12.572  0.1349 -2.2854  1.6865
 7704TIP3    H247308   1.864   7.051  12.461  1.6641 -0.2234 -0.5634
 7705TIP3   OH247309   7.292   6.983  11.811  0.6642 -0.2577  0.1269
 7705TIP3    H147310   7.201   6.995  11.837  0.3257 -1.0066 -0.6425
 7705TIP3    H247311   7.339   7.056  11.850 -0.0602 -0.5188  1.5285
 7706TIP3   OH247312   4.567   1.509  12.530  0.0689  0.1909 -0.1458
 7706TIP3    H147313   4.641   1.471  12.577 -0.0967 -0.9649 -0.7785
 7706TIP3    H247314   4.538   1.582  12.585  2.1999  1.2259 -0.2843
 7707TIP3   OH247315   6.493   5.054  11.050  0.0297  0.6046  0.0193
 7707TIP3    H147316   6.539   5.053  11.134 -0.4961  1.0444  0.3130
 7707TIP3    H247317   6.402   5.070  11.072 -0.1754  0.3527 -0.6120
 7708TIP3   OH247318   1.580   4.726  11.642 -0.7907 -0.1347 -0.2023
 7708TIP3    H147319   1.512   4.658  11.642 -0.5319 -0.3974  0.0052
 7708TIP3    H247320   1.583   4.757  11.732  0.2920 -1.0705  0.1051
 7709TIP3   OH247321   2.884   5.575  11.074  0.2501  0.2218 -0.2970
 7709TIP3    H147322   2.947   5.557  11.143  0.7356 -0.4245 -0.9030
 7709TIP3    H247323   2.854   5.664  11.092  1.5392  0.6477 -0.1552
 7710TIP3   OH247324   7.775   2.423  10.357 -0.1360  0.0274 -0.2574
 7710TIP3    H147325   7.790   2.412  10.263 -1.4656 -0.7505 -0.4091
 7710TIP3    H247326   7.856   2.390  10.398  0.6471  0.8277 -1.1261
 7711TIP3   OH247327   6.254   4.113  11.375 -1.0262  0.4534  0.3894
 7711TIP3    H147328   6.204   4.182  11.331 -0.1526  1.4138  0.8627
 7711TIP3    H247329   6.187   4.055  11.411 -1.8228  1.5551  0.7618
 7712TIP3   OH247330   8.199   5.587  10.507 -0.0834 -0.1216 -0.7480
 7712TIP3    H147331   8.216   5.507  10.458  0.6345 -1.0469  0.9467
 7712TIP3    H247332   8.285   5.626  10.521 -0.4004  0.8120 -1.2928
 7713TIP3   OH247333   5.288   3.315  10.527  0.0405  0.4173  0.1573
 7713TIP3    H147334   5.223   3.315  10.597  0.0146 -0.2364  0.1402
 7713TIP3    H247335   5.269   3.394  10.476 -1.4401 -0.3200 -0.4913
 7714TIP3   OH247336   7.659   6.389  11.130 -0.1616  0.8390 -0.4409
 7714TIP3    H147337   7.687   6.421  11.045  0.3342 -0.9150 -0.9876
 7714TIP3    H247338   7.568   6.417  11.138 -0.3569  0.6383 -1.7721
 7715TIP3   OH247339   2.979   7.248  11.953  0.1103 -0.1975  0.1498
 7715TIP3    H147340   3.038   7.194  12.007  0.5431  1.1152  1.0291
 7715TIP3    H247341   2.900   7.256  12.006  0.8228  1.7435  0.9875
 7716TIP3   OH247342   5.589   1.356  11.411  0.2780 -0.4574 -0.2127
 7716TIP3    H147343   5.665   1.338  11.467  0.0850  1.2164  0.6584
 7716TIP3    H247344   5.532   1.280  11.421  0.3523 -0.2945  1.7297
 7717TIP3   OH247345   4.394   2.652  11.898  0.3329 -0.1183 -0.1513
 7717TIP3    H147346   4.462   2.714  11.871  1.8630 -1.4886  0.3284
 7717TIP3    H247347   4.419   2.627  11.987 -1.8453  0.6547  0.7441
 7718TIP3   OH247348   7.249   1.025  11.311  0.2088 -0.1579 -0.1270
 7718TIP3    H147349   7.170   0.982  11.278 -0.2480 -0.6858  1.5600
 7718TIP3    H247350   7.249   1.007  11.405  1.1999  1.6561  0.2731
 7719TIP3   OH247351   5.925   3.467  10.783 -0.1540  0.2112 -0.3005
 7719TIP3    H147352   5.922   3.376  10.812  0.0262 -0.4901 -2.3071
 7719TIP3    H247353   6.013   3.477  10.746 -0.5466  0.8737 -1.0748
 7720TIP3   OH247354   6.537   7.513  12.487 -0.2452 -0.1665 -0.2632
 7720TIP3    H147355   6.626   7.488  12.512  0.1868  1.9181  0.4176
 7720TIP3    H247356   6.481   7.467  12.549  0.1828 -2.6120 -1.5357
 7721TIP3   OH247357   7.045   8.258  10.753  0.5967 -0.4472  0.1585
 7721TIP3    H147358   6.952   8.235  10.757  0.6127 -0.4689  3.7401
 7721TIP3    H247359   7.046   8.354  10.758  0.7714 -0.4344 -0.1017
 7722TIP3   OH247360   6.453   4.436  11.687 -0.4047 -0.4338  0.5721
 7722TIP3    H147361   6.390   4.386  11.635 -0.1168 -0.8918  0.6529
 7722TIP3    H247362   6.451   4.524  11.650 -0.7633 -0.5577  0.2856
 7723TIP3   OH247363   4.129   5.751  11.772  0.5388  0.3151  0.0287
 7723TIP3    H147364   4.163   5.773  11.685 -0.0941 -0.6628 -0.4957
 7723TIP3    H247365   4.121   5.835  11.817  0.0322  0.9502 -1.1852
 7724TIP3   OH247366   7.801   7.682  11.879 -0.9824 -0.1825 -0.2437
 7724TIP3    H147367   7.892   7.664  11.902 -0.1418  1.8826 -1.6556
 7724TIP3    H247368   7.750   7.646  11.952  0.8589 -2.1761  0.1618
 7725TIP3   OH247369   0.281   6.767  11.405  0.2212 -0.1055 -0.0912
 7725TIP3    H147370   0.287   6.853  11.365  2.0630 -0.4585 -0.6479
 7725TIP3    H247371   0.347   6.767  11.474 -1.6019 -0.1718  1.7409
 7726TIP3   OH247372   1.036   1.959  10.345  0.3549 -0.0470 -0.4021
 7726TIP3    H147373   1.081   1.909  10.413  0.9570 -2.0779 -2.1933
 7726TIP3    H247374   1.075   2.046  10.349 -1.1323  0.6523  3.2100
 7727TIP3   OH247375   0.071   5.723  11.755  0.5166 -0.4568 -0.4565
 7727TIP3    H147376   0.135   5.653  11.745  1.1782  0.1997 -0.9456
 7727TIP3    H247377   0.036   5.711  11.844  0.2042 -1.7278 -0.7380
 7728TIP3   OH247378   0.861   8.246  11.113  0.6161 -1.3022 -0.6471
 7728TIP3    H147379   0.848   8.320  11.052 -3.1338 -1.3922 -0.1419
 7728TIP3    H247380   0.826   8.170  11.066  1.6665 -2.2224  0.0213
 7729TIP3   OH247381   1.187   5.467  12.514 -0.2083  0.0738 -0.4085
 7729TIP3    H147382   1.115   5.463  12.577  0.4400 -0.7368  0.3001
 7729TIP3    H247383   1.259   5.507  12.563  0.4795 -1.0853 -0.4506
 7730TIP3   OH247384   1.782   2.703  11.039  0.1083 -0.1408  0.1363
 7730TIP3    H147385   1.698   2.749  11.043  0.0533 -0.0258 -1.6557
 7730TIP3    H247386   1.840   2.754  11.096 -1.1947 -0.6785  2.0625
 7731TIP3   OH247387   6.367   3.725  12.076  0.6311 -0.1066 -0.1849
 7731TIP3    H147388   6.340   3.696  11.989 -1.4510  2.0525 -0.3251
 7731TIP3    H247389   6.453   3.684  12.088  0.0820 -2.1505 -2.3557
 7732TIP3   OH247390   3.158   6.384  10.920  0.3424  0.5679 -0.0977
 7732TIP3    H147391   3.221   6.351  10.984  0.0899 -0.6770 -0.4650
 7732TIP3    H247392   3.166   6.480  10.926  0.1504  0.4947  1.9316
 7733TIP3   OH247393   5.929   7.452  11.667  0.7643  0.3064  0.1393
 7733TIP3    H147394   5.900   7.449  11.576  0.9597  1.4254  0.0205
 7733TIP3    H247395   5.878   7.524  11.705  0.3081 -0.4803  1.0582
 7734TIP3   OH247396   5.302   6.618  10.334 -0.3781  0.5646 -0.3277
 7734TIP3    H147397   5.383   6.576  10.364 -1.2139 -1.8355 -1.1515
 7734TIP3    H247398   5.317   6.632  10.240 -1.8065 -2.4971 -1.1361
 7735TIP3   OH247399   1.722   4.507  11.745  0.2765  0.1606  0.4371
 7735TIP3    H147400   1.723   4.599  11.717  0.1029  0.2765  0.7996
 7735TIP3    H247401   1.688   4.510  11.835  1.4598 -0.1260  0.9120
 7736TIP3   OH247402   1.579   0.124  11.741 -0.7398  0.1079  0.1901
 7736TIP3    H147403   1.649   0.188  11.758  0.6176 -0.3023 -3.1702
 7736TIP3    H247404   1.611   0.043  11.782  0.4927  0.0854 -0.7571
 7737TIP3   OH247405   2.660   0.522  11.942  0.4552  0.1856 -0.1296
 7737TIP3    H147406   2.703   0.600  11.976 -0.4367  0.3755  0.5949
 7737TIP3    H247407   2.574   0.552  11.912  0.2418 -0.4403 -0.1796
 7738TIP3   OH247408   7.988   4.913  11.333 -0.7273  0.6181 -0.5003
 7738TIP3    H147409   8.066   4.922  11.388  0.3392 -0.2073 -1.8441
 7738TIP3    H247410   7.922   4.876  11.392  0.0445  0.8225  0.5216
 7739TIP3   OH247411   2.009   5.982  12.224  0.6589  0.6013  0.1737
 7739TIP3    H147412   2.012   5.893  12.260 -1.0638  0.2404 -0.4848
 7739TIP3    H247413   2.067   6.032  12.281 -0.4131 -0.3756  2.2342
 7740TIP3   OH247414   5.968   2.455  11.010  0.4812 -0.0361  0.3464
 7740TIP3    H147415   6.018   2.397  10.954 -1.3638  0.2564 -1.7169
 7740TIP3    H247416   5.926   2.396  11.073  0.5574 -0.6613 -0.1745
 7741TIP3   OH247417   0.499   0.216  11.825 -0.0253  0.0160  0.0285
 7741TIP3    H147418   0.417   0.198  11.871 -0.7646  1.1006 -0.7872
 7741TIP3    H247419   0.523   0.304  11.853 -0.4366  0.6575 -1.5123
 7742TIP3   OH247420   2.865   6.550  11.793  0.2269  0.3758 -0.0348
 7742TIP3    H147421   2.946   6.584  11.831  0.6348 -0.7624  0.1754
 7742TIP3    H247422   2.860   6.460  11.825  0.9365 -0.8947 -3.1472
 7743TIP3   OH247423   3.591   2.549  10.890  0.1819  0.4964 -0.1217
 7743TIP3    H147424   3.539   2.494  10.948  0.9235  0.4675  0.5252
 7743TIP3    H247425   3.645   2.487  10.840  2.1379  0.6501  1.6776
 7744TIP3   OH247426   7.932   2.360  11.329 -0.3812 -0.0029  0.1523
 7744TIP3    H147427   7.960   2.295  11.394 -0.6703 -0.4339 -0.1464
 7744TIP3    H247428   7.871   2.417  11.377  0.7436  0.7597  0.7271
 7745TIP3   OH247429   7.799   3.224  13.011 -0.0613 -0.1506 -0.8398
 7745TIP3    H147430   7.826   3.296  12.953  0.8788 -0.2887 -0.5867
 7745TIP3    H247431   7.707   3.209  12.989 -0.1096  0.7554 -1.2899
 7746TIP3   OH247432   4.752   6.228  10.221 -0.3140 -0.4522 -0.6687
 7746TIP3    H147433   4.669   6.181  10.235 -0.0320 -0.6751  0.3331
 7746TIP3    H247434   4.755   6.242  10.126 -0.8358 -1.6714 -0.8971
 7747TIP3   OH247435   8.393   5.969  11.323  0.0625  0.3922 -0.1137
 7747TIP3    H147436   8.336   6.042  11.344  0.4582  0.3115  1.3885
 7747TIP3    H247437   8.334   5.895  11.311 -0.1972  0.3460  1.2527
 7748TIP3   OH247438   7.899   3.091  13.241  0.3651  0.7542  0.2147
 7748TIP3    H147439   7.845   3.111  13.164 -0.8852  1.1636  1.1632
 7748TIP3    H247440   7.859   3.142  13.311 -0.3112 -1.7826  1.7988
 7749TIP3   OH247441   5.075   7.777  11.592  0.0034  0.0620  0.1718
 7749TIP3    H147442   5.081   7.754  11.500  0.3383 -0.4147  0.3086
 7749TIP3    H247443   5.096   7.696  11.639  0.2992  0.4137  0.6644
 7750TIP3   OH247444   5.745   3.420  12.337  0.4202 -0.2584  0.1059
 7750TIP3    H147445   5.717   3.462  12.255 -0.8777  0.0967  0.7061
 7750TIP3    H247446   5.716   3.330  12.329  2.0263 -0.7456 -0.6195
 7751TIP3   OH247447   0.046   3.749  11.907  0.0378 -0.3401  0.1782
 7751TIP3    H147448   0.005   3.803  11.974 -1.0587  0.4068 -1.0652
 7751TIP3    H247449   0.037   3.799  11.826  0.0098 -1.8680 -0.8091
 7752TIP3   OH247450   4.922   0.665  10.898  0.2792 -0.0133 -0.5348
 7752TIP3    H147451   4.843   0.709  10.867 -0.3213 -0.9214 -0.3340
 7752TIP3    H247452   4.901   0.572  10.896  0.7849 -0.2006  1.0063
 7753TIP3   OH247453   1.817   6.519  10.494 -0.1272  0.0512 -0.0548
 7753TIP3    H147454   1.724   6.513  10.471  0.2453 -0.3731 -1.5399
 7753TIP3    H247455   1.824   6.602  10.542 -1.1931  0.3093 -0.3053
 7754TIP3   OH247456   4.168   4.612  11.149 -0.5434 -0.8987 -0.6965
 7754TIP3    H147457   4.233   4.583  11.085  0.1966 -1.6538  0.3637
 7754TIP3    H247458   4.199   4.698  11.177 -0.1687 -1.1203 -0.4242
 7755TIP3   OH247459   6.186   6.502  12.479 -0.1382 -0.0471 -0.3265
 7755TIP3    H147460   6.189   6.416  12.520 -1.6305  0.0671  0.1089
 7755TIP3    H247461   6.277   6.523  12.460  0.4453 -0.9107  1.2666
 7756TIP3   OH247462   5.398   5.402  10.505 -0.3326  0.6334 -0.0317
 7756TIP3    H147463   5.468   5.432  10.447 -0.5334  2.0692  0.4299
 7756TIP3    H247464   5.371   5.480  10.553 -0.3397 -0.4480  1.8463
 7757TIP3   OH247465   2.801   5.626  12.768 -0.6441  0.0405 -0.2499
 7757TIP3    H147466   2.717   5.617  12.723 -1.1598  0.1562  0.6567
 7757TIP3    H247467   2.793   5.569  12.845  0.5565 -0.8637 -0.7707
 7758TIP3   OH247468   3.011   8.280  12.077 -0.2111 -0.0642 -0.7498
 7758TIP3    H147469   2.965   8.309  12.155  2.1747 -1.4603  1.3511
 7758TIP3    H247470   2.962   8.203  12.047  0.0098 -0.8236  0.7310
 7759TIP3   OH247471   3.930   6.070  11.547  0.6308 -0.3877 -0.3974
 7759TIP3    H147472   3.835   6.068  11.535  0.6009  1.4688 -0.7895
 7759TIP3    H247473   3.965   6.028  11.469  0.1611  0.8127 -1.2780
 7760TIP3   OH247474   1.722   5.966  11.800  0.4559 -0.1409 -1.1108
 7760TIP3    H147475   1.779   5.892  11.821 -0.3504 -0.5769 -0.3788
 7760TIP3    H247476   1.637   5.943  11.839  0.0511  0.9400 -1.3127
 7761TIP3   OH247477   0.552   1.115  11.243 -0.0245 -0.0733 -0.1887
 7761TIP3    H147478   0.571   1.198  11.198 -0.5527 -0.5296 -1.2810
 7761TIP3    H247479   0.563   1.136  11.336  0.7031  0.9978 -0.4916
 7762TIP3   OH247480   7.937   3.852  13.135  0.1795  0.6991  0.2240
 7762TIP3    H147481   7.921   3.763  13.103 -0.5165  0.6949  0.5750
 7762TIP3    H247482   8.011   3.883  13.083 -0.8813  0.6727 -1.3684
 7763TIP3   OH247483   4.976   2.928  12.665 -0.1591 -0.2987  0.2887
 7763TIP3    H147484   5.070   2.914  12.676 -0.3202 -1.5060  0.2611
 7763TIP3    H247485   4.947   2.853  12.613 -0.8010  1.1105 -1.4586
 7764TIP3   OH247486   1.792   3.094  10.777 -0.3807  0.4076  0.2027
 7764TIP3    H147487   1.735   3.018  10.777  0.8218 -0.5814 -1.8060
 7764TIP3    H247488   1.741   3.162  10.821 -1.6885 -1.3822  1.5897
 7765TIP3   OH247489   3.255   2.816  12.972 -0.0256 -0.0637  0.5262
 7765TIP3    H147490   3.171   2.853  12.943  0.8737  2.0314  0.4446
 7765TIP3    H247491   3.271   2.743  12.912 -1.0462  0.4912 -0.4604
 7766TIP3   OH247492   2.988   7.552  11.564 -0.7249  0.2255  0.3987
 7766TIP3    H147493   3.017   7.571  11.475  0.1037 -1.4433  0.2762
 7766TIP3    H247494   3.067   7.558  11.617 -1.2323  1.3055  1.0549
 7767TIP3   OH247495   3.741   5.217  11.202  0.6667  0.4629  0.2450
 7767TIP3    H147496   3.672   5.158  11.171 -0.6727  2.3724 -0.6076
 7767TIP3    H247497   3.694   5.289  11.243  2.2309  1.1871  0.8528
 7768TIP3   OH247498   4.537   8.016  11.776  0.1149 -0.0978 -0.3368
 7768TIP3    H147499   4.465   7.965  11.811 -1.5060  2.6773  0.6835
 7768TIP3    H247500   4.556   8.081  11.843  1.0785  1.5611 -2.0984
 7769TIP3   OH247501   0.482   3.298  10.978  0.1710 -0.2400 -0.1222
 7769TIP3    H147502   0.576   3.309  10.989  0.0651 -0.3318  1.0653
 7769TIP3    H247503   0.444   3.377  11.017 -0.2548 -0.4866 -0.0289
 7770TIP3   OH247504   3.065   5.313  11.799  0.3617 -0.2207  0.1529
 7770TIP3    H147505   2.971   5.297  11.793  0.4147 -0.5504  0.1881
 7770TIP3    H247506   3.073   5.408  11.808 -0.0832 -0.3205  2.0886
 7771TIP3   OH247507   2.729   2.672  12.179  0.0247  0.4491  0.0792
 7771TIP3    H147508   2.810   2.676  12.128 -1.0972  1.4158 -1.7248
 7771TIP3    H247509   2.714   2.762  12.208 -0.6335  0.3688  0.0097
 7772TIP3   OH247510   1.614   0.102  10.836  0.3721  0.4267  0.5575
 7772TIP3    H147511   1.572   0.041  10.895  0.1987 -1.0715 -1.0505
 7772TIP3    H247512   1.699   0.119  10.876  0.0622 -0.1621  1.4863
 7773TIP3   OH247513   3.763   0.419  12.657  0.2339 -0.0661  0.2244
 7773TIP3    H147514   3.857   0.427  12.672  0.4284  1.4082 -1.3887
 7773TIP3    H247515   3.755   0.392  12.565 -0.8792  1.9809 -0.3603
 7774TIP3   OH247516   5.142   4.168  12.532 -0.0403  0.3238 -0.0308
 7774TIP3    H147517   5.199   4.192  12.606 -0.1748  0.1075  0.1437
 7774TIP3    H247518   5.055   4.198  12.557 -0.5722 -1.8951  0.9827
 7775TIP3   OH247519   6.008   7.358  10.551  0.1178 -0.6199  0.0287
 7775TIP3    H147520   6.009   7.268  10.583 -0.2308 -1.3064 -1.8176
 7775TIP3    H247521   5.960   7.406  10.619 -1.5259 -2.2098  0.0746
 7776TIP3   OH247522   0.019   6.494  11.674 -0.5270  0.0963  0.6674
 7776TIP3    H147523   0.057   6.506  11.761 -0.1446 -2.1744  0.8682
 7776TIP3    H247524   0.086   6.448  11.624 -0.7481  1.3610 -0.8694
 7777TIP3   OH247525   6.362   7.986  10.933  0.5245  0.2346  0.1407
 7777TIP3    H147526   6.306   7.950  10.864  2.4144 -0.0558 -1.3299
 7777TIP3    H247527   6.434   7.923  10.940  0.8813  0.7793  1.7053
 7778TIP3   OH247528   8.432   0.021  10.856 -0.1227  0.0517  0.5722
 7778TIP3    H147529   8.356   0.006  10.799  0.6158 -1.8082  0.0122
 7778TIP3    H247530   8.397   0.015  10.945 -0.6482 -0.7498  0.3197
 7779TIP3   OH247531   7.779   1.286  12.464 -0.3589  0.3674  0.3816
 7779TIP3    H147532   7.861   1.275  12.416 -0.9520  0.9495 -0.8011
 7779TIP3    H247533   7.806   1.294  12.556  0.8172 -0.5018  0.1355
 7780TIP3   OH247534   6.717   4.092  11.170 -0.3365 -0.0075 -0.0138
 7780TIP3    H147535   6.742   4.154  11.239 -1.6606 -0.4714  0.9196
 7780TIP3    H247536   6.632   4.058  11.198  0.2814 -2.1547 -0.5592
 7781TIP3   OH247537   6.178   6.960  12.722 -0.5842  0.3695  0.5395
 7781TIP3    H147538   6.232   6.880  12.725 -1.3667 -0.1851  0.2481
 7781TIP3    H247539   6.238   7.028  12.692  0.1549 -0.0550  1.0012
 7782TIP3   OH247540   3.699   0.969  11.727  0.0636 -0.4187 -0.1376
 7782TIP3    H147541   3.663   0.991  11.813 -0.2130  1.7662 -0.7748
 7782TIP3    H247542   3.625   0.975  11.667  0.7124  0.3266 -0.8773
 7783TIP3   OH247543   1.763   3.477  12.913  0.3117 -0.0654  0.4250
 7783TIP3    H147544   1.750   3.556  12.965  1.1793  0.0441  0.4956
 7783TIP3    H247545   1.677   3.458  12.876 -0.2727 -0.0295  1.7222
 7784TIP3   OH247546   3.322   3.259  12.447 -0.0931  0.3319 -0.1545
 7784TIP3    H147547   3.378   3.231  12.374  1.8771 -0.0743  1.4159
 7784TIP3    H247548   3.245   3.202  12.442 -0.2186  0.6116 -2.1354
 7785TIP3   OH247549   2.632   6.771  11.638 -0.2570  0.0298  0.1608
 7785TIP3    H147550   2.664   6.719  11.711 -1.2079 -0.2568  0.3847
 7785TIP3    H247551   2.686   6.850  11.639 -0.6255  0.2724  1.4977
 7786TIP3   OH247552   0.738   5.272  10.715 -0.1400 -0.5435  0.1929
 7786TIP3    H147553   0.660   5.311  10.676  0.0059 -1.4274 -1.0173
 7786TIP3    H247554   0.708   5.235  10.798 -0.8682 -0.3457  0.0193
 7787TIP3   OH247555   6.572   6.306  10.444 -0.4465 -0.0191 -0.0810
 7787TIP3    H147556   6.563   6.362  10.367  0.7630  1.4388  0.7708
 7787TIP3    H247557   6.603   6.222  10.410 -0.5248  0.4022 -1.2273
 7788TIP3   OH247558   1.381   0.768  12.134 -0.0157 -0.3341 -0.0738
 7788TIP3    H147559   1.414   0.679  12.134  0.9356 -0.0737  2.7887
 7788TIP3    H247560   1.452   0.820  12.097  0.6848 -0.4412  1.0657
 7789TIP3   OH247561   2.179   2.288  12.177  0.3620 -0.3618 -0.5097
 7789TIP3    H147562   2.227   2.344  12.239  0.3288  0.3773 -1.1417
 7789TIP3    H247563   2.186   2.200  12.214  0.7326  0.0032  0.3076
 7790TIP3   OH247564   8.041   5.106  11.143  0.5269  0.4376 -0.1223
 7790TIP3    H147565   7.980   5.173  11.174  1.4519  1.6853 -0.8914
 7790TIP3    H247566   8.030   5.034  11.205 -3.9577 -0.7730 -1.9446
 7791TIP3   OH247567   3.921   0.566  11.926 -0.1764  0.2023 -0.6303
 7791TIP3    H147568   3.849   0.626  11.945  1.0591  1.5337  0.0458
 7791TIP3    H247569   3.887   0.508  11.858 -2.0053  0.5350 -0.0462
 7792TIP3   OH247570   6.798   0.633  11.559  0.1152  0.3948 -0.2469
 7792TIP3    H147571   6.831   0.697  11.621 -0.2109 -2.6870  3.4787
 7792TIP3    H247572   6.867   0.567  11.554 -0.8733 -0.6139 -1.3480
 7793TIP3   OH247573   8.056   4.011  11.227  0.1998 -0.0049  0.3655
 7793TIP3    H147574   8.003   3.982  11.300 -0.6749 -0.0020 -0.2527
 7793TIP3    H247575   8.008   3.982  11.149  1.8503 -1.3487 -0.2158
 7794TIP3   OH247576   6.555   2.750  12.702 -0.4224 -0.2853  0.0094
 7794TIP3    H147577   6.605   2.733  12.622  0.6018 -1.1861  0.8125
 7794TIP3    H247578   6.591   2.689  12.766 -1.0762  0.5742  1.2320
 7795TIP3   OH247579   1.462   5.314  11.577 -0.4951 -0.5617 -0.0857
 7795TIP3    H147580   1.505   5.229  11.566  0.7652  0.0881 -0.3320
 7795TIP3    H247581   1.425   5.333  11.491  0.3989 -0.2530 -0.4149
 7796TIP3   OH247582   7.121   5.588  11.227 -0.5159  0.0420 -0.2267
 7796TIP3    H147583   7.075   5.657  11.275  1.6053  1.0475  0.5301
 7796TIP3    H247584   7.065   5.569  11.152 -1.7176  1.7829  0.1574
 7797TIP3   OH247585   3.420   6.202  11.994 -0.1302  0.5097  1.5204
 7797TIP3    H147586   3.430   6.108  12.013 -0.9781  0.2667  0.8294
 7797TIP3    H247587   3.342   6.228  12.042 -0.4138  0.6510  0.9872
 7798TIP3   OH247588   3.063   7.091  11.597  0.1219 -0.1188 -0.2693
 7798TIP3    H147589   3.031   7.068  11.511  0.2675 -1.7913  0.1022
 7798TIP3    H247590   3.030   7.180  11.612 -0.8492 -0.2434 -1.5637
 7799TIP3   OH247591   5.456   6.371  10.853  0.2641 -0.0202  0.0613
 7799TIP3    H147592   5.362   6.375  10.866  0.2706 -0.3740  0.2379
 7799TIP3    H247593   5.489   6.454  10.886  0.0002  0.1606 -0.1292
 7800TIP3   OH247594   2.525   5.555  11.484  0.0504 -0.0529  0.2142
 7800TIP3    H147595   2.600   5.506  11.452  0.5989  1.1374 -0.3917
 7800TIP3    H247596   2.467   5.562  11.409 -0.2222 -0.1265  0.4153
 7801TIP3   OH247597   4.662   5.252  12.327 -0.1252 -0.4471  0.0962
 7801TIP3    H147598   4.733   5.260  12.390 -0.7116 -0.1187  0.7314
 7801TIP3    H247599   4.613   5.333  12.336 -0.6034 -0.6852 -0.3046
 7802TIP3   OH247600   4.487   1.671  11.910 -0.0433 -0.0884  0.4958
 7802TIP3    H147601   4.404   1.705  11.943 -0.2921  2.5576 -2.3827
 7802TIP3    H247602   4.462   1.621  11.832  0.9084 -1.3569  0.9842
 7803TIP3   OH247603   0.682   6.374  10.430 -1.0329 -0.5332 -0.4223
 7803TIP3    H147604   0.708   6.301  10.486  0.3334  0.4509  0.2866
 7803TIP3    H247605   0.701   6.344  10.341 -1.5902 -1.4628 -0.2413
 7804TIP3   OH247606   4.540   7.300  10.825  0.3829 -0.0603  0.2912
 7804TIP3    H147607   4.494   7.238  10.768 -1.1769  1.1667  0.1706
 7804TIP3    H247608   4.522   7.268  10.914 -0.5242  0.2713  0.2350
 7805TIP3   OH247609   5.505   4.793  10.287  0.2065 -0.0737  0.4102
 7805TIP3    H147610   5.590   4.813  10.327  1.0804 -1.1844 -0.7922
 7805TIP3    H247611   5.521   4.801  10.193 -0.7926 -1.0733  0.1317
 7806TIP3   OH247612   4.884   7.847  10.821 -0.0557 -0.1913 -0.5142
 7806TIP3    H147613   4.929   7.920  10.863  1.5423 -0.0695 -2.2520
 7806TIP3    H247614   4.792   7.872  10.819  0.1477  0.7583  0.8491
 7807TIP3   OH247615   6.912   2.454  11.183 -0.3755  0.1576  0.5632
 7807TIP3    H147616   6.978   2.432  11.117 -0.3472  1.4941  0.1332
 7807TIP3    H247617   6.947   2.530  11.228 -1.1957  0.3076  0.9670
 7808TIP3   OH247618   4.108   2.039  12.698 -0.4501 -0.0361 -0.1311
 7808TIP3    H147619   4.030   2.059  12.751 -0.9506 -0.4395 -0.6982
 7808TIP3    H247620   4.134   1.951  12.726  0.1736  0.3402  0.4915
 7809TIP3   OH247621   4.240   6.385  11.825  0.1957  0.0639  0.0722
 7809TIP3    H147622   4.309   6.433  11.780  0.5305  0.2795  0.7962
 7809TIP3    H247623   4.271   6.376  11.915 -0.8051  0.3704  0.4725
 7810TIP3   OH247624   0.856   2.404  11.924  0.0499  0.1756  0.2893
 7810TIP3    H147625   0.871   2.325  11.975  2.2125 -0.0834 -0.6366
 7810TIP3    H247626   0.944   2.437  11.904 -0.7574  2.9833  0.8579
 7811TIP3   OH247627   7.534   2.952  11.194 -0.1600  0.4752 -0.4005
 7811TIP3    H147628   7.478   3.014  11.147 -1.2800 -0.3868 -0.2609
 7811TIP3    H247629   7.536   2.875  11.137 -1.8475 -0.7372  1.0736
 7812TIP3   OH247630   6.263   0.245  12.055  0.0493 -0.1643  0.2030
 7812TIP3    H147631   6.217   0.170  12.017  0.0206  0.8067 -1.8236
 7812TIP3    H247632   6.220   0.321  12.016  1.5615  0.8465  0.4230
 7813TIP3   OH247633   4.102   2.143  10.945  0.5250  0.5195  0.4310
 7813TIP3    H147634   4.101   2.197  10.866  1.3874  1.0487  0.7654
 7813TIP3    H247635   4.193   2.114  10.953 -0.0112 -1.4473 -0.0380
 7814TIP3   OH247636   6.175   1.587  10.661 -0.0251 -0.2915 -0.0084
 7814TIP3    H147637   6.158   1.665  10.713 -1.8326 -0.0485 -0.9193
 7814TIP3    H247638   6.205   1.620  10.576  0.2695 -0.6270 -0.0392
 7815TIP3   OH247639   4.040   6.918  12.208  0.0025 -0.2182  0.3061
 7815TIP3    H147640   4.035   6.823  12.216 -0.0405 -0.3305 -0.8529
 7815TIP3    H247641   4.076   6.933  12.120  1.3897  0.8252  1.0033
 7816TIP3   OH247642   7.806   3.658  11.810  0.6964  0.6588  0.2619
 7816TIP3    H147643   7.756   3.594  11.760  2.2653 -0.1815 -0.3111
 7816TIP3    H247644   7.820   3.617  11.895  1.5114  0.3042 -0.0298
 7817TIP3   OH247645   6.232   5.852  11.810 -0.6387  0.3597  0.0301
 7817TIP3    H147646   6.188   5.785  11.864 -0.6320  0.0483 -0.3469
 7817TIP3    H247647   6.232   5.930  11.865 -0.7953  0.0948  0.4154
 7818TIP3   OH247648   5.394   3.676  12.431  0.0281  0.2589  0.8463
 7818TIP3    H147649   5.347   3.596  12.454 -0.3352  0.4581  0.8054
 7818TIP3    H247650   5.369   3.739  12.498 -1.4062  0.9869 -0.2998
 7819TIP3   OH247651   6.995   6.351  11.108  0.0979 -0.0391  0.5367
 7819TIP3    H147652   7.033   6.364  11.021  0.5379 -2.7061  0.2548
 7819TIP3    H247653   7.068   6.366  11.168  0.0830  0.6328  0.3996
 7820TIP3   OH247654   0.279   4.397  10.715 -0.0216 -0.3110  0.6386
 7820TIP3    H147655   0.249   4.465  10.655 -0.7858 -0.4780  0.8165
 7820TIP3    H247656   0.279   4.439  10.801 -0.1903 -0.4359  0.7016
 7821TIP3   OH247657   7.726   5.267  11.894  0.5193  0.5230  0.4928
 7821TIP3    H147658   7.637   5.248  11.863  1.4964 -1.8881 -1.1265
 7821TIP3    H247659   7.724   5.243  11.987 -0.4873  0.3096  0.4350
 7822TIP3   OH247660   5.864   5.303  10.904 -0.2811  0.0238  0.1429
 7822TIP3    H147661   5.955   5.304  10.873 -0.8789  0.3079 -1.7264
 7822TIP3    H247662   5.852   5.388  10.946 -0.0696  0.5561 -0.8474
 7823TIP3   OH247663   4.284   0.282  11.808  0.0660 -0.1671 -0.6002
 7823TIP3    H147664   4.225   0.261  11.881  0.2219 -0.4753 -0.5605
 7823TIP3    H247665   4.254   0.368  11.777  0.1655  0.0832 -0.0092
 7824TIP3   OH247666   0.896   3.906  11.867 -0.0734 -0.0099  0.5698
 7824TIP3    H147667   0.940   3.961  11.932  2.9815 -0.6453 -0.8088
 7824TIP3    H247668   0.851   3.968  11.809 -0.3033  0.7163  1.4955
 7825TIP3   OH247669   1.160   4.008  11.136  0.0853  0.3388 -0.1011
 7825TIP3    H147670   1.186   3.966  11.218  1.9839 -0.9132 -1.2832
 7825TIP3    H247671   1.178   3.943  11.068 -2.5998  0.8583 -1.4554
 7826TIP3   OH247672   5.414   6.843  11.255 -0.6554  0.7032  0.2024
 7826TIP3    H147673   5.320   6.853  11.270 -1.3390  0.9487 -3.3463
 7826TIP3    H247674   5.455   6.902  11.319 -2.8588  0.5696  1.8510
 7827TIP3   OH247675   6.955   4.822  10.802  0.0898  0.1789 -0.0359
 7827TIP3    H147676   6.883   4.760  10.798  0.0017  0.2614  0.3080
 7827TIP3    H247677   7.034   4.768  10.803  0.0643  0.1003 -1.1521
 7828TIP3   OH247678   6.478   4.706  11.577 -0.1393 -0.1624 -0.0778
 7828TIP3    H147679   6.391   4.726  11.614 -0.2561 -0.0899 -0.3911
 7828TIP3    H247680   6.470   4.727  11.484  0.8798  2.0675  0.2626
 7829TIP3   OH247681   1.379   6.009  11.248  0.3695  0.2685  0.1036
 7829TIP3    H147682   1.305   6.009  11.188  0.9905 -0.4648 -0.6889
 7829TIP3    H247683   1.417   5.922  11.239 -0.1262 -0.2290  2.3443
 7830TIP3   OH247684   1.424   0.241  10.398  0.6512 -1.0030 -0.4103
 7830TIP3    H147685   1.405   0.253  10.491  2.1459 -0.9470 -0.0843
 7830TIP3    H247686   1.350   0.190  10.364 -0.2455 -0.4380  0.6439
 7831TIP3   OH247687   2.473   0.529  11.019 -0.0936 -0.0794  0.5936
 7831TIP3    H147688   2.451   0.440  10.993 -0.5353  0.0950  0.3646
 7831TIP3    H247689   2.459   0.582  10.941  1.0855  0.0598  0.4507
 7832TIP3   OH247690   3.062   4.527  10.919 -0.3518 -0.2815  0.2018
 7832TIP3    H147691   3.098   4.520  11.007  0.6697  2.7087  0.1218
 7832TIP3    H247692   2.967   4.528  10.931 -0.3138 -2.3354  0.9750
 7833TIP3   OH247693   5.101   2.561  11.668 -0.3155  0.0960 -0.6137
 7833TIP3    H147694   5.154   2.529  11.741 -0.2055 -1.5273 -1.3680
 7833TIP3    H247695   5.023   2.597  11.710 -0.0061 -0.2854  0.3329
 7834TIP3   OH247696   1.300   2.373  10.444  0.0501  0.8566 -0.3325
 7834TIP3    H147697   1.315   2.307  10.512 -3.8171 -0.0701 -0.1967
 7834TIP3    H247698   1.299   2.456  10.492  0.2750  0.5236  0.2669
 7835TIP3   OH247699   5.173   3.115  12.480  0.1894  0.9274  0.2334
 7835TIP3    H147700   5.185   3.111  12.575 -0.2366 -0.6685  0.2587
 7835TIP3    H247701   5.135   3.201  12.464 -1.8184  0.4086  1.7988
 7836TIP3   OH247702   6.759   4.950  12.366 -0.0081 -0.5728  0.3080
 7836TIP3    H147703   6.852   4.956  12.387 -0.3395 -2.2763  2.5198
 7836TIP3    H247704   6.721   5.031  12.401  0.7901  0.9733 -2.1168
 7837TIP3   OH247705   6.809   1.419  11.746  0.3953  0.7845 -0.6203
 7837TIP3    H147706   6.904   1.431  11.739  0.2422  2.2870 -0.2747
 7837TIP3    H247707   6.778   1.424  11.656  0.4330  2.3322 -0.5675
 7838TIP3   OH247708   0.510   3.081  11.199 -0.3232 -0.2550 -0.8853
 7838TIP3    H147709   0.515   3.070  11.104  0.5838 -0.3183 -0.8385
 7838TIP3    H247710   0.589   3.130  11.222  0.0240 -1.1766 -0.0312
 7839TIP3   OH247711   7.682   3.346  12.650 -0.3787 -0.1120 -0.0747
 7839TIP3    H147712   7.752   3.342  12.715 -0.9300 -1.5025  0.4745
 7839TIP3    H247713   7.727   3.355  12.566  0.3385  5.3329  0.5197
 7840TIP3   OH247714   4.181   6.917  10.706 -0.1962 -0.2165  0.0153
 7840TIP3    H147715   4.145   6.833  10.677  0.1775 -1.6000  3.1702
 7840TIP3    H247716   4.114   6.954  10.763  0.7763  0.2341  0.8999
 7841TIP3   OH247717   3.363   8.089  11.430 -0.0813 -0.2066  0.1384
 7841TIP3    H147718   3.327   8.084  11.518 -1.9376  1.0292 -0.4943
 7841TIP3    H247719   3.358   8.182  11.406 -1.0969 -0.6981 -1.8182
 7842TIP3   OH247720   0.787   2.550  11.305  0.2713  0.9164  0.5604
 7842TIP3    H147721   0.782   2.645  11.289  0.4858  0.6700 -1.1882
 7842TIP3    H247722   0.706   2.515  11.267  1.3034  0.1596 -1.0297
 7843TIP3   OH247723   7.733   2.897  12.306 -0.1202 -0.2548  0.4609
 7843TIP3    H147724   7.738   2.813  12.351 -2.4667  0.0266  1.3959
 7843TIP3    H247725   7.653   2.892  12.254  1.7625 -0.0318 -2.7269
 7844TIP3   OH247726   3.278   2.949  12.509 -0.5037  0.1540  0.2675
 7844TIP3    H147727   3.222   2.909  12.443  1.3175  0.0878 -1.3430
 7844TIP3    H247728   3.356   2.894  12.511  1.8749  3.1314 -1.6326
 7845TIP3   OH247729   7.407   1.376  11.042 -0.2688  0.5554  0.1584
 7845TIP3    H147730   7.339   1.361  11.108  1.0584 -0.9699  1.2546
 7845TIP3    H247731   7.403   1.470  11.024 -1.4775  0.7940  1.5003
 7846TIP3   OH247732   4.594   3.830  11.850  0.4773  0.5471  0.6752
 7846TIP3    H147733   4.644   3.866  11.777  0.3985 -2.0585 -0.7479
 7846TIP3    H247734   4.658   3.782  11.902 -0.3414 -2.9529 -1.2481
 7847TIP3   OH247735   5.431   7.339  10.924 -0.0071 -0.2161  0.1418
 7847TIP3    H147736   5.341   7.368  10.912 -0.0224 -0.2015  0.2822
 7847TIP3    H247737   5.475   7.361  10.842 -0.2560 -0.7013 -0.1284
 7848TIP3   OH247738   4.733   5.105  11.856  0.3676 -0.3768  0.0880
 7848TIP3    H147739   4.728   5.189  11.901  2.6011  0.0734 -0.3945
 7848TIP3    H247740   4.713   5.126  11.765  2.3236 -0.0418 -0.3106
 7849TIP3   OH247741   1.858   7.024  11.755  0.6571 -0.2527  0.1843
 7849TIP3    H147742   1.925   7.010  11.822  1.3437 -0.7756 -0.5834
 7849TIP3    H247743   1.906   7.018  11.672  0.0970  1.8286 -0.3484
 7850TIP3   OH247744   6.927   7.779  11.292  0.1781  0.8476  0.0018
 7850TIP3    H147745   6.861   7.811  11.231 -0.0496 -0.6425 -0.5740
 7850TIP3    H247746   6.896   7.692  11.317  0.8100  1.0088  1.4353
 7851TIP3   OH247747   0.095   8.196  11.204  0.3065  0.0777  0.1704
 7851TIP3    H147748   0.076   8.275  11.154  1.3182 -0.3850 -0.9938
 7851TIP3    H247749   0.142   8.227  11.282 -0.5576  0.7332  0.4423
 7852TIP3   OH247750   3.904   5.813  11.061  0.1741  0.3936 -0.0025
 7852TIP3    H147751   3.850   5.748  11.015  2.3131 -0.9710 -0.7071
 7852TIP3    H247752   3.941   5.867  10.991 -0.4087  1.4786  0.4967
 7853TIP3   OH247753   1.917   2.041  11.755 -0.4500  0.1305  0.4554
 7853TIP3    H147754   1.828   2.069  11.734 -1.0090 -0.9922  1.2252
 7853TIP3    H247755   1.915   1.945  11.748  0.3549 -0.0064  1.6927
 7854TIP3   OH247756   3.930   2.222  11.147  0.1226 -0.7011 -0.0940
 7854TIP3    H147757   3.999   2.183  11.094 -1.2673 -1.9057 -1.1078
 7854TIP3    H247758   3.857   2.160  11.141 -0.7436  0.0585  1.6975
 7855TIP3   OH247759   6.976   3.610  11.851 -0.4856  0.0174 -0.0663
 7855TIP3    H147760   6.900   3.610  11.792 -1.3905  0.1032  1.0605
 7855TIP3    H247761   6.954   3.675  11.917  0.7416  0.2871  0.0917
 7856TIP3   OH247762   5.117   2.481  10.745  0.1629  0.2016 -0.0444
 7856TIP3    H147763   5.117   2.505  10.838 -0.5001  0.0498  0.0039
 7856TIP3    H247764   5.195   2.522  10.709 -0.4150  1.6317  0.2429
 7857TIP3   OH247765   4.622   4.093  11.401  0.5163  0.4925  0.5020
 7857TIP3    H147766   4.667   4.009  11.400  0.5049  0.4618  1.6630
 7857TIP3    H247767   4.536   4.075  11.439 -0.0146  0.7902 -0.5100
 7858TIP3   OH247768   3.888   6.633  10.685 -0.3402  0.3095  0.2437
 7858TIP3    H147769   3.939   6.571  10.633 -0.8764 -0.6111  0.7963
 7858TIP3    H247770   3.860   6.699  10.622  0.5137  0.1747 -0.2947
 7859TIP3   OH247771   2.162   5.638  11.066 -0.2326  0.5941 -0.5847
 7859TIP3    H147772   2.122   5.682  10.991  1.6782  0.3222 -1.8017
 7859TIP3    H247773   2.170   5.707  11.132 -2.9042  0.6060 -0.1365
 7860TIP3   OH247774   2.693   1.353  12.336  0.0245  0.0348 -0.3219
 7860TIP3    H147775   2.725   1.263  12.322  0.5625  0.1643  0.0490
 7860TIP3    H247776   2.738   1.382  12.415  1.9063  1.5504 -1.8390
 7861TIP3   OH247777   2.624   1.137  11.587  0.2897  0.7096 -0.5205
 7861TIP3    H147778   2.577   1.090  11.656  1.2035  0.2870 -0.1755
 7861TIP3    H247779   2.634   1.226  11.621  2.2524  0.0799  0.6866
 7862TIP3   OH247780   1.908   1.527  11.050 -0.1907 -0.0834 -0.1524
 7862TIP3    H147781   1.929   1.619  11.065 -0.3570 -0.0008 -0.4172
 7862TIP3    H247782   1.980   1.479  11.091 -0.3759  0.1471  0.4624
 7863TIP3   OH247783   5.111   2.518  11.399  0.4395 -0.0678  0.5389
 7863TIP3    H147784   5.096   2.573  11.476 -1.1816  0.0821  0.1690
 7863TIP3    H247785   5.154   2.440  11.433  2.0124  1.0461  1.2044
 7864TIP3   OH247786   7.188   8.384  11.041  0.0810  0.2339 -0.3485
 7864TIP3    H147787   7.274   8.350  11.018 -0.5651 -1.5464 -0.2480
 7864TIP3    H247788   7.164   8.440  10.967  1.3428  0.8314 -0.3317
 7865TIP3   OH247789   4.819   0.689  12.081  0.1228 -0.0350 -0.1632
 7865TIP3    H147790   4.840   0.704  12.173  1.1848  0.3940 -0.4515
 7865TIP3    H247791   4.724   0.694  12.076  0.1446  2.0399  0.5689
 7866TIP3   OH247792   3.337   3.614  12.688  0.2702  0.2984  0.3661
 7866TIP3    H147793   3.430   3.628  12.672  0.0856  2.6180  1.0495
 7866TIP3    H247794   3.330   3.609  12.784 -0.0121 -2.7471  0.2952
 7867TIP3   OH247795   3.641   3.247  10.643  0.5996  0.0833  0.0132
 7867TIP3    H147796   3.602   3.260  10.730 -0.5149  0.5309 -0.5398
 7867TIP3    H247797   3.704   3.318  10.634  1.0955 -0.2616  0.6508
 7868TIP3   OH247798   1.298   0.036  10.846 -0.3680 -0.1804 -0.0624
 7868TIP3    H147799   1.277   0.096  10.917  0.8483 -0.7433  0.8205
 7868TIP3    H247800   1.328   0.093  10.775 -1.3742  0.3764 -0.0522
 7869TIP3   OH247801   6.890   5.745  11.006  0.0944 -0.3265 -0.0750
 7869TIP3    H147802   6.935   5.819  11.046 -0.8603  0.6154 -0.7014
 7869TIP3    H247803   6.804   5.779  10.982  0.3478 -1.0570 -2.2064
 7870TIP3   OH247804   2.807   3.248  12.178 -0.1406  0.3830 -0.1547
 7870TIP3    H147805   2.808   3.282  12.089 -1.0241 -1.1286 -0.7850
 7870TIP3    H247806   2.725   3.280  12.216  0.0653  0.7308  0.0033
 7871TIP3   OH247807   7.618   6.929  11.957  0.2311 -0.1044 -0.1244
 7871TIP3    H147808   7.530   6.900  11.934  0.4332 -0.4442 -0.4740
 7871TIP3    H247809   7.674   6.890  11.891  0.4612  1.4312 -0.8670
 7872TIP3   OH247810   6.700   5.432  11.132 -0.8204  0.0387  0.0454
 7872TIP3    H147811   6.671   5.523  11.135  2.2214  1.0762  0.5549
 7872TIP3    H247812   6.657   5.391  11.207 -1.9043  1.1157  0.0454
 7873TIP3   OH247813   5.544   3.225  10.583 -0.1571 -0.0245 -0.0797
 7873TIP3    H147814   5.569   3.317  10.580 -0.9762  0.1958 -0.6537
 7873TIP3    H247815   5.454   3.224  10.550 -0.7915 -0.8130  1.6055
 7874TIP3   OH247816   4.126   3.857  11.659  0.4339  0.0003 -0.4024
 7874TIP3    H147817   4.048   3.898  11.620 -0.1926 -0.6259  0.1590
 7874TIP3    H247818   4.123   3.767  11.627  0.7063 -0.1317 -0.0529
 7875TIP3   OH247819   1.603   1.665  11.415  0.5412 -0.3174  0.8428
 7875TIP3    H147820   1.601   1.595  11.480 -0.2453 -0.8666  0.2471
 7875TIP3    H247821   1.621   1.620  11.332 -0.1187  0.1530  0.4334
 7876TIP3   OH247822   0.523   2.003  11.109 -0.0572 -0.0290 -0.2719
 7876TIP3    H147823   0.572   1.984  11.029  0.1842  0.5220 -0.2562
 7876TIP3    H247824   0.446   2.052  11.079  0.5964  1.1452 -0.0597
 7877TIP3   OH247825   2.384   6.206  10.724  0.1473  0.0793  0.2355
 7877TIP3    H147826   2.405   6.179  10.635 -0.5520  2.7250 -0.7941
 7877TIP3    H247827   2.371   6.300  10.719 -0.9873  0.1613  2.9451
 7878TIP3   OH247828   5.606   7.698  11.143  0.3665  0.7176  0.6019
 7878TIP3    H147829   5.592   7.611  11.105 -1.7554  1.7325 -1.1398
 7878TIP3    H247830   5.602   7.684  11.238 -0.0601 -1.0477  0.3559
 7879TIP3   OH247831   4.699   2.781  10.948 -1.0210  0.1812 -0.0544
 7879TIP3    H147832   4.789   2.762  10.974 -0.5681  0.6810 -1.2341
 7879TIP3    H247833   4.658   2.815  11.028  0.1424  1.0129  0.2064
 7880TIP3   OH247834   5.287   5.060  11.631  0.2303 -0.7188  0.4290
 7880TIP3    H147835   5.341   5.061  11.552  0.7079  1.7034  0.7150
 7880TIP3    H247836   5.231   5.136  11.623 -0.6057 -1.1398  1.8563
 7881TIP3   OH247837   0.620   3.693  11.852 -0.2867 -0.1058  0.2448
 7881TIP3    H147838   0.599   3.599  11.852  1.6110 -0.5734 -0.2612
 7881TIP3    H247839   0.581   3.726  11.771 -1.7538 -0.2255  0.8655
 7882TIP3   OH247840   3.747   7.465  10.901 -0.0622 -0.0752  0.1632
 7882TIP3    H147841   3.679   7.499  10.844 -0.4444  0.0734  0.6936
 7882TIP3    H247842   3.826   7.514  10.878 -0.6420  1.3418  1.0493
 7883TIP3   OH247843   7.400   6.928  10.988  0.0422 -0.4622 -0.2770
 7883TIP3    H147844   7.392   6.909  10.894  0.0270 -1.1113 -0.1520
 7883TIP3    H247845   7.314   6.905  11.024 -0.4356  1.1342 -0.3103
 7884TIP3   OH247846   6.670   6.641  11.718  0.0589  0.0172  0.1261
 7884TIP3    H147847   6.679   6.727  11.760 -2.2485 -0.1763  1.1761
 7884TIP3    H247848   6.611   6.656  11.644 -0.1162 -0.6033  0.1324
 7885TIP3   OH247849   2.065   4.821  11.578  0.2826 -0.3254 -0.5333
 7885TIP3    H147850   2.134   4.854  11.635  1.6620 -2.4226 -0.8728
 7885TIP3    H247851   1.989   4.808  11.635  1.1543 -0.9380  0.5055
 7886TIP3   OH247852   3.613   1.642  11.328 -0.1164  0.2279 -0.6617
 7886TIP3    H147853   3.702   1.639  11.293  0.2205  1.7525 -0.0243
 7886TIP3    H247854   3.605   1.563  11.381  0.2812 -0.7443 -1.9897
 7887TIP3   OH247855   7.826   1.050  12.763  0.6106 -0.0594 -0.9608
 7887TIP3    H147856   7.862   0.962  12.776  0.8821  0.1941  0.0838
 7887TIP3    H247857   7.899   1.102  12.730  0.4686 -0.1995 -1.5077
 7888TIP3   OH247858   0.914   7.072  12.514 -0.3813 -0.4521 -0.3030
 7888TIP3    H147859   0.969   7.036  12.584 -2.3405 -0.0560  1.5216
 7888TIP3    H247860   0.837   7.015  12.512 -0.6501 -0.0855 -1.7509
 7889TIP3   OH247861   3.238   2.005  10.935  0.0801 -0.1157  0.1978
 7889TIP3    H147862   3.173   1.935  10.931 -0.7958  0.7293 -1.2052
 7889TIP3    H247863   3.240   2.041  10.846  1.3538  0.8773  0.6039
 7890TIP3   OH247864   3.974   1.867  11.908 -0.1647  0.1224  0.4136
 7890TIP3    H147865   3.985   1.843  11.816 -0.8329 -0.6367  0.5277
 7890TIP3    H247866   3.883   1.845  11.928 -1.0326  3.2167  0.3975
 7891TIP3   OH247867   5.132   0.552  11.360 -0.7402 -0.0072 -0.2140
 7891TIP3    H147868   5.149   0.485  11.427 -2.3319  0.3026  0.5423
 7891TIP3    H247869   5.115   0.501  11.280 -0.1249 -0.4239 -0.0919
 7892TIP3   OH247870   2.836   0.130  11.112 -0.0920 -0.5956  0.0264
 7892TIP3    H147871   2.879   0.178  11.041 -2.6602  1.1823 -0.4907
 7892TIP3    H247872   2.832   0.193  11.184  0.2979 -1.5500  0.9023
 7893TIP3   OH247873   5.005   8.126  10.571 -0.2388  0.4463 -0.4285
 7893TIP3    H147874   5.013   8.193  10.638 -2.8736  2.6452 -2.0805
 7893TIP3    H247875   4.910   8.114  10.561 -0.0165  0.6749 -4.0744
 7894TIP3   OH247876   4.644   1.339  11.753 -0.0647 -0.2534  0.7912
 7894TIP3    H147877   4.610   1.303  11.835 -1.7639 -2.3662 -0.7102
 7894TIP3    H247878   4.718   1.282  11.732 -0.3273 -0.4366  0.3438
 7895TIP3   OH247879   7.739   4.661  11.040  0.2776  0.2194  0.5225
 7895TIP3    H147880   7.752   4.583  11.094  0.1301  0.8929  1.5548
 7895TIP3    H247881   7.709   4.728  11.101 -0.0954  0.9507 -0.4373
 7896TIP3   OH247882   2.716   4.757  12.794  0.4232 -0.2281  0.2623
 7896TIP3    H147883   2.783   4.815  12.831 -1.2944  0.8081  1.9683
 7896TIP3    H247884   2.744   4.741  12.704  2.5955  0.6725  0.7203
 7897TIP3   OH247885   0.881   1.192  11.551 -0.4326  0.0451  0.0197
 7897TIP3    H147886   0.953   1.138  11.519  1.3074  1.3590  1.5265
 7897TIP3    H247887   0.923   1.267  11.593 -2.7178  1.6404 -0.3188
 7898TIP3   OH247888   1.856   0.053  11.272 -0.0709  0.6773  0.0474
 7898TIP3    H147889   1.796   0.120  11.303 -2.1605 -0.5760 -1.0725
 7898TIP3    H247890   1.872  -0.003  11.348  0.3271  1.4604  0.5495
 7899TIP3   OH247891   4.778   3.701  11.068 -0.3185 -0.1574  0.1710
 7899TIP3    H147892   4.698   3.650  11.060 -0.2004 -0.2547 -0.4771
 7899TIP3    H247893   4.847   3.636  11.081 -0.2438 -0.1304 -0.0796
 7900TIP3   OH247894   6.104   8.191  10.840  0.1022 -0.2512 -0.7041
 7900TIP3    H147895   6.112   8.240  10.922 -1.4238  0.4363 -0.9199
 7900TIP3    H247896   6.132   8.252  10.772  0.9083 -0.6566 -0.7405
 7901TIP3   OH247897   5.593   3.568  12.733 -0.3408 -0.3686  0.0250
 7901TIP3    H147898   5.668   3.558  12.791 -0.5639 -0.9700  0.2210
 7901TIP3    H247899   5.610   3.648  12.684 -0.8453  0.9891  1.9482
 7902TIP3   OH247900   2.366   4.094  10.373 -0.3531 -0.4262 -0.0891
 7902TIP3    H147901   2.289   4.051  10.408 -0.3765 -1.2673 -1.1195
 7902TIP3    H247902   2.375   4.174  10.425 -1.1221 -0.9818  0.9341
 7903TIP3   OH247903   0.657   3.564  11.397  0.0657 -0.0941  0.2768
 7903TIP3    H147904   0.597   3.598  11.464  1.9598  3.6181  0.3702
 7903TIP3    H247905   0.714   3.638  11.377  1.9239 -2.1578 -2.8616
 7904TIP3   OH247906   1.407   5.896  12.705 -0.6327  0.1924  0.0363
 7904TIP3    H147907   1.346   5.914  12.633  0.3332 -1.6247 -1.3323
 7904TIP3    H247908   1.481   5.954  12.689  0.0645 -0.9599 -1.1504
 7905TIP3   OH247909   7.553   1.697  11.859  1.0657  0.3626 -0.2219
 7905TIP3    H147910   7.559   1.602  11.851 -0.3704  0.2443 -0.0518
 7905TIP3    H247911   7.628   1.730  11.809  1.5792 -0.8466 -0.2768
 7906TIP3   OH247912   3.066   6.525  11.349  0.2677  0.2908  0.3020
 7906TIP3    H147913   3.143   6.485  11.391 -0.0777 -1.9058 -0.9541
 7906TIP3    H247914   2.994   6.508  11.410  0.7029  2.3759  1.4935
 7907TIP3   OH247915   1.653   8.423  16.909 -0.4523  0.0273  0.7258
 7907TIP3    H147916   1.624   8.363  16.841  0.5170  1.6116 -1.2121
 7907TIP3    H247917   1.737   8.388  16.938 -1.4520 -1.3483  2.0949
 7908TIP3   OH247918   7.730   4.010  12.147 -0.0681  0.4837  1.0798
 7908TIP3    H147919   7.685   3.939  12.193  0.9198  0.3976  1.9607
 7908TIP3    H247920   7.810   3.969  12.114 -0.2845  0.7965  0.1367
 7909TIP3   OH247921   0.629   2.762  11.481 -0.2985  0.2684  0.4278
 7909TIP3    H147922   0.604   2.748  11.572  0.1084 -0.2571  0.4634
 7909TIP3    H247923   0.724   2.775  11.484 -0.0660 -1.1831 -0.0650
 7910TIP3   OH247924   2.223   0.309  12.495 -0.0457  0.3727  0.4126
 7910TIP3    H147925   2.151   0.366  12.520  0.0862  0.5203  0.4564
 7910TIP3    H247926   2.300   0.366  12.490 -0.1663  0.4560 -0.8902
 7911TIP3   OH247927   7.557   2.796  11.441  0.5536  0.2192  0.5262
 7911TIP3    H147928   7.649   2.768  11.443  0.3342 -0.9560 -2.1883
 7911TIP3    H247929   7.555   2.866  11.375 -0.3513  1.0269  1.3683
 7912TIP3   OH247930   4.690   4.225  12.335 -0.1124  0.1406  0.2111
 7912TIP3    H147931   4.727   4.143  12.303  0.4304 -0.9680  3.3311
 7912TIP3    H247932   4.762   4.269  12.380 -0.8822  1.4413  0.2461
 7913TIP3   OH247933   7.202   6.958  12.421  0.0585 -0.1747  0.3770
 7913TIP3    H147934   7.278   6.947  12.363  1.8235 -1.8627  2.8102
 7913TIP3    H247935   7.240   6.967  12.508 -2.5690 -0.9358  1.6832
 7914TIP3   OH247936   6.386   4.225  11.073  0.1423  0.2088 -0.6181
 7914TIP3    H147937   6.311   4.284  11.067  1.5357  2.1573  0.0199
 7914TIP3    H247938   6.403   4.198  10.983  0.5485  2.2679 -1.2021
 7915TIP3   OH247939   4.842   7.441  11.262 -0.4274 -0.1373  0.3219
 7915TIP3    H147940   4.834   7.352  11.228 -1.1008  0.0055  0.0938
 7915TIP3    H247941   4.926   7.441  11.309 -1.0395 -1.2748  1.4733
 7916TIP3   OH247942   0.666   2.005  11.497  0.0976  0.3926  0.0910
 7916TIP3    H147943   0.576   1.978  11.479  0.5225 -0.2112 -1.2231
 7916TIP3    H247944   0.712   1.991  11.415  1.1656  1.7151  0.4325
 7917TIP3   OH247945   3.160   2.126  11.889 -0.2306  0.0959 -0.3357
 7917TIP3    H147946   3.234   2.125  11.828  0.5961 -0.9754  0.6433
 7917TIP3    H247947   3.093   2.177  11.844  0.7456  0.2577 -1.6717
 7918TIP3   OH247948   7.762   0.730  12.154  0.6177  0.4216  0.2663
 7918TIP3    H147949   7.739   0.686  12.236 -0.1449  0.3742  0.0367
 7918TIP3    H247950   7.702   0.694  12.089  0.6745  1.0389 -0.1464
 7919TIP3   OH247951   7.215   0.477  11.765 -0.0504  0.4132  0.1870
 7919TIP3    H147952   7.198   0.387  11.792  0.8413 -0.1747 -1.0807
 7919TIP3    H247953   7.259   0.517  11.840 -0.0832 -0.3354  0.6122
 7920TIP3   OH247954   6.930   7.051  12.578  0.5708 -0.0392  0.2294
 7920TIP3    H147955   6.928   6.962  12.541 -1.4245 -0.7133  1.7411
 7920TIP3    H247956   7.015   7.056  12.621  0.9094 -1.0482 -0.2682
 7921TIP3   OH247957   3.153   7.401  11.345 -0.4794  0.2688 -0.2858
 7921TIP3    H147958   3.220   7.332  11.344 -0.1242  0.5928 -1.9879
 7921TIP3    H247959   3.087   7.368  11.406  1.4000  0.1563  1.8185
 7922TIP3   OH247960   3.604   5.212  10.729  0.5819  0.1874  0.4895
 7922TIP3    H147961   3.548   5.204  10.652  0.7086 -3.1180  0.5985
 7922TIP3    H247962   3.680   5.262  10.699  0.3185 -0.4655 -1.3437
 7923TIP3   OH247963   1.550   1.795  10.877 -0.3282 -1.2010  0.1098
 7923TIP3    H147964   1.641   1.821  10.861 -1.2885  2.1396 -0.6867
 7923TIP3    H247965   1.529   1.835  10.962 -0.9383 -2.4368  0.5666
 7924TIP3   OH247966   3.723   0.408  11.390  0.1138 -0.1514  0.7396
 7924TIP3    H147967   3.693   0.336  11.335 -1.7830 -0.5819  2.2196
 7924TIP3    H247968   3.810   0.382  11.419  0.9026 -0.1976 -1.4663
 7925TIP3   OH247969   6.480   3.982  11.242  0.3175  1.1134 -0.0017
 7925TIP3    H147970   6.468   3.902  11.294 -0.8914 -0.3850 -2.3808
 7925TIP3    H247971   6.406   4.037  11.267 -0.2378  0.4288 -0.0945
 7926TIP3   OH247972   4.307   5.866  10.980 -0.2178  0.0787  0.5852
 7926TIP3    H147973   4.288   5.914  10.900 -1.2087  1.9099  1.8277
 7926TIP3    H247974   4.336   5.780  10.951 -3.0326 -0.2255 -1.6672
 7927TIP3   OH247975   3.767   0.105  11.221  0.2829 -0.7840 -0.2499
 7927TIP3    H147976   3.785   0.179  11.164 -0.4887 -1.6467 -1.6652
 7927TIP3    H247977   3.853   0.070  11.244  0.6602  0.6300  0.5823
 7928TIP3   OH247978   0.394   2.223  12.955 -0.0352  0.2606  0.1096
 7928TIP3    H147979   0.367   2.154  13.016  0.1056 -0.3811 -0.5436
 7928TIP3    H247980   0.490   2.218  12.954 -0.0855 -0.8762 -1.4443
 7929TIP3   OH247981   5.403   0.059  10.780  0.4637  0.0410  0.4040
 7929TIP3    H147982   5.319   0.099  10.759  0.5543  0.0465  0.0573
 7929TIP3    H247983   5.407  -0.020  10.727  0.3647 -0.3413  0.9567
 7930TIP3   OH247984   5.276   5.241  12.143  0.4972  1.1011 -0.1284
 7930TIP3    H147985   5.361   5.243  12.099 -0.1878 -1.3987 -1.7665
 7930TIP3    H247986   5.221   5.300  12.093  0.2990 -0.1342 -1.4259
 7931TIP3   OH247987   0.847   3.057  12.307 -0.1716  0.1687 -0.0937
 7931TIP3    H147988   0.788   3.093  12.240 -1.0689 -0.0693  0.5422
 7931TIP3    H247989   0.797   2.985  12.346  0.7573 -0.3851  0.1077
 7932TIP3   OH247990   2.790   2.904  11.110  0.9087  0.2364 -0.4839
 7932TIP3    H147991   2.722   2.923  11.046 -0.6464 -0.5519  0.8634
 7932TIP3    H247992   2.823   2.990  11.136 -1.3179  0.8277  0.6197
 7933TIP3   OH247993   1.514   1.191  11.761  0.2992  0.2968  0.2978
 7933TIP3    H147994   1.542   1.233  11.841  0.5233 -1.2112  1.0460
 7933TIP3    H247995   1.531   1.098  11.775 -0.1036 -0.0562 -1.3081
 7934TIP3   OH247996   6.693   6.082  10.343 -0.6486 -0.4058 -0.5020
 7934TIP3    H147997   6.677   5.991  10.368  1.4894 -0.9013 -0.7218
 7934TIP3    H247998   6.781   6.081  10.305 -0.8823  1.6323 -1.2123
 7935TIP3   OH247999   3.324   2.882  11.153  0.0008 -0.5950  0.4329
 7935TIP3    H148000   3.344   2.816  11.219  2.3542  0.8963  1.3377
 7935TIP3    H248001   3.294   2.832  11.077  3.0712 -2.9142  0.5466
 7936TIP3   OH248002   5.434   8.239  10.643 -0.0697 -0.7441 -0.6609
 7936TIP3    H148003   5.468   8.192  10.568  2.0927  0.7383 -0.7049
 7936TIP3    H248004   5.474   8.196  10.719  0.9124  0.1748 -0.6323
 7937TIP3   OH248005   6.329   7.046  11.864  0.4574  0.3868 -0.2650
 7937TIP3    H148006   6.304   7.137  11.845 -0.3671  0.3262  0.4547
 7937TIP3    H248007   6.273   7.021  11.937  1.9010 -0.1407  0.7038
 7938TIP3   OH248008   7.005   2.462  11.915 -0.0088  0.3363 -0.5139
 7938TIP3    H148009   6.994   2.480  11.821 -1.6866 -0.3678 -0.4752
 7938TIP3    H248010   7.071   2.392  11.918 -1.7591 -1.4470 -1.3809
 7939TIP3   OH248011   0.522   6.303  11.183 -0.6338  0.5052 -0.1444
 7939TIP3    H148012   0.466   6.369  11.224 -0.6688  1.6832 -1.9633
 7939TIP3    H248013   0.464   6.259  11.120 -0.2134 -0.2021 -0.0427
 7940TIP3   OH248014   8.391   6.829  11.578  0.1102  0.0596 -0.1032
 7940TIP3    H148015   8.298   6.808  11.592  0.2472 -0.9017 -0.5731
 7940TIP3    H248016   8.435   6.796  11.656  0.1346 -0.0207 -0.1510
 7941TIP3   OH248017   4.448   1.205  10.570 -0.3132  0.6620  0.1480
 7941TIP3    H148018   4.395   1.191  10.492 -2.8830  1.6750  1.5776
 7941TIP3    H248019   4.441   1.299  10.587  2.0083  0.8425  0.4460
 7942TIP3   OH248020   5.637   1.618  10.935 -0.0521 -0.1269  0.1758
 7942TIP3    H148021   5.725   1.654  10.926  0.0058 -0.6794 -1.7711
 7942TIP3    H248022   5.646   1.526  10.911 -0.8951 -0.5913  1.5031
 7943TIP3   OH248023   0.899   1.096  12.232  0.1040  0.3794  0.4680
 7943TIP3    H148024   0.804   1.103  12.222  0.1551  0.7491  0.1852
 7943TIP3    H248025   0.930   1.187  12.224  0.4460  0.3077  0.9467
 7944TIP3   OH248026   5.675   8.393  10.919 -0.3039  0.0677  0.2551
 7944TIP3    H148027   5.609   8.431  10.977 -0.4883 -0.4194  0.3773
 7944TIP3    H248028   5.709   8.466  10.869 -0.7877  0.3563  0.3443
 7945TIP3   OH248029   5.467   7.011  10.302 -0.1061  0.1071 -0.6921
 7945TIP3    H148030   5.448   7.102  10.325  0.2408  0.1166 -0.4309
 7945TIP3    H248031   5.561   7.010  10.284 -0.1063 -0.2023 -0.6809
 7946TIP3   OH248032   0.240   0.033  11.203 -0.6260 -0.3869 -0.2023
 7946TIP3    H148033   0.236   0.054  11.110 -0.4772  2.2460  0.3127
 7946TIP3    H248034   0.178   0.093  11.244  1.9836  1.1824  1.7428
 7947TIP3   OH248035   1.700   4.346  11.165 -0.0592  0.3028 -0.4580
 7947TIP3    H148036   1.694   4.268  11.111  2.0079  0.4731 -1.0028
 7947TIP3    H248037   1.776   4.331  11.221 -0.2150  1.5150  0.1125
 7948TIP3   OH248038   5.617   4.493  10.370  0.2317  0.1470 -0.0348
 7948TIP3    H148039   5.549   4.525  10.310  0.7094  0.8581 -0.2176
 7948TIP3    H248040   5.616   4.398  10.360  0.2971  0.2512 -1.1911
 7949TIP3   OH248041   7.048   4.589  12.289  0.2077  0.0276  0.5275
 7949TIP3    H148042   7.122   4.530  12.274  0.0426 -0.0423 -0.0516
 7949TIP3    H248043   6.981   4.534  12.329  0.5479  0.1456  1.2841
 7950TIP3   OH248044   2.729   8.219  11.881 -0.2162 -0.5959 -0.4392
 7950TIP3    H148045   2.744   8.141  11.934 -2.4789 -0.2302  0.8602
 7950TIP3    H248046   2.695   8.184  11.798 -1.4328 -1.0444  0.2132
 7951TIP3   OH248047   6.086   6.232  11.787 -0.5140  0.7979  0.3291
 7951TIP3    H148048   5.990   6.232  11.778 -0.5518  0.1281  0.6720
 7951TIP3    H248049   6.114   6.154  11.740 -0.0667  1.3604 -0.3588
 7952TIP3   OH248050   7.173   5.434  12.098  0.7268  0.0384  0.4033
 7952TIP3    H148051   7.211   5.522  12.097 -1.4072  1.0717 -2.0041
 7952TIP3    H248052   7.095   5.441  12.153  1.6873 -0.9769  1.9678
 7953TIP3   OH248053   4.190   3.858  11.025  0.0682 -0.1382 -0.1419
 7953TIP3    H148054   4.267   3.828  10.976 -0.0999 -1.0746  0.1398
 7953TIP3    H248055   4.190   3.804  11.104 -1.0536 -0.3750 -0.2897
 7954TIP3   OH248056   1.725   7.381  10.587  0.3999 -0.0688  0.1703
 7954TIP3    H148057   1.687   7.456  10.542  1.3776  0.0796 -0.4239
 7954TIP3    H248058   1.653   7.317  10.592 -0.1252  0.4766 -0.2983
 7955TIP3   OH248059   5.257   2.909  12.685 -0.8130 -1.0261 -0.1253
 7955TIP3    H148060   5.315   2.940  12.616 -0.8331  0.0515  0.3285
 7955TIP3    H248061   5.288   2.821  12.705  1.4143 -0.0845  0.8835
 7956TIP3   OH248062   2.855   2.957  11.735 -0.1703 -0.2588 -0.1799
 7956TIP3    H148063   2.881   2.868  11.711  0.6333 -0.0151 -0.2420
 7956TIP3    H248064   2.823   2.949  11.825 -0.1074 -0.6140 -0.1853
 7957TIP3   OH248065   2.770   6.590  12.063 -0.3185  0.0669 -0.1696
 7957TIP3    H148066   2.844   6.647  12.043 -0.0499 -0.1062  0.3023
 7957TIP3    H248067   2.794   6.505  12.027  0.6234 -0.5171  1.6756
 7958TIP3   OH248068   3.369   0.945  12.534  0.5417  0.3401 -0.2014
 7958TIP3    H148069   3.377   0.852  12.512 -0.4096 -0.2181  1.6050
 7958TIP3    H248070   3.416   0.954  12.616  1.9481  1.8307 -1.1058
 7959TIP3   OH248071   5.502   2.294  12.210 -0.6075  0.3088 -0.5309
 7959TIP3    H148072   5.452   2.281  12.129 -1.7777  0.9677  0.0650
 7959TIP3    H248073   5.566   2.223  12.210  0.4560  1.1664 -2.7942
 7960TIP3   OH248074   0.537   5.711  10.388 -0.2345  0.7345  0.7273
 7960TIP3    H148075   0.597   5.642  10.360  0.8167  2.3365 -1.2967
 7960TIP3    H248076   0.450   5.676  10.371  0.3023  0.4384 -1.9087
 7961TIP3   OH248077   2.855   0.576  12.208  0.2302  0.1584  0.3744
 7961TIP3    H148078   2.886   0.575  12.118 -1.1090 -0.9227 -0.1187
 7961TIP3    H248079   2.920   0.626  12.256  0.4296  1.6503 -1.3717
 7962TIP3   OH248080   6.648   6.122  10.942 -0.1539 -0.2463 -1.0735
 7962TIP3    H148081   6.557   6.152  10.939 -0.1744 -0.1924 -0.1904
 7962TIP3    H248082   6.699   6.202  10.953 -0.0997 -0.3758 -0.2918
 7963TIP3   OH248083   2.895   4.724  10.544  0.1721 -0.2444 -0.6503
 7963TIP3    H148084   2.880   4.729  10.449  2.1008  0.9337 -0.9452
 7963TIP3    H248085   2.926   4.811  10.568 -1.0398 -0.2855  1.2365
 7964TIP3   OH248086   8.206   7.282  11.945 -0.2736 -0.2841 -0.2404
 7964TIP3    H148087   8.146   7.340  11.992 -0.7609 -1.5430  0.7604
 7964TIP3    H248088   8.156   7.253  11.869 -0.5601 -0.4997  0.0253
 7965TIP3   OH248089   4.937   2.661  10.990  0.4831  0.2455 -0.6427
 7965TIP3    H148090   4.987   2.700  11.062  1.0344 -1.8588  0.2199
 7965TIP3    H248091   4.984   2.687  10.911  0.7760  1.3338 -0.1312
 7966TIP3   OH248092   7.356   8.086  11.183  0.1879 -0.3718  0.9235
 7966TIP3    H148093   7.423   8.129  11.236 -0.3502  0.8744  0.6352
 7966TIP3    H248094   7.281   8.146  11.186 -0.1617 -0.6963 -0.5188
 7967TIP3   OH248095   0.040   4.377  11.197 -0.8027 -0.2975 -0.6010
 7967TIP3    H148096  -0.012   4.444  11.241 -0.8976 -0.3859 -0.5788
 7967TIP3    H248097  -0.012   4.353  11.121 -0.2121  0.5383 -1.2986
 7968TIP3   OH248098   5.227   7.785  12.366  0.5037 -0.0309  0.2725
 7968TIP3    H148099   5.153   7.811  12.421  0.6721  0.2480  0.3713
 7968TIP3    H248100   5.187   7.759  12.283  0.3390  0.7667  0.0866
 7969TIP3   OH248101   5.364   5.162  11.121  0.2697  0.3158  0.2412
 7969TIP3    H148102   5.321   5.145  11.038  0.2963 -1.0324  0.4888
 7969TIP3    H248103   5.457   5.160  11.101  0.3562 -2.0881  0.6315
 7970TIP3   OH248104   3.268   1.806  12.483 -0.2967  0.7408  0.0883
 7970TIP3    H148105   3.313   1.722  12.480  3.6668  2.6508 -0.1170
 7970TIP3    H248106   3.226   1.815  12.398 -0.5384 -0.8861  0.0195
 7971TIP3   OH248107   7.356   6.244  10.967 -0.0365  0.3818  0.1602
 7971TIP3    H148108   7.389   6.208  11.050 -0.6488  0.0825  0.2757
 7971TIP3    H248109   7.429   6.232  10.906  0.6020  1.0703  0.7792
 7972TIP3   OH248110   5.153   6.749  11.798  0.3455 -0.0076 -0.7710
 7972TIP3    H148111   5.213   6.824  11.800  2.8823 -1.8705  1.8556
 7972TIP3    H248112   5.120   6.742  11.888 -0.7207 -1.3823 -1.2329
 7973TIP3   OH248113   5.129   8.247  11.196  0.3361 -0.3551  0.0927
 7973TIP3    H148114   5.042   8.227  11.162  0.9396 -2.6209 -0.2631
 7973TIP3    H248115   5.188   8.236  11.121  1.0202  0.5626  0.4684
 7974TIP3   OH248116   1.894   4.965  10.591 -0.0582 -0.4877  0.0936
 7974TIP3    H148117   1.855   4.883  10.559 -0.7084 -0.3534  0.5164
 7974TIP3    H248118   1.833   4.995  10.659  0.7316 -0.2060  0.6908
 7975TIP3   OH248119   7.245   4.292  11.768 -0.6175 -0.5766 -1.0028
 7975TIP3    H148120   7.209   4.232  11.833 -0.4541 -0.7755 -1.0955
 7975TIP3    H248121   7.300   4.237  11.713  2.2618  0.1638  0.8925
 7976TIP3   OH248122   4.146   4.183  11.525 -0.0798  0.2584  0.5545
 7976TIP3    H148123   4.104   4.107  11.485  0.2406 -0.4673  1.5689
 7976TIP3    H248124   4.165   4.241  11.451  1.2903 -1.4125 -0.4858
 7977TIP3   OH248125   7.808   7.139  10.913 -0.2447 -0.0069 -0.2130
 7977TIP3    H148126   7.825   7.160  10.821 -1.1768 -0.7785 -0.5880
 7977TIP3    H248127   7.843   7.213  10.962  1.6898 -0.2956 -1.0654
 7978TIP3   OH248128   8.193   3.786  12.960 -0.0211  0.0575 -0.1198
 7978TIP3    H148129   8.138   3.714  12.929 -1.7590  0.9061  0.8555
 7978TIP3    H248130   8.283   3.756  12.943 -0.7121 -1.8895 -0.6597
 7979TIP3   OH248131   5.100   2.351  12.318  0.0334 -0.0040 -0.2445
 7979TIP3    H148132   5.087   2.305  12.401  1.1538 -0.0905 -0.0959
 7979TIP3    H248133   5.030   2.416  12.315 -0.0001  0.0267  0.7955
 7980TIP3   OH248134   5.473   6.624  11.450 -0.0090  0.0008 -0.3496
 7980TIP3    H148135   5.508   6.630  11.539 -0.3867 -1.1629 -0.0991
 7980TIP3    H248136   5.487   6.711  11.412  0.3499  0.4478  0.7717
 7981TIP3   OH248137   5.632   8.068  12.420  0.4293  0.1822 -0.1470
 7981TIP3    H148138   5.719   8.104  12.406  0.4041  0.6786  0.8420
 7981TIP3    H248139   5.623   7.999  12.355  0.9347  1.1895 -1.3305
 7982TIP3   OH248140   0.178   6.934  10.995  0.9344  0.2519 -0.4311
 7982TIP3    H148141   0.268   6.948  11.025  0.3376  0.9733  1.1527
 7982TIP3    H248142   0.160   6.843  11.018  1.2188  0.1332 -0.6644
 7983TIP3   OH248143   3.625   7.781  11.200  0.2263  0.1435  0.8426
 7983TIP3    H148144   3.688   7.826  11.256  1.5236  0.2597 -0.6242
 7983TIP3    H248145   3.649   7.807  11.111 -1.6540 -0.1433  0.1981
 7984TIP3   OH248146   5.685   4.531  11.208 -0.8831 -0.2313  0.0799
 7984TIP3    H148147   5.670   4.580  11.288 -2.8046 -1.3522  0.4745
 7984TIP3    H248148   5.647   4.585  11.139  1.3089  1.0204 -0.2384
 7985TIP3   OH248149   2.418   1.071  11.819  0.3418 -0.7025 -0.3552
 7985TIP3    H148150   2.415   1.137  11.888 -1.4594 -1.5729  0.4795
 7985TIP3    H248151   2.469   0.999  11.857 -1.1654 -1.4371  0.3825
 7986TIP3   OH248152   0.743   0.674  10.679  0.1105  0.0435  0.3452
 7986TIP3    H148153   0.795   0.680  10.759  0.7321 -1.6136  0.0940
 7986TIP3    H248154   0.772   0.749  10.626  2.4684 -0.9571  0.1007
 7987TIP3   OH248155   0.969   3.635  11.894  0.4148  0.1266  0.2688
 7987TIP3    H148156   0.912   3.593  11.958  2.4470 -0.0026  2.1255
 7987TIP3    H248157   0.946   3.727  11.897 -0.1058 -0.0113  0.5441
 7988TIP3   OH248158   7.505   5.179  11.737 -0.1967 -0.0663 -0.2975
 7988TIP3    H148159   7.437   5.167  11.803 -0.4544 -1.7900 -0.8097
 7988TIP3    H248160   7.468   5.139  11.658  1.1484 -0.4457 -0.7570
 7989TIP3   OH248161   5.868   2.928  10.807  0.2469 -0.0479  0.6432
 7989TIP3    H148162   5.915   2.849  10.779  0.7440 -0.4072  2.4175
 7989TIP3    H248163   5.791   2.896  10.853 -0.1143  0.5318  0.4597
 7990TIP3   OH248164   1.828   3.600  12.346 -0.2454  0.6129  0.0426
 7990TIP3    H148165   1.824   3.668  12.413  0.5048  1.0439 -0.3390
 7990TIP3    H248166   1.789   3.523  12.387 -0.8077  1.1830  0.5886
 7991TIP3   OH248167   6.622   0.499  11.839  1.1229 -1.0799  0.1638
 7991TIP3    H148168   6.694   0.561  11.835 -0.2912  0.5574 -1.9262
 7991TIP3    H248169   6.545   0.550  11.817 -0.5955 -2.9526  1.4597
 7992TIP3   OH248170   6.861   2.866  12.057  0.5689  0.4240 -0.1376
 7992TIP3    H148171   6.873   2.788  12.111  0.7745  0.3774 -0.2494
 7992TIP3    H248172   6.782   2.907  12.091  0.8265  0.5206  0.3580
 7993TIP3   OH248173   3.072   3.956  11.614 -0.8024 -0.5692 -0.1085
 7993TIP3    H148174   3.098   3.994  11.530 -0.4243  0.6628  0.5448
 7993TIP3    H248175   3.065   3.862  11.596 -0.3175 -0.3823 -1.4126
 7994TIP3   OH248176   0.257   5.540  10.423 -0.7845  0.2338  0.3307
 7994TIP3    H148177   0.255   5.449  10.452 -0.2013 -0.3755 -1.4588
 7994TIP3    H248178   0.165   5.561  10.404 -0.6010 -1.1985 -2.6936
 7995TIP3   OH248179   0.190   7.632  12.012 -0.0062 -0.5860 -0.7892
 7995TIP3    H148180   0.269   7.683  11.996 -0.5563  0.6023  0.0704
 7995TIP3    H248181   0.137   7.688  12.068 -0.6797 -2.0976  0.1544
 7996TIP3   OH248182   1.349   6.985  10.997 -0.2962 -0.0398 -0.0698
 7996TIP3    H148183   1.317   6.898  11.021 -0.5755 -0.9645 -3.3131
 7996TIP3    H248184   1.444   6.976  10.996 -0.1942  0.4215  1.8270
 7997TIP3   OH248185   5.919   5.236  12.033 -0.5103  0.6247 -0.2235
 7997TIP3    H148186   5.877   5.153  12.056  0.2383  0.0105 -1.0063
 7997TIP3    H248187   5.883   5.259  11.948 -1.1685  1.4306  0.2620
 7998TIP3   OH248188   3.665   6.898  11.294  0.2961  0.5021 -0.1151
 7998TIP3    H148189   3.618   6.898  11.211 -0.2133  0.4432  0.1725
 7998TIP3    H248190   3.744   6.846  11.277  0.6571  1.2452 -0.8172
 7999TIP3   OH248191   8.433   7.791  10.623 -0.0400  0.1453  0.2966
 7999TIP3    H148192   8.486   7.724  10.580  0.2256  0.1129  0.6646
 7999TIP3    H248193   8.354   7.798  10.570  0.3106  0.1526 -0.2240
 8000TIP3   OH248194   6.001   1.802  11.415  0.1215  0.5161  0.0295
 8000TIP3    H148195   5.943   1.841  11.350  0.0227  0.3642  0.0260
 8000TIP3    H248196   6.073   1.765  11.364 -1.3773 -2.1926 -0.2972
 8001TIP3   OH248197   7.082   3.046  12.436 -0.4964  0.3343  0.1936
 8001TIP3    H148198   7.054   3.078  12.351  1.2671 -1.7088 -1.2745
 8001TIP3    H248199   7.042   3.106  12.499  0.5129  3.7694 -2.1543
 8002TIP3   OH248200   1.228   2.780  12.372 -0.1552 -0.5525  0.1007
 8002TIP3    H148201   1.167   2.759  12.301  0.2541  1.5352 -0.9705
 8002TIP3    H248202   1.308   2.732  12.350 -0.5751 -1.2330  0.0576
 8003TIP3   OH248203   5.678   3.976  10.324  0.2309  0.8722 -0.0067
 8003TIP3    H148204   5.649   3.928  10.401  0.3797 -1.0979 -1.1167
 8003TIP3    H248205   5.638   3.930  10.250  2.3281  0.9539 -1.2744
 8004TIP3   OH248206   4.746   2.704  11.299 -0.0871 -0.5951  0.2954
 8004TIP3    H148207   4.720   2.785  11.256 -0.0578 -0.5956  0.2770
 8004TIP3    H248208   4.694   2.636  11.257  0.1238 -0.6302  0.0880
 8005TIP3   OH248209   2.566   6.025  11.176  0.6775  0.6873 -0.1612
 8005TIP3    H148210   2.524   6.072  11.104  1.6155  0.9102 -0.5890
 8005TIP3    H248211   2.601   5.945  11.135 -0.9783 -0.4564  0.5782
 8006TIP3   OH248212   0.303   5.488  12.194  0.6733 -0.1552  0.0723
 8006TIP3    H148213   0.345   5.463  12.112  0.1235 -1.8118  0.2591
 8006TIP3    H248214   0.253   5.567  12.172 -0.4409 -1.2472 -1.5281
 8007TIP3   OH248215   3.943   6.436  11.185 -1.0278 -0.1228 -0.2313
 8007TIP3    H148216   3.940   6.417  11.091 -4.4597 -1.1607 -0.0863
 8007TIP3    H248217   3.993   6.363  11.223 -1.6185 -0.9937 -1.0801
 8008TIP3   OH248218   6.113   2.652  11.126  0.1076  0.0027  0.1447
 8008TIP3    H148219   6.070   2.575  11.089  0.8423 -0.2172 -0.2760
 8008TIP3    H248220   6.056   2.726  11.101 -1.2346 -0.4996  1.5604
 8009TIP3   OH248221   1.965   7.826  11.156  0.1752 -0.2405 -1.0524
 8009TIP3    H148222   1.918   7.784  11.084  0.1088 -0.8361 -0.6706
 8009TIP3    H248223   2.028   7.760  11.185  0.4971  0.1516 -0.8408
 8010TIP3   OH248224   4.337   3.539  12.192  0.2586  0.2881 -0.8006
 8010TIP3    H148225   4.407   3.604  12.185  0.1192  0.4659 -0.5255
 8010TIP3    H248226   4.360   3.488  12.271 -2.5984  3.5575  2.4855
 8011TIP3   OH248227   1.342   4.877  12.222  0.3294  0.1229  0.1196
 8011TIP3    H148228   1.340   4.789  12.186 -1.6303  0.1320  0.0885
 8011TIP3    H248229   1.294   4.871  12.304 -0.0045  1.1924  0.0246
 8012TIP3   OH248230   2.495   3.436  10.586 -0.1763 -0.0678 -0.2596
 8012TIP3    H148231   2.577   3.390  10.602 -0.0203  1.4744  5.8485
 8012TIP3    H248232   2.513   3.527  10.607 -2.6390  1.1945 -2.8995
 8013TIP3   OH248233   3.252   2.761  12.113  0.1060  0.9501 -0.7451
 8013TIP3    H148234   3.347   2.763  12.126  0.1321 -1.3852 -0.1875
 8013TIP3    H248235   3.224   2.851  12.132  2.1478  1.6120 -0.5789
 8014TIP3   OH248236   3.522   4.379  12.180  0.2694  0.0663 -0.4772
 8014TIP3    H148237   3.501   4.451  12.240  0.0481  0.0333 -0.5150
 8014TIP3    H248238   3.570   4.316  12.234  1.9204  0.9708 -0.8115
 8015TIP3   OH248239   4.174   2.624  11.039 -0.1583  0.4839  0.0565
 8015TIP3    H148240   4.241   2.559  11.016 -0.2810 -0.5686  2.3959
 8015TIP3    H248241   4.213   2.675  11.110 -0.3089  2.6494 -1.3190
 8016TIP3   OH248242   3.150   2.507  11.540  0.2978 -0.2606  0.4693
 8016TIP3    H148243   3.103   2.432  11.503 -1.7898  1.3686 -0.4048
 8016TIP3    H248244   3.126   2.508  11.632  0.1744 -0.5411  0.4411
 8017TIP3   OH248245   7.501   3.942  10.518 -0.6047  0.2654  0.0533
 8017TIP3    H148246   7.544   3.864  10.552 -0.7335 -0.1578 -0.7328
 8017TIP3    H248247   7.540   4.014  10.567  0.4524 -0.1717 -0.1196
 8018TIP3   OH248248   2.664   3.123  11.422  0.2639 -0.3853 -0.2100
 8018TIP3    H148249   2.697   3.177  11.350 -0.7060  1.1954  0.4727
 8018TIP3    H248250   2.704   3.161  11.500 -1.0377 -0.1612  0.3608
 8019TIP3   OH248251   7.154   4.204  11.203  0.1937 -0.4450 -0.0037
 8019TIP3    H148252   7.119   4.158  11.280  1.2673  0.5968  1.1553
 8019TIP3    H248253   7.160   4.296  11.230  1.3066 -0.1725 -1.0569
 8020TIP3   OH248254   7.680   7.148  11.707  0.4451 -0.7828 -0.1531
 8020TIP3    H148255   7.666   7.063  11.667  1.0348 -0.8268 -0.2740
 8020TIP3    H248256   7.775   7.155  11.718  0.3227 -0.6786  1.0250
 8021TIP3   OH248257   2.917   0.902  12.140  0.5113  0.6238 -0.4836
 8021TIP3    H148258   2.964   0.862  12.214  0.3201 -0.4397 -0.9261
 8021TIP3    H248259   2.944   0.850  12.064 -1.9373 -0.4973 -0.6528
 8022TIP3   OH248260   7.258   5.081  10.785 -0.0499 -0.2238  0.1484
 8022TIP3    H148261   7.320   5.012  10.808 -0.3738 -0.6447 -0.2184
 8022TIP3    H248262   7.286   5.110  10.698 -0.4151 -0.4875 -0.0653
 8023TIP3   OH248263   1.256   1.334  12.372 -0.0679 -0.1230  0.1270
 8023TIP3    H148264   1.290   1.374  12.452 -2.9429  2.1000  0.4208
 8023TIP3    H248265   1.247   1.241  12.393  0.5073  0.1820  1.8880
 8024TIP3   OH248266   1.315   5.964  12.473  0.6413 -0.1080  0.4054
 8024TIP3    H148267   1.288   5.918  12.394 -0.8991  0.3121  0.6673
 8024TIP3    H248268   1.367   6.038  12.441 -0.1411  0.1757 -0.2277
 8025TIP3   OH248269   8.089   1.751  12.259  0.1172 -0.6255  0.1531
 8025TIP3    H148270   8.156   1.700  12.303  2.3634  0.5900 -1.6682
 8025TIP3    H248271   8.073   1.825  12.317  2.3650  0.4686 -0.5115
 8026TIP3   OH248272   3.565   4.888  12.007 -0.1537 -0.5722  0.3376
 8026TIP3    H148273   3.617   4.925  12.079  0.7368  1.0018 -1.0429
 8026TIP3    H248274   3.630   4.850  11.948 -0.5406  0.9760 -1.1679
 8027TIP3   OH248275   2.193   0.582  11.296 -0.5103  0.2705  0.1912
 8027TIP3    H148276   2.148   0.503  11.266  0.4743 -0.2077 -0.0856
 8027TIP3    H248277   2.220   0.626  11.215 -0.4725  0.5394  0.3490
 8028TIP3   OH248278   1.671   7.658  10.494 -0.4289 -0.3503  0.1423
 8028TIP3    H148279   1.692   7.687  10.582 -0.4321  0.1201 -0.0063
 8028TIP3    H248280   1.692   7.734  10.438 -4.4048  1.0351  0.1577
 8029TIP3   OH248281   2.050   3.732  12.003 -0.0001  0.2009 -0.0900
 8029TIP3    H148282   2.142   3.757  11.994 -0.1744  1.1852  0.7251
 8029TIP3    H248283   2.027   3.696  11.917  0.6635  1.5640 -0.8882
 8030TIP3   OH248284   5.091   0.089  12.381  0.0831 -0.2052 -0.4167
 8030TIP3    H148285   5.117   0.043  12.461  0.1957 -0.4966 -0.6203
 8030TIP3    H248286   5.027   0.153  12.410 -0.7525 -1.0892 -0.2616
 8031TIP3   OH248287   2.438   1.482  12.921  0.0849 -0.0919 -0.4864
 8031TIP3    H148288   2.522   1.448  12.893  1.0206  2.2772 -0.8108
 8031TIP3    H248289   2.373   1.422  12.884  1.5910 -1.8401 -0.3979
 8032TIP3   OH248290   4.187   8.350  11.383  0.1216  0.3206  0.0547
 8032TIP3    H148291   4.192   8.342  11.478 -1.3106 -0.7236  0.0733
 8032TIP3    H248292   4.209   8.263  11.350 -3.1173 -0.4883 -0.3392
 8033TIP3   OH248293   7.299   7.331  12.778  0.8094 -0.3690  0.0583
 8033TIP3    H148294   7.241   7.396  12.817 -0.3395 -1.3605  0.0870
 8033TIP3    H248295   7.383   7.375  12.769 -0.3732  1.7506 -1.6575
 8034TIP3   OH248296   0.084   3.456  11.183 -0.5658 -0.3923 -0.2593
 8034TIP3    H148297   0.072   3.365  11.211 -2.9917 -0.6229 -1.7130
 8034TIP3    H248298   0.015   3.470  11.118  2.3373  1.2083 -3.2805
 8035TIP3   OH248299   8.244   5.509  11.576 -0.7183  0.0864  0.1267
 8035TIP3    H148300   8.284   5.596  11.576  1.0571 -0.6438  1.4667
 8035TIP3    H248301   8.221   5.493  11.668  0.0254 -1.2461  0.1220
 8036TIP3   OH248302   1.618   6.872  10.918 -0.1407 -0.4385 -0.5774
 8036TIP3    H148303   1.704   6.831  10.923  0.2213  0.2023 -1.3930
 8036TIP3    H248304   1.625   6.950  10.974 -0.8657 -1.5148  1.0714
 8037TIP3   OH248305   3.197   0.125  12.162 -0.0173  0.8371 -0.4175
 8037TIP3    H148306   3.155   0.062  12.221  0.3693  0.6094 -0.3862
 8037TIP3    H248307   3.142   0.124  12.084  0.0503  0.3732 -0.4618
 8038TIP3   OH248308   3.957   4.797  12.468 -0.0816 -0.6631  0.1191
 8038TIP3    H148309   4.012   4.850  12.525  0.2948 -2.0183  1.0565
 8038TIP3    H248310   3.921   4.859  12.405  0.2254  0.7216  1.2597
 8039TIP3   OH248311   6.697   4.717  12.241  0.0976 -0.1298 -0.3560
 8039TIP3    H148312   6.714   4.804  12.276  0.1310  0.5656 -1.9967
 8039TIP3    H248313   6.686   4.731  12.147 -0.2888 -1.8497 -0.5974
 8040TIP3   OH248314   1.615   0.380  11.088  0.7758 -0.4898 -0.0510
 8040TIP3    H148315   1.662   0.313  11.038  1.6024  1.1946 -1.6547
 8040TIP3    H248316   1.659   0.462  11.066  0.3718  0.5134  2.5615
 8041TIP3   OH248317   0.002   7.157  12.273  0.0257 -0.5510  0.3078
 8041TIP3    H148318  -0.001   7.120  12.185  0.3568  2.0254 -0.8974
 8041TIP3    H248319  -0.079   7.127  12.315  0.3684 -2.6828 -0.4439
 8042TIP3   OH248320   6.789   7.618  11.884 -0.3496 -0.0282  0.5918
 8042TIP3    H148321   6.856   7.644  11.821 -0.9442  2.2208  0.8162
 8042TIP3    H248322   6.814   7.529  11.910  1.8157  0.2712 -0.2568
 8043TIP3   OH248323   3.717   3.789  11.252 -0.0729 -0.4739 -0.3300
 8043TIP3    H148324   3.643   3.813  11.308 -1.3437 -0.6913 -1.8560
 8043TIP3    H248325   3.698   3.828  11.167  2.2879  0.6575 -0.4229
 8044TIP3   OH248326   6.099   0.986  10.700  0.4392  0.0480 -0.3203
 8044TIP3    H148327   6.186   0.990  10.740 -0.1581  1.0943  0.9640
 8044TIP3    H248328   6.102   1.048  10.628  0.2710  1.4314  0.8129
 8045TIP3   OH248329   8.353   3.900  12.101 -1.0480  0.0982 -0.1287
 8045TIP3    H148330   8.267   3.912  12.060 -0.9164  1.0322 -0.1415
 8045TIP3    H248331   8.352   3.959  12.176 -0.5927 -0.2409  0.1446
 8046TIP3   OH248332   7.851   1.068  11.004 -0.2688 -0.0911  0.4661
 8046TIP3    H148333   7.798   1.030  11.075 -0.1518 -1.8736 -0.3536
 8046TIP3    H248334   7.794   1.063  10.927  0.8130 -1.4636 -0.2931
 8047TIP3   OH248335   5.889   6.539  12.518  1.1197 -0.2289  0.5720
 8047TIP3    H148336   5.837   6.459  12.507  0.0931  0.6561 -1.4694
 8047TIP3    H248337   5.977   6.514  12.493  0.6457 -0.5869 -0.8632
 8048TIP3   OH248338   4.245   2.025  12.260 -0.3271 -0.0823 -0.0148
 8048TIP3    H148339   4.233   1.930  12.266  0.3272 -0.1475  0.2932
 8048TIP3    H248340   4.200   2.050  12.179 -2.3199 -0.3524  0.9510
 8049TIP3   OH248341   5.871   2.203  10.662  0.2316  0.3287  0.2586
 8049TIP3    H148342   5.938   2.171  10.602  0.5231  1.0364  0.2005
 8049TIP3    H248343   5.868   2.138  10.732 -0.6885 -0.9603 -0.9139
 8050TIP3   OH248344   5.990   5.061  12.499  0.0011  0.0729 -0.8570
 8050TIP3    H148345   6.055   5.128  12.522  1.4286 -0.5592 -2.7154
 8050TIP3    H248346   5.909   5.109  12.486 -0.2870  0.7582  2.6631
 8051TIP3   OH248347   1.249   1.214  11.692  0.3654  0.6473  0.5420
 8051TIP3    H148348   1.338   1.180  11.702  0.5600  0.5577 -1.3181
 8051TIP3    H248349   1.242   1.281  11.761  2.2667  1.4341  0.0401
 8052TIP3   OH248350   0.304   4.340  12.170  0.2578 -0.1524 -0.2442
 8052TIP3    H148351   0.217   4.311  12.196 -0.5304  2.0341 -0.2439
 8052TIP3    H248352   0.305   4.434  12.189  1.9800  0.2404 -1.9369
 8053TIP3   OH248353   3.181   5.922  12.256  0.3512 -0.2806 -0.0561
 8053TIP3    H148354   3.108   5.968  12.213 -0.6045  0.1863  1.9495
 8053TIP3    H248355   3.256   5.938  12.198 -0.7084  0.8919 -1.1825
 8054TIP3   OH248356   6.747   6.368  11.020  0.3898 -0.0121  0.1723
 8054TIP3    H148357   6.834   6.345  11.052  0.8483  0.9902 -0.3083
 8054TIP3    H248358   6.692   6.369  11.098  0.6025 -1.4559  0.3788
 8055TIP3   OH248359   8.135   0.991  12.427  0.5070  0.0331  0.0272
 8055TIP3    H148360   8.044   0.963  12.436  0.3357  0.0262 -1.5541
 8055TIP3    H248361   8.161   0.962  12.340  1.3508  1.9476 -0.4032
 8056TIP3   OH248362   3.128   0.036  11.909  0.4210  0.0544 -0.3167
 8056TIP3    H148363   3.069  -0.036  11.930  0.9869 -0.4629 -0.4730
 8056TIP3    H248364   3.172   0.009  11.828  1.5914 -0.0318  0.3152
 8057TIP3   OH248365   6.863   8.006  12.856  0.3675  0.1328 -0.1946
 8057TIP3    H148366   6.906   8.029  12.774  1.1727  0.6106  0.3528
 8057TIP3    H248367   6.812   8.084  12.879 -1.0646 -0.5274 -0.9842
 8058TIP3   OH248368   5.209   6.627  10.892 -0.0467  0.4877 -0.0225
 8058TIP3    H148369   5.238   6.638  10.801 -1.9608 -0.2520 -0.7781
 8058TIP3    H248370   5.289   6.636  10.944  1.4964 -1.1456 -1.9277
 8059TIP3   OH248371   4.112   4.995  10.550 -0.2073  0.2255 -0.3928
 8059TIP3    H148372   4.113   4.917  10.607 -0.8917  0.0224 -0.6508
 8059TIP3    H248373   4.203   5.024  10.548  0.6102 -2.1674 -2.4927
 8060TIP3   OH248374   7.657   6.064  12.833 -0.2960  0.9352  0.6117
 8060TIP3    H148375   7.746   6.100  12.830 -0.0964  0.3995 -0.2170
 8060TIP3    H248376   7.648   6.017  12.750 -0.4562 -1.1428  1.7417
 8061TIP3   OH248377   2.381   5.591  11.245  0.0129 -0.5284 -0.3663
 8061TIP3    H148378   2.441   5.627  11.180  1.0463 -2.0310 -0.2933
 8061TIP3    H248379   2.303   5.566  11.195  1.0595 -2.3104 -1.2215
 8062TIP3   OH248380   4.941   1.758  11.165  0.2855  0.6363 -0.6488
 8062TIP3    H148381   4.973   1.768  11.255  0.1351  0.3206 -0.5595
 8062TIP3    H248382   5.019   1.737  11.114  0.4521  1.2950 -0.6766
 8063TIP3   OH248383   8.161   7.146  11.140  0.1690  0.6579 -0.0307
 8063TIP3    H148384   8.166   7.200  11.061 -1.9931 -2.5930 -2.6560
 8063TIP3    H248385   8.248   7.106  11.147  0.6670  1.6858 -0.1784
 8064TIP3   OH248386   6.510   2.627  10.794  0.1379 -0.0357  0.4719
 8064TIP3    H148387   6.588   2.617  10.848  0.2411  0.6574  0.4624
 8064TIP3    H248388   6.440   2.588  10.846  0.7735 -2.3093 -0.2796
 8065TIP3   OH248389   5.347   4.968  11.886  0.3007  0.3859  0.1096
 8065TIP3    H148390   5.414   5.021  11.930  0.4085  0.2192  0.1443
 8065TIP3    H248391   5.343   5.005  11.797  0.1792  0.6326  0.2145
 8066TIP3   OH248392   4.623   3.918  11.082  0.1223 -0.7923 -0.3193
 8066TIP3    H148393   4.692   3.983  11.069  0.4938 -0.8425  1.1637
 8066TIP3    H248394   4.667   3.834  11.067  0.0889 -0.7779 -0.4997
 8067TIP3   OH248395   4.339   2.151  11.237  0.5458 -0.2729  0.2370
 8067TIP3    H148396   4.419   2.203  11.247  1.6040 -2.0598  1.8174
 8067TIP3    H248397   4.351   2.105  11.154  1.0627 -0.3505  0.3492
 8068TIP3   OH248398   3.111   4.060  12.186 -0.4001  0.3110 -0.6335
 8068TIP3    H148399   3.143   4.128  12.244 -0.1493  1.4368 -2.0290
 8068TIP3    H248400   3.182   4.044  12.125  0.0295 -2.1418  0.3807
 8069TIP3   OH248401   7.195   2.984  11.384 -0.0744 -0.2722 -0.6437
 8069TIP3    H148402   7.217   2.897  11.419 -2.3916 -0.0412  1.6866
 8069TIP3    H248403   7.245   3.045  11.438 -3.7344  0.0918  2.8184
 8070TIP3   OH248404   6.658   8.164  11.216 -0.0987  0.1904  0.0045
 8070TIP3    H148405   6.595   8.195  11.281  1.3462  0.7753  1.2039
 8070TIP3    H248406   6.619   8.186  11.131 -1.6763  0.1222  0.6804
 8071TIP3   OH248407   3.909   3.482  12.330 -0.0328 -0.1932 -0.7917
 8071TIP3    H148408   3.932   3.390  12.323 -0.3727 -0.3823  0.3887
 8071TIP3    H248409   3.982   3.522  12.377 -1.3218 -0.5164  1.6384
 8072TIP3   OH248410   6.686   2.448  12.329  0.2129  0.1637  0.6332
 8072TIP3    H148411   6.596   2.428  12.303  0.4645 -0.9700  0.5890
 8072TIP3    H248412   6.697   2.404  12.413  0.9202 -0.2627  0.3315
 8073TIP3   OH248413   7.661   3.617  11.392  0.2986 -0.4462 -0.4517
 8073TIP3    H148414   7.692   3.527  11.399 -2.6013 -1.4164  2.7453
 8073TIP3    H248415   7.598   3.616  11.320  0.5759 -0.8639 -0.6879
 8074TIP3   OH248416   0.933   4.856  11.680  0.4334 -0.1241 -0.0272
 8074TIP3    H148417   0.955   4.946  11.703  0.4416 -0.2871  0.6220
 8074TIP3    H248418   0.849   4.839  11.723 -0.3962  0.0934 -1.4867
 8075TIP3   OH248419   2.160   1.249  11.379  0.2854 -0.1023 -0.1764
 8075TIP3    H148420   2.149   1.280  11.290  0.7347 -0.7873 -0.4789
 8075TIP3    H248421   2.168   1.154  11.371  2.4407 -0.0221  0.3510
 8076TIP3   OH248422   7.482   6.970  11.292 -0.4376 -0.1941 -0.4514
 8076TIP3    H148423   7.401   7.010  11.324  0.5272  1.4436  0.0015
 8076TIP3    H248424   7.505   7.021  11.214  1.7414  1.3453  1.1210
 8077TIP3   OH248425   8.288   7.500  12.129  0.1088 -0.5077 -0.5176
 8077TIP3    H148426   8.300   7.407  12.109  3.7840 -0.3865  0.4061
 8077TIP3    H248427   8.341   7.515  12.207  0.7800  2.6374 -1.4449
 8078TIP3   OH248428   5.079   7.668  11.311  0.0483 -0.5431  0.5239
 8078TIP3    H148429   5.011   7.649  11.246 -0.2282  3.4411 -0.6463
 8078TIP3    H248430   5.152   7.612  11.286 -0.6036 -0.2875 -2.3455
 8079TIP3   OH248431   7.635   6.731  11.035  0.2842  0.3246  0.5645
 8079TIP3    H148432   7.625   6.679  10.955 -0.2782 -0.5119  1.1581
 8079TIP3    H248433   7.583   6.810  11.019  1.8006  1.1092 -0.6633
 8080TIP3   OH248434   0.638   4.658  10.664 -0.1995 -0.1188  0.5224
 8080TIP3    H148435   0.578   4.639  10.592  0.4478  0.4688 -0.1979
 8080TIP3    H248436   0.651   4.753  10.661  0.2597 -0.1549  1.0671
 8081TIP3   OH248437   6.304   2.522  10.968 -0.3439  0.1282  0.1022
 8081TIP3    H148438   6.230   2.550  11.022 -2.0360 -2.0202 -0.9245
 8081TIP3    H248439   6.361   2.474  11.028 -0.2285  1.0468  0.7362
 8082TIP3   OH248440   6.367   1.834  12.110  0.3914  0.0852 -0.1066
 8082TIP3    H148441   6.338   1.790  12.030  1.1248  0.5054 -0.6099
 8082TIP3    H248442   6.461   1.847  12.099  0.3049  1.2143  0.3031
 8083TIP3   OH248443   1.011   4.309  11.706 -0.3185  0.0610  0.0875
 8083TIP3    H148444   1.084   4.253  11.681 -1.8394 -1.7065 -0.6085
 8083TIP3    H248445   0.973   4.338  11.623 -0.8218  0.3895  0.4245
 8084TIP3   OH248446   1.031   4.695  10.347  0.3331 -0.4167 -0.1894
 8084TIP3    H148447   0.967   4.662  10.410 -0.6272  0.8292 -0.4947
 8084TIP3    H248448   1.092   4.748  10.399 -3.0536  4.5903 -0.6691
 8085TIP3   OH248449   5.474   6.364  11.433 -0.0012  0.8456  0.3129
 8085TIP3    H148450   5.496   6.444  11.386 -0.2817  2.1961  2.3810
 8085TIP3    H248451   5.379   6.369  11.447  0.0171  0.2902  0.6857
 8086TIP3   OH248452   6.984   1.931  11.447 -0.2528  0.1470 -0.0870
 8086TIP3    H148453   6.929   1.927  11.525  2.6652 -0.2289  2.1082
 8086TIP3    H248454   6.990   1.840  11.418  0.4160 -0.0304  0.5909
 8087TIP3   OH248455   7.363   4.672  11.562 -0.3833  0.0048 -0.1046
 8087TIP3    H148456   7.429   4.603  11.569  0.6949  0.8536 -1.4275
 8087TIP3    H248457   7.386   4.734  11.631 -1.4068 -0.9246  1.1470
 8088TIP3   OH248458   5.263   5.769  10.658  0.3223  0.0872 -0.3084
 8088TIP3    H148459   5.261   5.821  10.738 -1.7819 -0.5644  0.1352
 8088TIP3    H248460   5.307   5.824  10.594  0.5969  1.2758  0.8634
 8089TIP3   OH248461   1.729   1.037  11.544 -0.4274  0.0605  0.3739
 8089TIP3    H148462   1.765   1.126  11.540  1.4382 -0.6510  0.3112
 8089TIP3    H248463   1.783   0.987  11.482 -1.3431 -1.1523  0.5315
 8090TIP3   OH248464   5.299   2.850  11.777 -0.3929 -0.2700 -0.1812
 8090TIP3    H148465   5.254   2.884  11.700 -0.4793 -0.0445 -0.0335
 8090TIP3    H248466   5.252   2.770  11.800 -1.0838  0.2594  0.3093
 8091TIP3   OH248467   0.548   8.090  11.210 -0.5947  0.1692 -0.2565
 8091TIP3    H148468   0.512   8.020  11.155 -2.1603  1.3517 -0.8176
 8091TIP3    H248469   0.556   8.165  11.151 -0.3275  0.8809  0.6668
 8092TIP3   OH248470   3.971   0.932  11.928 -0.3500  0.0420 -0.3298
 8092TIP3    H148471   3.892   0.951  11.878 -0.3859 -0.6459 -0.5429
 8092TIP3    H248472   3.981   1.007  11.986  0.2917  1.3844 -2.0917
 8093TIP3   OH248473   2.628   4.071  13.069  0.0526  0.3843 -0.1047
 8093TIP3    H148474   2.714   4.085  13.031 -0.2232 -0.9235 -1.3177
 8093TIP3    H248475   2.636   3.989  13.117 -0.2063  0.8862  0.8195
 8094TIP3   OH248476   7.364   6.603  10.807  0.4906  0.3231  0.1333
 8094TIP3    H148477   7.278   6.563  10.819  1.4683 -2.1450 -0.4471
 8094TIP3    H248478   7.420   6.558  10.870  1.8968 -0.1044 -1.3610
 8095TIP3   OH248479   0.698   0.361  10.657  0.3618  0.1038 -0.3679
 8095TIP3    H148480   0.705   0.456  10.650  1.4561  0.0760  0.1584
 8095TIP3    H248481   0.724   0.329  10.571 -1.3279  0.2982 -1.0036
 8096TIP3   OH248482   7.938   0.701  11.810  0.6355 -0.4332 -0.2137
 8096TIP3    H148483   8.001   0.706  11.883 -1.4616 -1.2413  1.7668
 8096TIP3    H248484   7.873   0.768  11.830 -0.2598 -1.0323 -1.0662
 8097TIP3   OH248485   4.991   4.382  11.849 -0.5038  0.3427  0.3970
 8097TIP3    H148486   5.024   4.455  11.902 -0.5566  0.0890  0.7867
 8097TIP3    H248487   5.052   4.311  11.866  0.0326  0.5370 -0.6391
 8098TIP3   OH248488   3.718   1.309  11.082 -0.5363 -0.3944 -0.4936
 8098TIP3    H148489   3.713   1.316  10.987  0.1528 -1.0779 -0.5924
 8098TIP3    H248490   3.749   1.220  11.098  0.4321  0.0658  0.3329
 8099TIP3   OH248491   3.453   3.676  11.585  0.2280 -0.2243 -0.5724
 8099TIP3    H148492   3.521   3.612  11.565  0.2414 -0.2501 -0.4468
 8099TIP3    H248493   3.450   3.733  11.508  0.9655  0.2827 -0.2338
 8100TIP3   OH248494   0.240   3.851  10.767  0.6073 -0.5287  0.1271
 8100TIP3    H148495   0.324   3.889  10.792 -1.0566  1.4462  3.4091
 8100TIP3    H248496   0.211   3.902  10.692  1.0610  0.7377  0.7951
 8101TIP3   OH248497   7.576   1.811  12.533 -0.1397  0.0132 -0.4124
 8101TIP3    H148498   7.549   1.753  12.605  0.0843  1.7098  1.1201
 8101TIP3    H248499   7.659   1.774  12.503 -0.0238 -0.5106  0.5030
 8102TIP3   OH248500   7.426   3.246  10.703 -0.3069  0.3672  0.2043
 8102TIP3    H148501   7.453   3.171  10.650 -0.5959  0.0285  0.5256
 8102TIP3    H248502   7.414   3.209  10.791 -0.6709  0.7453  0.3137
 8103TIP3   OH248503   6.240   2.994  12.464 -0.9484 -0.4625  0.1480
 8103TIP3    H148504   6.194   3.064  12.509  0.3047  0.5682 -0.1174
 8103TIP3    H248505   6.262   2.931  12.533 -3.1297 -1.2299  0.2012
 8104TIP3   OH248506   5.713   4.120  11.104  0.2843 -0.0903  0.1550
 8104TIP3    H148507   5.764   4.042  11.126  0.6300  0.2005  0.3730
 8104TIP3    H248508   5.746   4.146  11.018  0.2623 -0.1007  0.1436
 8105TIP3   OH248509   0.498   3.442  11.840 -0.1956  0.1838  0.1083
 8105TIP3    H148510   0.428   3.443  11.774 -0.2887 -0.4554  0.1959
 8105TIP3    H248511   0.563   3.381  11.805  1.1490  2.0092 -0.7992
 8106TIP3   OH248512   0.334   2.190  11.318 -0.3030 -1.2085 -0.2142
 8106TIP3    H148513   0.368   2.106  11.346  1.4270 -0.3039  0.5140
 8106TIP3    H248514   0.315   2.178  11.224  1.3902 -1.9625 -0.4919
 8107TIP3   OH248515   0.251   2.874  12.068  0.2249  0.3514  0.4193
 8107TIP3    H148516   0.191   2.944  12.092  0.1457  0.8763 -1.1608
 8107TIP3    H248517   0.336   2.917  12.060  0.1387  0.3534 -0.7591
 8108TIP3   OH248518   4.980   3.352  12.462  0.0190 -0.1416  0.3020
 8108TIP3    H148519   5.049   3.349  12.529  0.6564  0.3051 -0.3268
 8108TIP3    H248520   4.916   3.414  12.496  0.9652  1.0688 -0.0847
 8109TIP3   OH248521   7.773   5.031  10.557 -0.0652 -0.2533 -0.2806
 8109TIP3    H148522   7.802   5.051  10.468 -0.6240  0.4473 -0.3092
 8109TIP3    H248523   7.705   5.095  10.575  0.0096 -0.4235  0.6387
 8110TIP3   OH248524   0.584   1.680  11.546 -0.4807 -0.2852 -0.2927
 8110TIP3    H148525   0.610   1.690  11.454 -1.5025 -2.9979 -0.9838
 8110TIP3    H248526   0.664   1.692  11.596  0.3918 -0.2397 -1.6674
 8111TIP3   OH248527   4.302   2.813  12.261 -0.3554  0.1000 -0.5321
 8111TIP3    H148528   4.331   2.797  12.351  0.2147 -0.6800 -0.8433
 8111TIP3    H248529   4.224   2.760  12.250 -1.6037  1.7349  0.1145
 8112TIP3   OH248530   4.640   3.601  11.655 -0.7452 -0.6026 -0.1061
 8112TIP3    H148531   4.688   3.682  11.674 -2.2000  0.4065 -0.5138
 8112TIP3    H248532   4.624   3.562  11.741  2.1203 -1.8403 -0.0195
 8113TIP3   OH248533   8.316   7.530  11.809 -0.7654 -0.1128 -0.4609
 8113TIP3    H148534   8.351   7.512  11.896 -0.4601 -0.6097 -0.6889
 8113TIP3    H248535   8.239   7.585  11.826 -3.2482 -3.5265  0.4559
 8114TIP3   OH248536   0.721   6.783  11.906  0.3092 -0.3329 -0.5187
 8114TIP3    H148537   0.631   6.803  11.932 -0.4187 -2.6247 -1.0512
 8114TIP3    H248538   0.758   6.868  11.883 -1.4847  0.7696  0.3794
 8115TIP3   OH248539   6.534   8.230  10.999  0.2630  0.3790  0.1577
 8115TIP3    H148540   6.451   8.188  10.974  0.0147 -0.3984  2.1219
 8115TIP3    H248541   6.509   8.317  11.030  0.0713 -0.0665  1.3075
 8116TIP3   OH248542   8.293   2.259  10.918 -0.1286 -0.5247  0.1757
 8116TIP3    H148543   8.348   2.245  10.995 -1.0792 -0.2336  0.9353
 8116TIP3    H248544   8.203   2.251  10.951 -0.7050  2.8145 -0.1793
 8117TIP3   OH248545   1.168   6.710  11.592  0.0354 -0.2177 -0.1226
 8117TIP3    H148546   1.145   6.642  11.529  0.6081 -1.8911  1.3876
 8117TIP3    H248547   1.250   6.747  11.559  0.2559 -0.9659 -0.4402
 8118TIP3   OH248548   7.469   7.858  11.916  0.2380  0.0761  0.0455
 8118TIP3    H148549   7.522   7.785  11.949 -0.3911 -0.5915 -0.4022
 8118TIP3    H248550   7.381   7.842  11.951 -0.3571 -0.4487 -1.6246
 8119TIP3   OH248551   4.736   7.201  11.052 -0.4786 -0.3765 -0.1014
 8119TIP3    H148552   4.749   7.111  11.020 -0.5303 -0.7801  0.9905
 8119TIP3    H248553   4.666   7.194  11.117 -1.3892  0.6751 -0.9152
 8120TIP3   OH248554   5.660   7.111  12.191  0.4381 -0.0277  0.1104
 8120TIP3    H148555   5.589   7.095  12.254 -1.1715  0.2791 -1.5304
 8120TIP3    H248556   5.739   7.111  12.244 -0.8920  1.0224  2.2614
 8121TIP3   OH248557   4.395   6.680  11.868  0.4059 -0.1157 -0.3885
 8121TIP3    H148558   4.475   6.695  11.919  1.5039  0.1296 -2.1002
 8121TIP3    H248559   4.420   6.613  11.805 -0.7646 -0.0459 -0.9388
 8122TIP3   OH248560   6.840   1.062  17.654  0.0028 -0.1040  0.0111
 8122TIP3    H148561   6.855   1.126  17.724  2.3604  0.1340 -0.6236
 8122TIP3    H248562   6.790   0.992  17.696  0.6316  0.4171  1.7269
 8123TIP3   OH248563   3.975   7.961  11.307  0.5293 -0.4692 -0.1401
 8123TIP3    H148564   3.968   8.053  11.281 -0.6709 -0.1907  1.0262
 8123TIP3    H248565   3.887   7.938  11.338  0.8093 -2.0156 -0.4053
 8124TIP3   OH248566   0.101   0.529  11.289 -0.2262 -0.3443 -0.3009
 8124TIP3    H148567   0.068   0.591  11.354  0.2549 -0.1124 -0.2695
 8124TIP3    H248568   0.192   0.514  11.315  0.7278  1.5659 -2.2222
 8125TIP3   OH248569   5.945   6.504  11.221  0.4431 -0.0093 -0.1635
 8125TIP3    H148570   5.911   6.473  11.137 -1.7008 -2.0289  1.3180
 8125TIP3    H248571   6.007   6.437  11.248  0.1392 -0.0435  0.4527
 8126TIP3   OH248572   6.348   1.235  11.877 -0.0396  0.1740 -0.0209
 8126TIP3    H148573   6.383   1.323  11.878 -0.5588  0.4086 -0.9608
 8126TIP3    H248574   6.378   1.196  11.959  1.7155  0.6176 -0.4059
 8127TIP3   OH248575   3.590   7.547  10.711  0.0581 -0.5576 -0.3214
 8127TIP3    H148576   3.536   7.612  10.756  1.0332  0.3650 -0.4603
 8127TIP3    H248577   3.535   7.515  10.640 -0.2772  0.4293 -0.5139
 8128TIP3   OH248578   0.632   0.998  10.689 -0.4847 -0.1420 -0.6733
 8128TIP3    H148579   0.582   1.063  10.739  1.3692 -0.1936  1.3651
 8128TIP3    H248580   0.568   0.930  10.668 -1.9380  1.2156 -0.8357
 8129TIP3   OH248581   0.423   1.955  11.377 -0.4090  0.0750 -0.2043
 8129TIP3    H148582   0.382   1.872  11.405 -1.2015  0.3779 -0.4228
 8129TIP3    H248583   0.472   1.932  11.298  1.1330 -0.6092  0.9058
 8130TIP3   OH248584   6.980   5.099  10.839 -0.0529  0.1534  0.3023
 8130TIP3    H148585   7.073   5.119  10.841 -0.3771  1.7915  0.3139
 8130TIP3    H248586   6.976   5.005  10.822  1.5954 -0.0753  1.0006
 8131TIP3   OH248587   5.384   4.257  10.873  0.7162  0.8032 -0.1544
 8131TIP3    H148588   5.292   4.280  10.885  1.1285  1.9878  0.9554
 8131TIP3    H248589   5.409   4.299  10.790  0.1993  0.2473 -0.5969
 8132TIP3   OH248590   5.823   4.828  11.067  0.0239  0.5493 -0.4256
 8132TIP3    H148591   5.815   4.885  10.990 -0.2660 -0.0887 -0.8834
 8132TIP3    H248592   5.734   4.799  11.084  0.2562 -0.3442 -0.6611
 8133TIP3   OH248593   0.389   2.017  12.292  0.7517  0.1846  0.0630
 8133TIP3    H148594   0.420   2.086  12.351 -0.2248  1.8605 -1.3129
 8133TIP3    H248595   0.296   2.037  12.278  0.6664 -0.9052 -1.0645
 8134TIP3   OH248596   2.803   0.134  16.246  0.6804 -0.8070 -0.3306
 8134TIP3    H148597   2.740   0.098  16.308  0.8876 -1.8875 -0.7301
 8134TIP3    H248598   2.756   0.141  16.164  0.3353  0.8553 -0.0253
 8135TIP3   OH248599   4.092   3.618  11.553 -0.5226  0.0927  0.0588
 8135TIP3    H148600   4.012   3.637  11.505 -0.4555  0.9641  0.2884
 8135TIP3    H248601   4.111   3.526  11.532  0.0010  0.6672 -2.3316
 8136TIP3   OH248602   3.951   6.008  10.895 -0.1920 -0.1157 -0.2668
 8136TIP3    H148603   4.013   6.058  10.843  2.3681 -2.0066  0.7303
 8136TIP3    H248604   3.900   6.074  10.942  0.9462  1.5513 -1.2710
 8137TIP3   OH248605   4.860   6.436  11.901  0.1703  0.6372 -0.8837
 8137TIP3    H148606   4.953   6.422  11.885  0.6218  1.5327  0.6918
 8137TIP3    H248607   4.856   6.471  11.990 -1.7875 -0.6810 -0.3694
 8138TIP3   OH248608   0.894   1.573  12.676  0.0970 -0.1835 -0.3247
 8138TIP3    H148609   0.834   1.502  12.698 -1.0645  0.7801 -0.2987
 8138TIP3    H248610   0.872   1.643  12.736  0.3399  0.6717 -1.2158
 8139TIP3   OH248611   4.222   1.472  12.688 -0.2667  0.2243  0.4376
 8139TIP3    H148612   4.283   1.534  12.647  0.1508 -0.9243 -0.7610
 8139TIP3    H248613   4.224   1.495  12.781  2.5696 -0.1914  0.5841
 8140TIP3   OH248614   6.668   4.743  10.862 -0.5780  0.7286  0.5208
 8140TIP3    H148615   6.608   4.759  10.788  0.4172  1.3052 -0.1793
 8140TIP3    H248616   6.664   4.648  10.875  1.3944  0.1504 -2.2171
 8141TIP3   OH248617   1.307   0.851  11.434  0.1132  0.0816 -0.7491
 8141TIP3    H148618   1.311   0.781  11.499 -2.6974 -0.5761 -1.1334
 8141TIP3    H248619   1.300   0.805  11.350  0.4695  0.8719 -1.2234
 8142TIP3   OH248620   4.659   6.499  11.140 -0.2681  0.1658 -0.3298
 8142TIP3    H148621   4.585   6.448  11.171 -0.0706  0.4620  0.6751
 8142TIP3    H248622   4.620   6.570  11.088 -0.6474 -0.0303 -0.3109
 8143TIP3   OH248623   4.420   5.635  10.840 -0.1834  0.2833 -0.1897
 8143TIP3    H148624   4.508   5.665  10.818 -0.2837  0.4074 -0.4297
 8143TIP3    H248625   4.379   5.619  10.755  0.3533 -1.9916 -0.0939
 8144TIP3   OH248626   6.093   1.068  11.589  0.1223  0.1074  0.1435
 8144TIP3    H148627   6.123   1.024  11.668 -0.4532  0.9422  0.8367
 8144TIP3    H248628   6.017   1.016  11.560 -1.3828  1.3186  1.6947
 8145TIP3   OH248629   6.063   0.695  11.281  0.0248  0.9547  0.6193
 8145TIP3    H148630   6.153   0.713  11.254  0.1191 -0.9437 -0.4747
 8145TIP3    H248631   6.015   0.681  11.199 -0.4947 -1.3683  1.2446
 8146TIP3   OH248632   1.758   2.854  10.581 -0.0657  0.4564 -0.2528
 8146TIP3    H148633   1.689   2.878  10.643  0.1082  0.6558 -0.1323
 8146TIP3    H248634   1.807   2.936  10.568  1.6740 -0.1839  1.5783
 8147TIP3   OH248635   4.558   6.219  12.458  0.1473 -0.4129  0.0309
 8147TIP3    H148636   4.557   6.133  12.500 -0.3695  0.0179  0.9371
 8147TIP3    H248637   4.465   6.244  12.452  0.3390  0.6241  0.9646
 8148TIP3   OH248638   8.339   3.592  11.689  0.2124  0.2159  0.4328
 8148TIP3    H148639   8.253   3.560  11.663 -0.1177 -0.1360  1.8339
 8148TIP3    H248640   8.370   3.644  11.615 -1.5863  1.0484  0.2247
 8149TIP3   OH248641   3.757   5.081  12.193  0.5310  0.2634  0.2276
 8149TIP3    H148642   3.729   5.067  12.284 -0.8618 -2.5650 -0.5420
 8149TIP3    H248643   3.819   5.011  12.175  0.5672  0.6027 -1.1010
 8150TIP3   OH248644   2.145   3.854  11.634  0.1502 -0.0045 -0.5898
 8150TIP3    H148645   2.171   3.920  11.699 -1.1738  0.1576 -0.2017
 8150TIP3    H248646   2.070   3.893  11.589  0.2567 -0.6538 -1.3471
 8151TIP3   OH248647   2.352   1.618  11.800 -0.2882  0.1686  0.0438
 8151TIP3    H148648   2.414   1.615  11.727 -0.5924  2.6960 -0.4331
 8151TIP3    H248649   2.288   1.684  11.774 -1.6551 -0.4440  1.6831
 8152TIP3   OH248650   6.215   5.616  11.061  0.1737 -0.2409 -0.0002
 8152TIP3    H148651   6.195   5.553  10.992 -1.2587 -0.3789  0.4882
 8152TIP3    H248652   6.310   5.618  11.065  0.4080 -4.1397  1.4957
 8153TIP3   OH248653   6.492   4.446  10.734 -0.8157  0.3592 -0.1077
 8153TIP3    H148654   6.426   4.455  10.803 -0.6605  1.3011 -0.0753
 8153TIP3    H248655   6.575   4.442  10.781 -0.6228  2.0078 -0.2650
 8154TIP3   OH248656   0.292   2.840  10.695 -0.6420  0.0881 -0.5076
 8154TIP3    H148657   0.237   2.865  10.621 -0.6835 -1.8783 -1.2103
 8154TIP3    H248658   0.232   2.838  10.769 -0.9872  0.3274 -0.7773
 8155TIP3   OH248659   4.081   0.306  12.001 -0.0613  0.0743 -0.1748
 8155TIP3    H148660   4.016   0.374  11.979 -1.2611 -1.4856 -1.7941
 8155TIP3    H248661   4.033   0.224  11.990  1.6487 -1.0794  0.6680
 8156TIP3   OH248662   6.156   8.401  12.727 -0.2056  0.1549  0.7232
 8156TIP3    H148663   6.075   8.359  12.697 -0.2302  0.1090  0.8516
 8156TIP3    H248664   6.134   8.494  12.733 -0.7716 -0.0547  2.4059
 8157TIP3   OH248665   6.528   3.940  10.763  0.0621 -0.5840 -0.1749
 8157TIP3    H148666   6.521   3.848  10.737 -0.1512 -1.3363  2.3184
 8157TIP3    H248667   6.616   3.948  10.800  0.0854  0.2163 -0.3998
 8158TIP3   OH248668   5.327   7.677  10.766  0.0297  0.3607 -0.2490
 8158TIP3    H148669   5.261   7.617  10.732 -0.0005  0.0248  0.3936
 8158TIP3    H248670   5.291   7.708  10.849  0.7537  0.0584  0.1836
 8159TIP3   OH248671   1.581   3.644  11.447  0.2796 -0.0075 -0.1804
 8159TIP3    H148672   1.669   3.616  11.421  0.6219  0.6428  0.2393
 8159TIP3    H248673   1.585   3.651  11.542 -0.4039 -0.5312 -0.1069
 8160TIP3   OH248674   2.032   0.915  11.613 -0.5293 -0.5786 -0.1884
 8160TIP3    H148675   2.104   0.977  11.618  0.2472 -1.3455 -1.5549
 8160TIP3    H248676   2.036   0.879  11.525  0.1546 -3.8704  1.0564
 8161TIP3   OH248677   4.244   6.880  11.949  0.2590 -0.3829 -0.1466
 8161TIP3    H148678   4.307   6.842  11.888  0.7757  0.0707  0.0882
 8161TIP3    H248679   4.265   6.839  12.033  0.1682 -0.3108 -0.0884
 8162TIP3   OH248680   6.160   6.296  11.155 -0.0839  0.1519  0.6534
 8162TIP3    H148681   6.128   6.285  11.065  0.7137 -0.1392  0.3956
 8162TIP3    H248682   6.241   6.347  11.145  0.4647 -0.6126  1.1230
 8163TIP3   OH248683   3.176   5.895  11.104  0.2967  0.2831  0.5690
 8163TIP3    H148684   3.093   5.853  11.083  1.2797 -0.9012 -1.2333
 8163TIP3    H248685   3.175   5.905  11.199 -1.9450  0.4455  0.5677
 8164TIP3   OH248686   2.536   2.168  12.022  0.2910  0.2561 -0.3080
 8164TIP3    H148687   2.600   2.146  11.955  0.0048  0.9730 -0.8325
 8164TIP3    H248688   2.482   2.090  12.031 -0.3162  0.4929 -1.6771
 8165TIP3   OH248689   5.065   0.276  12.837  0.2112  0.2141  0.5887
 8165TIP3    H148690   5.011   0.343  12.796 -0.3192 -1.5973 -1.8811
 8165TIP3    H248691   5.146   0.275  12.786 -0.9332 -2.9213 -1.4903
 8166TIP3   OH248692   5.366   1.722  11.868 -0.0296 -0.0901  0.4389
 8166TIP3    H148693   5.291   1.669  11.896 -0.4571  0.1120 -0.3019
 8166TIP3    H248694   5.416   1.664  11.811  1.6564 -1.0158  2.7171
 8167TIP3   OH248695   8.427   3.633  12.907 -0.0868  0.2618  0.2624
 8167TIP3    H148696   8.519   3.654  12.926  0.8754 -2.3208 -1.1012
 8167TIP3    H248697   8.422   3.538  12.916 -2.2269  0.1574 -1.3200
 8168TIP3   OH248698   6.947   2.416  12.185 -0.3003 -0.3219 -0.1533
 8168TIP3    H148699   6.853   2.425  12.200 -0.1722  1.1375 -0.0846
 8168TIP3    H248700   6.960   2.449  12.096  0.4166  1.7204  0.6463
 8169TIP3   OH248701   7.870   5.242  11.331 -0.0268  0.1129  0.1358
 8169TIP3    H148702   7.808   5.271  11.265 -0.2318 -0.8610 -0.1175
 8169TIP3    H248703   7.816   5.201  11.399  0.3583 -1.6075 -0.5330
 8170TIP3   OH248704   1.529   2.896  11.587  0.3852  0.1168 -0.3276
 8170TIP3    H148705   1.494   2.809  11.605 -0.2999  0.4491 -0.0285
 8170TIP3    H248706   1.606   2.880  11.533 -0.0604 -0.6477 -0.7499
 8171TIP3   OH248707   4.965   5.015  13.004  0.1848 -0.1208 -0.4169
 8171TIP3    H148708   5.045   4.991  12.957 -0.8150 -0.7054 -1.8932
 8171TIP3    H248709   4.909   5.055  12.937  0.3069  2.9475  1.1649
 8172TIP3   OH248710   1.405   7.257  12.830 -0.1115 -1.0682 -0.8138
 8172TIP3    H148711   1.312   7.275  12.815 -0.0175 -0.0798 -0.2572
 8172TIP3    H248712   1.445   7.343  12.840  0.5877 -1.5262  0.5588
 8173TIP3   OH248713   7.297   1.151  10.892 -0.0552 -0.7615 -0.0759
 8173TIP3    H148714   7.271   1.093  10.964  0.3626 -0.0609  0.6539
 8173TIP3    H248715   7.335   1.227  10.935 -2.1784  0.8788 -0.9171
 8174TIP3   OH248716   7.355   4.795  11.892 -0.0822 -0.4161 -0.3171
 8174TIP3    H148717   7.343   4.704  11.919  0.1458 -0.2875  0.2367
 8174TIP3    H248718   7.274   4.817  11.847 -0.4925 -0.6370  0.2920
 8175TIP3   OH248719   6.706   6.825  11.348 -1.0550 -0.3092  0.1257
 8175TIP3    H148720   6.747   6.904  11.315 -2.5263  0.1528 -0.6684
 8175TIP3    H248721   6.733   6.756  11.288  1.2996 -0.7365  1.5531
 8176TIP3   OH248722   7.613   4.482  12.278  0.1898  0.5130  0.1042
 8176TIP3    H148723   7.623   4.458  12.370  0.2295  1.7971  0.4466
 8176TIP3    H248724   7.680   4.549  12.262 -1.2609  1.9407 -0.2379
 8177TIP3   OH248725   8.243   4.313  11.489 -0.4325  0.1192 -0.0821
 8177TIP3    H148726   8.191   4.301  11.409 -2.9979  2.1956  1.1063
 8177TIP3    H248727   8.258   4.225  11.522 -0.5127 -0.7012 -2.0936
 8178TIP3   OH248728   4.699   1.670  11.587  0.1738  1.2325  0.4516
 8178TIP3    H148729   4.657   1.736  11.532  0.5813  0.7007 -0.5205
 8178TIP3    H248730   4.626   1.625  11.630 -0.0781  3.3112  2.3965
 8179TIP3   OH248731   2.756   0.585  10.789  0.1987 -0.0458 -0.2380
 8179TIP3    H148732   2.668   0.612  10.762  0.6048 -0.2976 -1.9460
 8179TIP3    H248733   2.745   0.496  10.823 -0.0481 -0.5905 -1.6689
 8180TIP3   OH248734   7.164   2.080  10.833 -0.0580 -0.0587  0.0966
 8180TIP3    H148735   7.104   2.139  10.879  0.7255  1.1322 -0.3704
 8180TIP3    H248736   7.230   2.057  10.898  0.5191  0.8616 -0.1562
 8181TIP3   OH248737   0.332   8.272  11.336  0.5537 -0.8041 -0.0095
 8181TIP3    H148738   0.404   8.259  11.275  0.5902 -0.0711 -0.1230
 8181TIP3    H248739   0.278   8.340  11.296  0.3791 -0.5767  0.6014
 8182TIP3   OH248740   3.884   2.276  12.799  0.5853  0.2564  0.4059
 8182TIP3    H148741   3.799   2.258  12.839  0.0286  1.5921 -0.1317
 8182TIP3    H248742   3.880   2.368  12.774  2.3827  0.4802  0.8136
 8183TIP3   OH248743   7.500   5.376  12.139  0.2927  0.0988 -0.1806
 8183TIP3    H148744   7.425   5.347  12.192  0.4757  1.6372  1.0037
 8183TIP3    H248745   7.569   5.313  12.157 -0.9709 -2.0055 -2.1459
 8184TIP3   OH248746   3.585   4.997  11.684 -0.1194  0.1087  0.4248
 8184TIP3    H148747   3.505   5.015  11.733 -0.0893  0.7756  0.2350
 8184TIP3    H248748   3.644   4.957  11.748 -1.1508 -1.9236  0.1980
 8185TIP3   OH248749   4.587   3.657  12.173  0.0657 -0.4851 -0.8287
 8185TIP3    H148750   4.661   3.663  12.112  0.3425  1.0372 -0.3815
 8185TIP3    H248751   4.618   3.700  12.253 -1.0221 -0.5486 -0.3545
 8186TIP3   OH248752   2.834   3.655  10.700 -0.2146 -0.1187  0.0805
 8186TIP3    H148753   2.775   3.701  10.640  1.1273  0.4817 -0.8331
 8186TIP3    H248754   2.812   3.691  10.787 -0.2334  1.1612 -0.4264
 8187TIP3   OH248755   4.574   8.340  11.119 -0.0273 -0.0411  0.2686
 8187TIP3    H148756   4.619   8.422  11.103 -0.5489 -0.0489 -1.4089
 8187TIP3    H248757   4.482   8.359  11.103 -0.4502 -0.4321  2.0161
 8188TIP3   OH248758   5.482   3.110  10.316 -0.5035 -0.3145  0.4025
 8188TIP3    H148759   5.574   3.130  10.337 -0.3552  0.3268 -0.7323
 8188TIP3    H248760   5.435   3.191  10.337 -0.9277 -0.8480  1.5721
 8189TIP3   OH248761   7.595   2.049  10.592 -0.1639 -0.1349  0.4073
 8189TIP3    H148762   7.624   2.063  10.502  0.0427  0.9334  0.6212
 8189TIP3    H248763   7.559   2.134  10.619 -0.2723 -0.4567  1.3054
 8190TIP3   OH248764   6.173   6.825  12.456  0.8083  0.4425 -0.3297
 8190TIP3    H148765   6.154   6.872  12.537  1.3700  0.5067 -0.2325
 8190TIP3    H248766   6.181   6.733  12.482 -1.5829  0.0511 -0.7101
 8191TIP3   OH248767   0.518   5.113  12.020 -0.4929 -0.3586 -0.2846
 8191TIP3    H148768   0.521   5.087  12.112  2.2770  0.3762 -0.0744
 8191TIP3    H248769   0.434   5.158  12.011 -0.0687  1.2158  2.4126
 8192TIP3   OH248770   7.733   7.612  10.814  0.6696  0.1418 -0.1967
 8192TIP3    H148771   7.715   7.692  10.764 -0.0954  1.4825  2.0882
 8192TIP3    H248772   7.651   7.562  10.810  0.9952 -0.3478 -1.2228
 8193TIP3   OH248773   2.742   1.013  12.408 -0.0109 -0.1720  0.1165
 8193TIP3    H148774   2.675   1.027  12.475  0.2806  0.7809  0.2314
 8193TIP3    H248775   2.693   1.014  12.326 -0.6803 -3.4327  0.3466
 8194TIP3   OH248776   2.900   1.593  12.144 -0.0971  0.0349 -0.2090
 8194TIP3    H148777   2.854   1.516  12.112 -0.2597  0.2730 -0.5590
 8194TIP3    H248778   2.965   1.612  12.076  1.5248 -1.1581  0.9407
 8195TIP3   OH248779   1.951   6.988  11.120  0.1614 -0.7526 -0.0708
 8195TIP3    H148780   1.929   6.906  11.076  0.9926 -1.2869  0.4742
 8195TIP3    H248781   1.868   7.036  11.125 -0.5066 -1.9194  0.3262
 8196TIP3   OH248782   5.259   3.816  10.481 -0.0601  0.0156 -0.2063
 8196TIP3    H148783   5.200   3.852  10.547  0.1541 -1.6399  0.9370
 8196TIP3    H248784   5.203   3.764  10.424 -0.1740  1.0881 -1.1223
 8197TIP3   OH248785   6.432   6.306  12.848 -0.1563  0.4505  0.2618
 8197TIP3    H148786   6.399   6.247  12.916  1.0422  2.6056  2.9078
 8197TIP3    H248787   6.527   6.300  12.857 -0.0076  2.2006  0.1192
 8198TIP3   OH248788   0.071   3.947  11.692  0.2782 -0.3655 -0.7091
 8198TIP3    H148789   0.055   4.041  11.685  1.4111 -0.0905  0.2219
 8198TIP3    H248790   0.091   3.919  11.602 -0.4129  0.1960 -1.0471
 8199TIP3   OH248791   6.018   5.233  11.125  0.0865 -0.1784 -0.1302
 8199TIP3    H148792   5.974   5.236  11.210  0.8013  0.1551  0.2325
 8199TIP3    H248793   5.946   5.235  11.061 -0.4173  1.7843  0.4191
 8200TIP3   OH248794   0.935   2.330  11.369 -1.1540  0.3356  0.0145
 8200TIP3    H148795   0.888   2.408  11.339 -3.0862 -0.9569 -0.5073
 8200TIP3    H248796   0.871   2.259  11.362 -0.3103 -0.8721  2.9402
 8201TIP3   OH248797   2.852   7.573  13.001 -0.0575 -0.4129 -0.3254
 8201TIP3    H148798   2.800   7.641  13.043 -1.2114  0.1945 -2.5954
 8201TIP3    H248799   2.795   7.496  13.001 -0.6511  0.0003 -2.0118
 8202TIP3   OH248800   6.790   6.142  12.508  0.2872  0.5404 -1.0605
 8202TIP3    H148801   6.832   6.061  12.479  1.1507  0.6921 -0.2607
 8202TIP3    H248802   6.842   6.211  12.468 -0.0474  0.7175 -1.1981
 8203TIP3   OH248803   2.202   2.178  11.581  0.1980  0.0840  0.7664
 8203TIP3    H148804   2.207   2.273  11.593 -1.7481  0.1067  1.9584
 8203TIP3    H248805   2.251   2.142  11.654  1.4140  0.1376  0.0029
 8204TIP3   OH248806   6.970   4.891  11.145  0.2218  0.2885  0.0818
 8204TIP3    H148807   6.938   4.974  11.110  0.9718  0.4614 -0.2388
 8204TIP3    H248808   7.010   4.914  11.229  2.4479  0.6913 -0.9986
 8205TIP3   OH248809   4.361   7.867  11.079 -0.2659 -0.3432  0.4802
 8205TIP3    H148810   4.423   7.938  11.095 -1.2688  0.7584 -0.3353
 8205TIP3    H248811   4.309   7.862  11.160 -0.2823 -0.0530  0.4890
 8206TIP3   OH248812   1.078   0.187  11.002 -0.0266 -0.2603 -0.4939
 8206TIP3    H148813   1.015   0.242  10.956  0.4288  0.0180 -0.8002
 8206TIP3    H248814   1.159   0.238  11.000  0.0381 -0.3150  0.4857
 8207TIP3   OH248815   6.229   1.913  12.686  0.0892 -0.3288 -0.7975
 8207TIP3    H148816   6.162   1.947  12.626  0.5176  0.0044 -1.0980
 8207TIP3    H248817   6.264   1.991  12.729 -0.1936 -0.5641 -0.1261
 8208TIP3   OH248818   6.983   0.572  11.142  0.1631  0.0101 -0.0581
 8208TIP3    H148819   6.911   0.631  11.162 -0.1581  0.6228 -2.6314
 8208TIP3    H248820   6.968   0.545  11.051  0.6349 -3.6083  0.7770
 8209TIP3   OH248821   2.798   6.119  10.620  0.4647  0.0203  0.3687
 8209TIP3    H148822   2.736   6.192  10.617  1.8517  1.1903 -2.2423
 8209TIP3    H248823   2.861   6.144  10.688 -0.7323 -0.2393  1.6225
 8210TIP3   OH248824   4.306   0.995  11.245 -0.6643  0.0078 -0.1450
 8210TIP3    H148825   4.252   1.040  11.181 -0.9259  0.3800  0.3290
 8210TIP3    H248826   4.246   0.972  11.316 -0.4860 -0.8644 -0.2638
 8211TIP3   OH248827   4.882   5.894  12.527  0.0827 -0.1910 -0.3165
 8211TIP3    H148828   4.974   5.922  12.529 -0.8159  3.1379  1.0579
 8211TIP3    H248829   4.870   5.847  12.609  0.5319 -0.5958 -0.4789
 8212TIP3   OH248830   7.482   3.550  13.285 -0.4859 -0.7269  0.2134
 8212TIP3    H148831   7.479   3.472  13.229  1.9504 -0.6531 -0.1359
 8212TIP3    H248832   7.550   3.531  13.350  0.7784  1.3429 -0.3797
 8213TIP3   OH248833   0.174   5.389  12.618 -0.4278 -0.5921 -0.1891
 8213TIP3    H148834   0.143   5.476  12.592 -0.4537 -0.6973 -0.5137
 8213TIP3    H248835   0.113   5.328  12.576  0.2892 -0.8073 -0.9645
 8214TIP3   OH248836   1.695   7.453  11.786 -0.2040  0.2859  0.4119
 8214TIP3    H148837   1.745   7.504  11.850  1.6440  2.5082 -2.5275
 8214TIP3    H248838   1.752   7.381  11.761 -1.1714 -0.9440  1.6277
 8215TIP3   OH248839   6.795   4.492  12.340 -0.2843  0.0504  0.2332
 8215TIP3    H148840   6.757   4.426  12.282  1.2739  1.5164 -2.7325
 8215TIP3    H248841   6.768   4.575  12.301  0.7776  1.1210  1.7059
 8216TIP3   OH248842   3.446   0.527  11.746 -0.2935  0.4824 -0.4932
 8216TIP3    H148843   3.397   0.560  11.671 -2.1700  2.6039  1.4940
 8216TIP3    H248844   3.397   0.449  11.774 -1.4203  1.4182  0.2538
 8217TIP3   OH248845   7.419   6.856  10.708 -0.8536 -0.2769 -0.2607
 8217TIP3    H148846   7.458   6.854  10.621  1.7937  0.5553  0.8103
 8217TIP3    H248847   7.406   6.764  10.730  1.0339 -0.6486 -0.5150
 8218TIP3   OH248848   5.072   3.275  11.191  0.2452 -0.2750  0.2390
 8218TIP3    H148849   5.133   3.280  11.118  0.8392  0.3496  0.7585
 8218TIP3    H248850   5.121   3.230  11.260  0.0669  0.0886  0.6071
 8219TIP3   OH248851   1.127   7.849  10.683 -0.3984  0.4117  0.3055
 8219TIP3    H148852   1.085   7.866  10.768 -1.4181 -0.1219 -0.0697
 8219TIP3    H248853   1.071   7.893  10.619  0.7915  1.4691 -0.0366
 8220TIP3   OH248854   4.738   8.043  11.594 -0.9059  0.1654 -0.0726
 8220TIP3    H148855   4.734   8.139  11.602 -0.5128  0.0991  1.2770
 8220TIP3    H248856   4.682   8.011  11.665  1.5370 -0.5791  1.6759
 8221TIP3   OH248857   7.892   0.434  12.274  0.0990 -0.2866  0.2319
 8221TIP3    H148858   7.936   0.352  12.250 -0.6184 -0.0251 -2.1592
 8221TIP3    H248859   7.814   0.436  12.220  1.2640  3.0797 -1.6074
 8222TIP3   OH248860   8.319   6.215  11.401  0.3531  0.0595 -0.0888
 8222TIP3    H148861   8.405   6.207  11.361  1.0384 -0.6604  1.4524
 8222TIP3    H248862   8.337   6.227  11.494 -1.2053  0.3915  0.1938
 8223TIP3   OH248863   8.170   7.699  10.545 -0.6728  0.0785  0.3292
 8223TIP3    H148864   8.082   7.690  10.509 -1.4206 -0.6741  2.2149
 8223TIP3    H248865   8.216   7.620  10.515 -0.7624  0.2645 -0.3090
 8224TIP3   OH248866   7.898   1.662  10.375 -0.2253  0.6901 -0.0811
 8224TIP3    H148867   7.815   1.635  10.336  0.2072 -1.9969  0.6398
 8224TIP3    H248868   7.873   1.721  10.446 -1.5376 -0.0053  0.0697
 8225TIP3   OH248869   1.917   6.401  11.206 -0.0675  0.7698  0.1166
 8225TIP3    H148870   1.870   6.456  11.143 -1.6679  0.6066  1.1097
 8225TIP3    H248871   1.848   6.358  11.256  1.1528  0.5917  1.7179
 8226TIP3   OH248872   3.467   1.492  10.625  0.4447 -0.0265  0.3803
 8226TIP3    H148873   3.394   1.457  10.675  1.6915 -0.8399  1.7013
 8226TIP3    H248874   3.473   1.435  10.548  0.5456 -0.8240  0.9725
 8227TIP3   OH248875   2.560   3.747  11.835  0.0662 -0.4668 -0.4824
 8227TIP3    H148876   2.575   3.803  11.759  1.9982  3.0747  2.1961
 8227TIP3    H248877   2.640   3.696  11.844  0.0358 -0.5209 -0.5148
 8228TIP3   OH248878   3.408   5.185  12.156  0.0751  0.1301 -0.6766
 8228TIP3    H148879   3.353   5.138  12.219 -0.8430  0.8083 -0.9595
 8228TIP3    H248880   3.424   5.121  12.086  0.7942 -0.5058  0.0518
 8229TIP3   OH248881   3.345   2.158  12.093  0.4110 -0.4363  0.5460
 8229TIP3    H148882   3.337   2.246  12.130  0.8480 -0.1300 -0.0590
 8229TIP3    H248883   3.264   2.145  12.045  1.5911  0.9711 -2.0805
 8230TIP3   OH248884   8.301   3.667  11.240  0.0081  0.3406  0.3387
 8230TIP3    H148885   8.207   3.682  11.229  0.2125  0.4102 -1.7356
 8230TIP3    H248886   8.307   3.585  11.288 -1.1355 -0.4005 -0.7147
 8231TIP3   OH248887   4.746   3.107  11.288 -0.2398 -0.6829 -0.3759
 8231TIP3    H148888   4.827   3.074  11.326 -0.0728 -1.3901 -1.3196
 8231TIP3    H248889   4.744   3.200  11.314 -0.3344 -1.2028  1.6481
 8232TIP3   OH248890   0.172   2.150  11.545  0.0392  0.4770 -0.1303
 8232TIP3    H148891   0.232   2.096  11.597 -1.0216 -0.2480  0.3804
 8232TIP3    H248892   0.221   2.229  11.526  0.3302  0.9785  2.3864
 8233TIP3   OH248893   5.067   6.664  10.441 -0.3472 -0.2263 -0.2024
 8233TIP3    H148894   5.100   6.738  10.492 -0.0550  0.7638 -1.7729
 8233TIP3    H248895   5.143   6.635  10.390 -1.0993  0.1261 -1.5710
 8234TIP3   OH248896   7.597   5.971  12.005 -0.0243  0.0665 -0.1468
 8234TIP3    H148897   7.601   6.063  11.977  0.1527  0.1922  0.2971
 8234TIP3    H248898   7.677   5.957  12.055  1.1501 -0.9971 -2.1821
 8235TIP3   OH248899   2.663   3.952  11.160 -0.2435 -0.4373  0.1449
 8235TIP3    H148900   2.608   4.000  11.221 -1.2902 -2.0689  0.5426
 8235TIP3    H248901   2.752   3.962  11.195 -0.3103  1.6465 -0.1295
 8236TIP3   OH248902   2.578   5.255  10.504  0.1870 -0.5515 -0.0265
 8236TIP3    H148903   2.608   5.346  10.511  0.0637 -0.6172  3.1800
 8236TIP3    H248904   2.586   5.234  10.411  1.2694  2.3653 -0.7200
 8237TIP3   OH248905   1.697   6.812  11.251  0.3209 -0.4010  0.3364
 8237TIP3    H148906   1.677   6.882  11.189  2.7272  0.1830  0.1193
 8237TIP3    H248907   1.675   6.849  11.337 -0.2657 -0.1230  0.0725
 8238TIP3   OH248908   0.586   1.996  12.773 -0.1555  0.2121  0.2052
 8238TIP3    H148909   0.556   2.021  12.685  0.3006  3.0472  0.7396
 8238TIP3    H248910   0.600   2.080  12.818 -0.7333 -1.1407  3.1340
 8239TIP3   OH248911   0.526   5.949  11.228  0.0487 -0.0227  0.2589
 8239TIP3    H148912   0.450   5.898  11.256 -1.0126  0.8133 -0.9702
 8239TIP3    H248913   0.529   5.938  11.133 -0.1753  2.1226 -0.0532
 8240TIP3   OH248914   3.237   1.471  12.053  0.0579  0.6713 -0.2990
 8240TIP3    H148915   3.241   1.387  12.099 -0.4446 -1.7024 -4.1519
 8240TIP3    H248916   3.319   1.475  12.004 -1.5850  0.2336 -3.3499
 8241TIP3   OH248917   0.435   1.181  10.790 -0.4769 -0.3366  0.1176
 8241TIP3    H148918   0.406   1.230  10.867 -0.0896 -0.4947  0.3684
 8241TIP3    H248919   0.371   1.110  10.782 -1.8898  1.0030 -1.0995
 8242TIP3   OH248920   4.184   1.040  12.322 -0.3414 -0.4743 -0.2242
 8242TIP3    H148921   4.229   0.993  12.392  0.8432 -1.9948 -1.9257
 8242TIP3    H248922   4.096   1.001  12.319 -1.3163  1.3266  1.9733
 8243TIP3   OH248923   6.229   5.246  10.718  0.3215 -0.4948  0.0618
 8243TIP3    H148924   6.288   5.172  10.730 -0.6242 -1.2863 -0.0967
 8243TIP3    H248925   6.231   5.263  10.624  0.9723  0.0623  0.1655
 8244TIP3   OH248926   5.872   4.300  11.543 -0.0958 -0.6748 -0.2963
 8244TIP3    H148927   5.819   4.220  11.548 -0.7246 -0.3348 -1.2284
 8244TIP3    H248928   5.809   4.371  11.558  0.0447 -0.2558 -1.6042
 8245TIP3   OH248929   0.419   5.402  11.517  0.7150  0.1229 -0.1976
 8245TIP3    H148930   0.498   5.407  11.571  1.1736 -1.7309 -0.6449
 8245TIP3    H248931   0.451   5.383  11.429 -0.2151 -0.3323 -0.4499
 8246TIP3   OH248932   3.597   4.760  12.303 -0.2843 -0.1754 -0.7249
 8246TIP3    H148933   3.665   4.725  12.244 -0.1990 -1.1903 -0.0567
 8246TIP3    H248934   3.560   4.682  12.344 -1.7427  0.3831 -0.9457
 8247TIP3   OH248935   7.681   1.425  11.891  0.4967 -0.6580 -0.4223
 8247TIP3    H148936   7.771   1.413  11.862  0.7944  1.8412 -0.6963
 8247TIP3    H248937   7.688   1.461  11.979 -0.2223  0.0319 -0.6367
 8248TIP3   OH248938   6.629   6.639  10.875  0.1441 -0.2343  0.7100
 8248TIP3    H148939   6.694   6.581  10.837  0.7903  0.6268  0.4736
 8248TIP3    H248940   6.547   6.614  10.833  0.3555 -1.1675  0.8363
 8249TIP3   OH248941   2.405   1.318  12.651 -0.3727  0.0079  0.4158
 8249TIP3    H148942   2.389   1.306  12.558  0.9489  2.4245 -0.1918
 8249TIP3    H248943   2.489   1.273  12.667 -0.0648  0.5004  0.1950
 8250TIP3   OH248944   2.314   2.045  11.346  0.5852  0.3214  0.3253
 8250TIP3    H148945   2.298   2.077  11.435 -1.6124 -0.1970  0.1768
 8250TIP3    H248946   2.234   2.067  11.298  0.6939 -1.6226 -0.8616
 8251TIP3   OH248947   1.308   5.128  11.222 -0.6034  0.3515 -0.1084
 8251TIP3    H148948   1.246   5.200  11.233 -1.3880 -0.1113 -1.3526
 8251TIP3    H248949   1.394   5.170  11.231 -0.9541  0.6467  3.9311
 8252TIP3   OH248950   3.898   7.723  11.567 -0.1469  0.6600  0.2101
 8252TIP3    H148951   3.950   7.713  11.487 -0.5016 -3.5320  0.2400
 8252TIP3    H248952   3.957   7.766  11.629  1.9697 -0.4603 -0.8959
 8253TIP3   OH248953   6.211   7.729  11.164 -0.0741 -0.4487  0.2139
 8253TIP3    H148954   6.214   7.736  11.069 -0.4808 -0.3695  0.2085
 8253TIP3    H248955   6.291   7.773  11.193 -0.1054 -0.2007 -0.0716
 8254TIP3   OH248956   5.322   4.539  12.806  0.0322  0.3435 -0.7757
 8254TIP3    H148957   5.252   4.594  12.842  1.2582  0.6185  1.4003
 8254TIP3    H248958   5.391   4.600  12.782 -0.2937  0.0491 -2.6221
 8255TIP3   OH248959   5.890   0.491  11.379 -0.1944  0.2410 -0.3550
 8255TIP3    H148960   5.933   0.576  11.380  0.1567  0.1718  3.2191
 8255TIP3    H248961   5.796   0.512  11.381 -0.1305  0.5448 -0.5740
 8256TIP3   OH248962   0.110   7.765  11.435 -0.1567  0.2391  0.1850
 8256TIP3    H148963   0.043   7.697  11.442  0.7405 -0.5940  1.0543
 8256TIP3    H248964   0.193   7.717  11.444  0.4774  1.4985  1.3181
 8257TIP3   OH248965   3.574   2.598  10.439 -0.1768  0.5429 -0.3630
 8257TIP3    H148966   3.642   2.662  10.461  0.0471  0.0788  0.3145
 8257TIP3    H248967   3.494   2.650  10.429  0.0377  0.9492  0.0121
 8258TIP3   OH248968   1.858   7.852  11.885 -0.5182 -0.0841 -0.4894
 8258TIP3    H148969   1.898   7.927  11.842  0.3054  0.3461  0.9653
 8258TIP3    H248970   1.804   7.890  11.954  0.0136 -0.8060  0.3500
 8259TIP3   OH248971   2.872   5.833  11.504 -0.1919 -0.7502  0.1739
 8259TIP3    H148972   2.790   5.815  11.549 -0.6720  1.7952  0.5034
 8259TIP3    H248973   2.853   5.909  11.449  1.8092 -0.4213 -0.1577
 8260TIP3   OH248974   7.106   0.028  12.038 -0.1629  0.3453  0.9997
 8260TIP3    H148975   7.123   0.057  12.128 -0.8879  1.6273  0.7479
 8260TIP3    H248976   7.012   0.038  12.027  0.0347  1.1020 -0.1877
 8261TIP3   OH248977   2.727   2.734  10.838 -0.0733  0.0867  0.0322
 8261TIP3    H148978   2.803   2.733  10.779 -1.5745  0.5951 -1.9976
 8261TIP3    H248979   2.702   2.826  10.845  0.8406  0.2421  2.6430
 8262TIP3   OH248980   7.312   3.716  12.472 -0.6094  0.7527  0.3183
 8262TIP3    H148981   7.255   3.789  12.499 -1.4840  0.2199 -0.0543
 8262TIP3    H248982   7.255   3.640  12.472  0.5336 -0.1633  1.7398
 8263TIP3   OH248983   6.675   8.124  11.769 -0.3084  0.2736  0.1863
 8263TIP3    H148984   6.698   8.053  11.829  0.2965  0.7193  0.4972
 8263TIP3    H248985   6.749   8.128  11.708  0.0465  1.1584  0.6621
 8264TIP3   OH248986   5.373   2.881  10.429 -0.8047  0.1776  0.3386
 8264TIP3    H148987   5.447   2.888  10.489 -1.6420 -1.0417  1.5934
 8264TIP3    H248988   5.394   2.939  10.357  1.0688  0.3339  0.9700
 8265TIP3   OH248989   7.554   1.021  12.863  0.7148  0.1868  0.3468
 8265TIP3    H148990   7.530   1.094  12.921 -1.1037 -0.2882  0.2510
 8265TIP3    H248991   7.646   1.037  12.841  1.0210  1.1914  2.1623
 8266TIP3   OH248992   2.346   4.156  11.653  0.3016 -0.6293  0.0146
 8266TIP3    H148993   2.329   4.132  11.744 -2.4070  1.1426  0.0936
 8266TIP3    H248994   2.261   4.147  11.610  0.3231  3.1409 -1.1666
 8267TIP3   OH248995   5.622   2.321  10.718  0.4861 -0.1236 -0.4369
 8267TIP3    H148996   5.698   2.264  10.703  0.3333  0.0878 -2.3387
 8267TIP3    H248997   5.659   2.409  10.726  0.4901 -0.0628 -1.0381
 8268TIP3   OH248998   4.491   4.501  12.605 -0.1759  1.4344 -0.2651
 8268TIP3    H148999   4.430   4.561  12.649  0.8639  0.6363  2.4684
 8268TIP3    H249000   4.457   4.414  12.625 -0.4867  1.0116 -2.4134
 8269TIP3   OH249001   7.817   1.307  13.027 -0.4330  0.0334 -0.3344
 8269TIP3    H149002   7.888   1.318  12.963 -0.3185  0.1839 -0.1809
 8269TIP3    H249003   7.851   1.346  13.107 -1.6438  2.4522 -0.9064
 8270TIP3   OH249004   6.912   7.746  12.084 -0.5822  0.1712 -0.6231
 8270TIP3    H149005   6.866   7.707  12.158 -3.1631  0.7798 -1.8024
 8270TIP3    H249006   6.887   7.692  12.009  1.2528  0.1047 -1.2353
 8271TIP3   OH249007   7.407   1.312  10.675 -0.3998 -0.3490  0.4276
 8271TIP3    H149008   7.423   1.220  10.651  1.6561 -0.0575  0.4427
 8271TIP3    H249009   7.418   1.314  10.771 -0.4342 -0.0999  0.4266
 8272TIP3   OH249010   1.168   1.667  11.233  0.0419  0.1396 -0.6417
 8272TIP3    H149011   1.213   1.676  11.317 -0.0518  0.8363 -0.6605
 8272TIP3    H249012   1.187   1.749  11.186  0.5009 -0.4406 -1.5016
 8273TIP3   OH249013   8.432   2.979  10.455  0.1494 -0.6206 -0.1263
 8273TIP3    H149014   8.466   3.024  10.378  0.9386 -0.5516  0.2543
 8273TIP3    H249015   8.457   3.034  10.529 -2.4164  0.4215  0.0641
 8274TIP3   OH249016   7.883   0.901  12.517 -0.2638 -0.9788  0.3434
 8274TIP3    H149017   7.849   0.956  12.587 -0.3153 -1.1285  0.4372
 8274TIP3    H249018   7.806   0.852  12.486 -1.2528  2.0606 -2.6559
 8275TIP3   OH249019   5.268   1.921  11.106  0.1827  0.2837  0.3179
 8275TIP3    H149020   5.311   2.006  11.097 -1.4372  1.3379  1.8656
 8275TIP3    H249021   5.312   1.880  11.180 -0.5692  0.8260  1.0917
 8276TIP3   OH249022   3.566   1.560  11.037 -0.0958 -0.3886  0.2177
 8276TIP3    H149023   3.590   1.467  11.043 -0.3560 -0.4355  0.5650
 8276TIP3    H249024   3.629   1.604  11.094  2.4144  0.1227 -2.6923
 8277TIP3   OH249025   3.145   2.092  12.367  0.0301  0.0480 -0.2164
 8277TIP3    H149026   3.159   2.113  12.460 -0.3138  0.1554 -0.1880
 8277TIP3    H249027   3.226   2.120  12.324  0.0309  0.3839 -0.0062
 8278TIP3   OH249028   7.980   1.693  11.180  0.3712  0.2042  0.9786
 8278TIP3    H149029   7.917   1.660  11.244 -0.2692  2.2065  1.4691
 8278TIP3    H249030   8.017   1.771  11.222  1.7446  0.1803 -0.1200
 8279TIP3   OH249031   7.338   6.951  12.680 -0.1689 -0.3636  0.1505
 8279TIP3    H149032   7.400   6.992  12.741 -2.5473  1.6993  1.3557
 8279TIP3    H249033   7.296   6.882  12.732 -2.5372  1.7039  1.1735
 8280TIP3   OH249034   6.850   4.743  11.383 -0.6074 -0.2403 -0.3677
 8280TIP3    H149035   6.807   4.780  11.305 -2.3301 -0.0278  0.6123
 8280TIP3    H249036   6.939   4.776  11.379 -1.0178  0.8354 -1.5803
 8281TIP3   OH249037   6.142   0.875  11.802  0.1035  0.3795 -0.4909
 8281TIP3    H149038   6.136   0.787  11.765  2.4376 -0.5246  1.0576
 8281TIP3    H249039   6.079   0.874  11.875  1.1865 -0.6141  0.4904
 8282TIP3   OH249040   2.120   3.700  11.100  0.6007 -1.1105  0.0485
 8282TIP3    H149041   2.043   3.691  11.156  2.2452 -0.0806  2.6532
 8282TIP3    H249042   2.183   3.637  11.134  2.0537  0.3231  0.1608
 8283TIP3   OH249043   7.271   3.806  10.694 -0.1214  0.5559 -0.6564
 8283TIP3    H149044   7.265   3.896  10.661  0.0856  0.8696  0.1320
 8283TIP3    H249045   7.200   3.800  10.759 -0.3903  0.0189 -0.9912
 8284TIP3   OH249046   5.948   3.885  10.768  0.4954 -0.0669 -0.0017
 8284TIP3    H149047   5.929   3.900  10.861 -1.0621 -1.1142 -0.1142
 8284TIP3    H249048   6.042   3.866  10.766  0.2141 -1.9434  1.6528
 8285TIP3   OH249049   6.707   1.613  12.382 -0.3431  0.4976  0.1667
 8285TIP3    H149050   6.657   1.617  12.464 -0.2543 -0.0157  0.2497
 8285TIP3    H249051   6.766   1.539  12.394  1.4118  1.9201  0.6040
 8286TIP3   OH249052   5.493   0.093  12.888  0.2510  0.1381  0.1901
 8286TIP3    H149053   5.587   0.100  12.906  0.1917  1.1016  0.1326
 8286TIP3    H249054   5.456   0.056  12.968  0.9107 -1.9998 -0.4287
 8287TIP3   OH249055   8.220   3.228  11.098 -0.1808  0.1543 -0.6382
 8287TIP3    H149056   8.285   3.181  11.046 -0.1269  0.4227 -0.8139
 8287TIP3    H249057   8.239   3.320  11.082  0.3880  0.2611  0.5115
 8288TIP3   OH249058   7.727   3.240  11.999 -0.5884  0.1864  0.1700
 8288TIP3    H149059   7.736   3.277  11.912 -2.0447  1.7304  0.6258
 8288TIP3    H249060   7.653   3.180  11.992 -2.1087  1.8887  0.7532
 8289TIP3   OH249061   2.084   6.665  11.914  0.0031 -0.0992 -0.0046
 8289TIP3    H149062   2.077   6.760  11.908  0.5838 -0.1054 -0.9125
 8289TIP3    H249063   2.167   6.644  11.873 -0.4600 -1.0638 -0.4816
 8290TIP3   OH249064   3.502   3.373  12.803  0.2984 -0.5991 -0.4083
 8290TIP3    H149065   3.519   3.373  12.898  1.4785 -0.9954 -0.5950
 8290TIP3    H249066   3.513   3.464  12.777  0.1437 -0.5160 -0.1901
 8291TIP3   OH249067   6.176   2.218  11.308  0.8526 -0.1720  0.2123
 8291TIP3    H149068   6.228   2.298  11.302  0.0221  0.3550 -0.2225
 8291TIP3    H249069   6.088   2.245  11.281  0.5646 -1.2370  0.0353
 8292TIP3   OH249070   1.981   4.442  11.707  0.2415 -0.2930 -0.0261
 8292TIP3    H149071   1.894   4.426  11.744 -0.2105 -0.7112 -1.2148
 8292TIP3    H249072   1.965   4.488  11.625  1.3081  1.9934  0.9713
 8293TIP3   OH249073   8.159   7.722  11.481 -0.1889  0.2383  0.0253
 8293TIP3    H149074   8.161   7.710  11.386  0.3958  2.7346 -0.3346
 8293TIP3    H249075   8.236   7.673  11.512  0.4311  0.5464 -0.9610
 8294TIP3   OH249076   5.762   6.985  11.193 -0.3427  0.3894 -0.3324
 8294TIP3    H149077   5.761   6.890  11.203  2.8641  0.3661  1.4835
 8294TIP3    H249078   5.781   6.999  11.101 -1.0962 -0.7142 -0.6763
 8295TIP3   OH249079   8.149   3.973  12.681 -0.5357  0.5804  0.2215
 8295TIP3    H149080   8.190   3.892  12.649  0.4911  0.7279  1.1091
 8295TIP3    H249081   8.214   4.010  12.741 -1.9236  0.8829  1.5953
 8296TIP3   OH249082   5.243   3.739  11.668 -0.2266  0.0689  0.1160
 8296TIP3    H149083   5.290   3.786  11.737  1.3835 -0.6480 -0.4535
 8296TIP3    H249084   5.237   3.649  11.700 -2.3055  0.3484  0.6962
 8297TIP3   OH249085   6.403   8.336  10.610 -0.0396 -0.3677 -0.3280
 8297TIP3    H149086   6.357   8.256  10.585 -2.2623  1.5758 -3.0412
 8297TIP3    H249087   6.334   8.397  10.636  1.2680  1.6004 -1.2146
 8298TIP3   OH249088   1.622   1.716  11.751  0.3191  0.2299 -0.1321
 8298TIP3    H149089   1.637   1.676  11.837 -0.0647  0.9465  0.2764
 8298TIP3    H249090   1.616   1.641  11.691  0.8127 -0.2711  0.4196
 8299TIP3   OH249091   0.656   0.392  11.136  0.6164 -0.1735  0.1210
 8299TIP3    H149092   0.630   0.388  11.228  0.0746 -1.7809 -0.0693
 8299TIP3    H249093   0.597   0.457  11.097  0.0012 -0.4016  0.6537
 8300TIP3   OH249094   6.512   0.251  11.547 -0.2860 -0.0464 -0.6153
 8300TIP3    H149095   6.486   0.287  11.631  1.4682 -2.5433  1.1212
 8300TIP3    H249096   6.502   0.324  11.486 -4.1634  1.1670  1.1238
 8301TIP3   OH249097   2.958   5.280  11.351  0.2698  0.0593 -0.3335
 8301TIP3    H149098   3.031   5.305  11.295  0.5087  1.2308  0.4578
 8301TIP3    H249099   2.998   5.228  11.421  0.4652  1.1405  0.3909
 8302TIP3   OH249100   6.783   3.001  12.433 -0.2527 -0.0221 -0.1733
 8302TIP3    H149101   6.843   3.054  12.486 -1.8304  1.8999 -0.1934
 8302TIP3    H249102   6.810   3.017  12.343  0.2176 -0.4686 -0.1144
 8303TIP3   OH249103   0.154   6.218  11.328 -0.3328  0.2004  0.0136
 8303TIP3    H149104   0.201   6.292  11.367 -1.0298  0.1649  0.9627
 8303TIP3    H249105   0.167   6.146  11.390 -0.8658 -0.0632 -0.1737
 8304TIP3   OH249106   2.525   6.990  12.670 -0.4878  0.0262  0.0213
 8304TIP3    H149107   2.583   7.046  12.619 -3.1123  1.5543 -1.5238
 8304TIP3    H249108   2.437   7.023  12.651 -1.8257 -1.0663  3.5169
 8305TIP3   OH249109   8.203   1.454  10.588 -0.1926  0.0005 -0.0899
 8305TIP3    H149110   8.260   1.506  10.532 -1.1523  0.3898 -0.7416
 8305TIP3    H249111   8.115   1.490  10.573 -0.5185 -0.0533  1.4763
 8306TIP3   OH249112   1.963   3.600  10.833 -0.2634  0.0365 -0.1258
 8306TIP3    H149113   1.961   3.545  10.755  1.2650  0.1229 -0.2665
 8306TIP3    H249114   1.950   3.539  10.906  2.4868 -0.7734 -0.2014
 8307TIP3   OH249115   7.069   1.799  10.865 -0.2334 -0.6215  0.2980
 8307TIP3    H149116   7.037   1.885  10.838  1.4689  0.3498  1.1950
 8307TIP3    H249117   7.128   1.771  10.795 -0.1873 -0.6915  0.3640
 8308TIP3   OH249118   6.030   5.456  12.592 -0.0902 -0.0587 -0.3303
 8308TIP3    H149119   6.068   5.368  12.588 -1.1405 -0.5479  0.0874
 8308TIP3    H249120   5.948   5.445  12.641 -0.9401  0.8998 -1.4781
 8309TIP3   OH249121   2.924   8.078  11.298  0.2017  0.2055  0.0767
 8309TIP3    H149122   2.930   8.172  11.315  0.1853  0.3255 -0.5662
 8309TIP3    H249123   2.920   8.038  11.385  0.7058  0.7632  0.3627
 8310TIP3   OH249124   6.228   8.248  11.330  0.1044 -0.0502 -0.0997
 8310TIP3    H149125   6.306   8.254  11.386 -1.1595 -1.7711  2.0315
 8310TIP3    H249126   6.229   8.158  11.296  0.1620  0.5841 -1.8833
 8311TIP3   OH249127   6.109   8.412  11.958 -0.2980  0.0872  0.2188
 8311TIP3    H149128   6.089   8.365  11.877 -0.8936  1.1531 -0.2791
 8311TIP3    H249129   6.160   8.350  12.010  1.4392 -0.1131 -1.6028
 8312TIP3   OH249130   6.813   3.683  11.595  0.4296  0.6289  0.0136
 8312TIP3    H149131   6.873   3.666  11.523 -0.1637  0.4752 -0.4480
 8312TIP3    H249132   6.731   3.709  11.553  0.8102  3.1473  0.6345
 8313TIP3   OH249133   7.652   8.125  10.919 -0.0912 -0.5915 -0.0415
 8313TIP3    H149134   7.738   8.128  10.960 -1.0061  0.1526  1.9502
 8313TIP3    H249135   7.600   8.067  10.975 -1.0334 -0.6305 -0.9241
 8314TIP3   OH249136   3.104   7.108  10.917 -0.5022 -0.1841  0.4262
 8314TIP3    H149137   3.137   7.179  10.973 -0.5100 -0.9683  1.4599
 8314TIP3    H249138   3.023   7.081  10.959 -1.2391  0.1287 -0.7598
 8315TIP3   OH249139   1.362   6.937  11.845  0.2900 -0.2679  0.0023
 8315TIP3    H149140   1.319   7.002  11.790 -0.3272 -1.8298 -1.4638
 8315TIP3    H249141   1.433   6.903  11.790 -0.1035 -1.6050  0.2852
 8316TIP3   OH249142   1.959   6.461  12.287 -0.0502  0.1401 -0.3982
 8316TIP3    H149143   1.998   6.394  12.231  0.2674 -0.6919  0.7824
 8316TIP3    H249144   1.873   6.476  12.248  0.3973  0.0558 -1.4750
 8317TIP3   OH249145   2.777   3.657  11.541 -0.2480  0.2211  0.4446
 8317TIP3    H149146   2.708   3.722  11.554  1.1020  1.2899  3.0771
 8317TIP3    H249147   2.763   3.593  11.610  0.8179 -0.0546  0.4204
 8318TIP3   OH249148   2.149   7.213  11.972  0.1870 -0.6074  0.2452
 8318TIP3    H149149   2.131   7.279  11.904 -0.7593 -0.5936  0.4952
 8318TIP3    H249150   2.184   7.264  12.046 -0.5630 -0.3726  0.4467
 8319TIP3   OH249151   7.918   5.565  11.740  0.6213  0.4050 -0.2028
 8319TIP3    H149152   7.973   5.592  11.813  0.6113  0.3594 -0.1783
 8319TIP3    H249153   7.942   5.623  11.668 -0.6502  1.6658  0.3449
 8320TIP3   OH249154   1.111   5.694  11.046 -0.1142 -0.2950  0.1155
 8320TIP3    H149155   1.131   5.782  11.078  0.2399 -0.0661 -0.7091
 8320TIP3    H249156   1.189   5.669  10.996 -0.5055 -0.7847 -0.2548
 8321TIP3   OH249157   3.958   6.750  11.465  0.1910  0.9673 -0.7107
 8321TIP3    H149158   3.931   6.733  11.374  0.1124  1.0909 -0.7110
 8321TIP3    H249159   3.959   6.664  11.506  1.0792  0.7919 -1.0608
 8322TIP3   OH249160   7.214   4.690  10.817  0.5291  0.2678  0.5042
 8322TIP3    H149161   7.255   4.626  10.875 -0.0249  0.6790  1.3659
 8322TIP3    H249162   7.268   4.768  10.825  0.4410  0.3308  0.4808
 8323TIP3   OH249163   6.438   6.739  12.032  0.3384  0.0308 -0.0797
 8323TIP3    H149164   6.391   6.658  12.010  1.9791 -1.1498  0.5267
 8323TIP3    H249165   6.380   6.785  12.092 -0.7689 -0.5327 -0.6791
 8324TIP3   OH249166   5.946   7.738  10.793 -0.0809 -0.4481  0.1731
 8324TIP3    H149167   5.940   7.800  10.866  2.3898 -1.5996  1.4807
 8324TIP3    H249168   6.008   7.777  10.732 -1.4084  0.0594 -0.9045
 8325TIP3   OH249169   5.784   1.278  11.548  0.0320  0.5955  0.6872
 8325TIP3    H149170   5.843   1.306  11.619 -1.7619  1.5719  1.8781
 8325TIP3    H249171   5.825   1.199  11.513  2.1552  1.3426  1.2946
 8326TIP3   OH249172   3.555   1.926  11.954  0.1326 -0.5834 -0.2441
 8326TIP3    H149173   3.587   2.006  11.913 -0.9682 -0.0812 -0.1496
 8326TIP3    H249174   3.628   1.864  11.945 -0.0421 -0.5083 -2.9632
 8327TIP3   OH249175   4.051   3.543  11.185  0.6289  0.6351 -0.0681
 8327TIP3    H149176   4.087   3.481  11.120 -1.0517 -0.5806  0.0997
 8327TIP3    H249177   3.957   3.539  11.172  0.4229  2.5749  0.5464
 8328TIP3   OH249178   4.188   1.541  10.575  0.1523  0.1839  0.2809
 8328TIP3    H149179   4.190   1.635  10.558  0.5642 -0.1865 -2.0070
 8328TIP3    H249180   4.250   1.529  10.648  0.7525  1.5805  0.0353
 8329TIP3   OH249181   8.342   2.017  10.751  0.7046 -0.0371 -0.3912
 8329TIP3    H149182   8.415   1.997  10.692  0.0115  0.8472 -1.6044
 8329TIP3    H249183   8.359   2.107  10.780  0.9277 -0.3919  0.6189
 8330TIP3   OH249184   8.339   4.977  11.774 -0.4273 -0.1866  0.3171
 8330TIP3    H149185   8.325   4.884  11.794 -1.6106  0.0977  0.8710
 8330TIP3    H249186   8.433   4.983  11.754 -0.3605 -1.5224  0.1310
 8331TIP3   OH249187   4.894   2.054  12.361 -0.5030 -0.0202  0.5034
 8331TIP3    H149188   4.869   1.974  12.406  0.6170 -0.7892 -0.2026
 8331TIP3    H249189   4.951   2.100  12.423  0.3928 -0.6980  0.2092
 8332TIP3   OH249190   2.729   7.342  12.025  0.1022  0.7131 -0.5073
 8332TIP3    H149191   2.649   7.290  12.031  0.8758 -0.3563  1.1102
 8332TIP3    H249192   2.726   7.380  11.937 -1.5776 -0.2593 -0.9138
 8333TIP3   OH249193   0.847   3.421  11.248 -0.5631 -0.2923  0.5062
 8333TIP3    H149194   0.767   3.454  11.288  1.1693  2.8708  1.7066
 8333TIP3    H249195   0.915   3.438  11.313  1.2628 -2.1336 -0.7817
 8334TIP3   OH249196   1.914   7.541  11.478  0.0327 -0.3307  0.2127
 8334TIP3    H149197   1.947   7.521  11.391 -0.1495 -0.1870  0.1110
 8334TIP3    H249198   1.896   7.455  11.517 -0.0514 -0.3881  0.0460
 8335TIP3   OH249199   2.863   8.377  10.929 -0.4371  0.4234  0.0415
 8335TIP3    H149200   2.845   8.457  10.979  0.5350  0.2144  0.7614
 8335TIP3    H249201   2.957   8.361  10.942 -0.1177  0.3895 -1.9132
 8336TIP3   OH249202   4.468   6.760  16.222 -0.2144 -0.1209 -0.0680
 8336TIP3    H149203   4.549   6.808  16.234 -0.2991  0.2541 -0.9333
 8336TIP3    H249204   4.492   6.668  16.235  0.2587  0.0251  0.0992
 8337TIP3   OH249205   0.900   4.588  10.562 -0.0710 -0.2878  0.1414
 8337TIP3    H149206   0.961   4.569  10.633  1.2660  1.3247 -0.5059
 8337TIP3    H249207   0.815   4.596  10.605  0.4193 -1.0568  1.2974
 8338TIP3   OH249208   5.351   2.958  11.105  0.0870  0.3550 -0.2029
 8338TIP3    H149209   5.375   3.046  11.077 -0.6747  0.8246  0.5580
 8338TIP3    H249210   5.358   2.960  11.201  0.0538 -0.4109 -0.1717
 8339TIP3   OH249211   7.771   2.577  12.175  0.5289 -0.2578  0.1819
 8339TIP3    H149212   7.715   2.504  12.202 -1.0171  1.8316  3.2034
 8339TIP3    H249213   7.731   2.610  12.095 -0.3398 -1.0999  0.2563
 8340TIP3   OH249214   2.477   3.550  12.110 -1.3546  0.6328 -0.4014
 8340TIP3    H149215   2.490   3.619  12.175  3.4226  0.5129 -0.9001
 8340TIP3    H249216   2.488   3.595  12.026  0.3507 -0.4084 -0.7751
 8341TIP3   OH249217   4.389   2.143  10.497 -0.0189  0.5018 -0.6707
 8341TIP3    H149218   4.293   2.145  10.502  0.0065 -0.6339  0.3868
 8341TIP3    H249219   4.409   2.063  10.448  0.4535 -1.7809  2.8996
 8342TIP3   OH249220   7.247   8.246  11.977  0.2988 -0.0142 -0.1626
 8342TIP3    H149221   7.328   8.293  11.957  0.3445  0.2283  0.5811
 8342TIP3    H249222   7.184   8.315  11.997 -0.0111 -0.2189 -0.4232
 8343TIP3   OH249223   1.413   4.518  11.671  0.1715 -0.1451  0.0395
 8343TIP3    H149224   1.427   4.442  11.729 -0.0474 -1.8690 -2.0487
 8343TIP3    H249225   1.326   4.550  11.696  0.5817 -0.0531  1.4754
 8344TIP3   OH249226   1.776   6.027  11.539 -0.3737 -0.2844  0.2021
 8344TIP3    H149227   1.871   6.016  11.530 -0.1326  1.5967 -0.0255
 8344TIP3    H249228   1.762   6.036  11.634 -0.1616  0.4670  0.1733
 8345TIP3   OH249229   3.424   7.620  10.901  0.3809  0.0129  0.8545
 8345TIP3    H149230   3.357   7.679  10.867  1.7095  2.4133  2.1387
 8345TIP3    H249231   3.407   7.616  10.995  0.2497 -1.8230  0.7920
 8346TIP3   OH249232   1.229   7.125  10.401  0.0259  0.4695 -0.0708
 8346TIP3    H149233   1.160   7.191  10.397 -1.0371 -0.4628  1.6663
 8346TIP3    H249234   1.187   7.043  10.376  0.3125 -0.2093  1.5343
 8347TIP3   OH249235   4.341   2.408  10.984  0.1083  0.3863 -0.1400
 8347TIP3    H149236   4.336   2.319  11.019  2.4081 -0.2190 -1.1511
 8347TIP3    H249237   4.336   2.396  10.889  1.2477  1.2421 -0.3253
 8348TIP3   OH249238   4.167   5.089  15.986 -0.0387  0.1641 -0.0087
 8348TIP3    H149239   4.145   5.151  15.917 -0.6228  2.0344  1.7388
 8348TIP3    H249240   4.095   5.026  15.986 -0.8788  1.0984 -0.0798
 8349TIP3   OH249241   6.902   6.299  11.418 -0.1884 -0.3426 -0.5579
 8349TIP3    H149242   6.942   6.254  11.343  1.2246 -1.3236  0.7196
 8349TIP3    H249243   6.879   6.229  11.479 -2.2498  0.3616 -0.4567
 8350TIP3   OH249244   4.529   6.922  11.679  0.4971 -0.5466  0.5563
 8350TIP3    H149245   4.506   6.955  11.766  1.1461  0.4751  0.3471
 8350TIP3    H249246   4.444   6.905  11.637  0.1577 -2.1810  1.7769
 8351TIP3   OH249247   1.223   2.910  11.445  0.3946  0.4249 -0.0727
 8351TIP3    H149248   1.264   2.943  11.365 -1.7182  2.1380 -0.5308
 8351TIP3    H249249   1.199   2.819  11.425  3.8710 -0.7173  0.2684
 8352TIP3   OH249250   0.588   5.623  11.194  0.2116 -0.1194 -0.0816
 8352TIP3    H149251   0.526   5.669  11.251 -0.8150 -1.5748  0.0422
 8352TIP3    H249252   0.657   5.687  11.176 -1.5726  1.7646 -0.6461
 8353TIP3   OH249253   1.398   6.738  12.072 -0.3661  0.6090  0.4500
 8353TIP3    H149254   1.320   6.711  12.120 -0.3919  0.0591  0.1053
 8353TIP3    H249255   1.364   6.792  12.000 -0.4875 -0.0706 -0.0181
 8354TIP3   OH249256   3.936   6.433  10.518  0.5168  0.6996  0.0966
 8354TIP3    H149257   3.840   6.434  10.517  0.4878  0.6237  1.2288
 8354TIP3    H249258   3.960   6.353  10.473  0.0076  0.1764  0.7341
 8355TIP3   OH249259   5.303   4.261  12.743 -0.5749  0.2251  0.1877
 8355TIP3    H149260   5.330   4.350  12.766  0.1523 -0.6722  3.3080
 8355TIP3    H249261   5.384   4.215  12.722 -0.6376 -0.3036  1.0535
 8356TIP3   OH249262   4.558   0.800  12.011  0.0366  0.2765  0.2360
 8356TIP3    H149263   4.564   0.884  11.965  1.3319  1.1113  1.8314
 8356TIP3    H249264   4.509   0.819  12.091 -0.3587 -0.6882  0.2422
 8357TIP3   OH249265   7.955   7.116  11.335  0.3475  0.1882 -0.1806
 8357TIP3    H149266   8.016   7.085  11.268  2.8428  1.3112  1.4047
 8357TIP3    H249267   7.994   7.197  11.367 -2.7382  1.7247  0.0594
 8358TIP3   OH249268   5.837   4.160  10.880  0.0391 -0.3530 -0.3580
 8358TIP3    H149269   5.812   4.192  10.793 -1.8176 -0.2146  0.1839
 8358TIP3    H249270   5.926   4.194  10.892 -0.7781  2.3008 -0.9672
 8359TIP3   OH249271   2.658   2.249  12.284 -0.4176  0.1903 -0.0084
 8359TIP3    H149272   2.715   2.295  12.221  0.0311  0.0397  0.2837
 8359TIP3    H249273   2.640   2.165  12.242 -0.0167  0.0398  0.1117
 8360TIP3   OH249274   2.857   6.071  11.895  0.2126  0.1538  0.2785
 8360TIP3    H149275   2.923   6.073  11.826 -1.7405  1.1693 -1.7183
 8360TIP3    H249276   2.788   6.014  11.861 -0.7353  0.5225  1.4893
 8361TIP3   OH249277   5.444   1.267  10.947  0.1217  0.0815  0.0215
 8361TIP3    H149278   5.523   1.253  10.896 -1.2089 -0.0371 -2.1065
 8361TIP3    H249279   5.447   1.199  11.014  1.7925  0.0893 -0.0026
 8362TIP3   OH249280   2.652   5.633  10.734 -0.6525  0.6513  0.4917
 8362TIP3    H149281   2.745   5.644  10.713 -0.4471  0.3583  1.2543
 8362TIP3    H249282   2.614   5.721  10.721 -0.8861  0.1911 -2.7350
 8363TIP3   OH249283   1.544   2.450  11.957 -0.4186 -0.0853  0.3764
 8363TIP3    H149284   1.616   2.466  11.897  0.0190 -1.0994  0.6072
 8363TIP3    H249285   1.487   2.388  11.910 -0.9494  0.4186  0.3430
 8364TIP3   OH249286   0.707   0.396  11.644  0.6547  0.1037 -0.1582
 8364TIP3    H149287   0.748   0.310  11.657  2.6146  1.0370  0.2133
 8364TIP3    H249288   0.657   0.411  11.724  0.0598 -0.8052 -0.3509
 8365TIP3   OH249289   5.689   0.633  10.762  0.2437 -0.1415  0.0008
 8365TIP3    H149290   5.762   0.693  10.747 -0.6203  0.7767 -0.6300
 8365TIP3    H249291   5.731   0.552  10.791  1.7046 -0.5039 -2.7928
 8366TIP3   OH249292   3.794   2.728  10.561 -0.2787 -0.3425 -0.4431
 8366TIP3    H149293   3.779   2.744  10.654  1.1725  0.3028 -0.3025
 8366TIP3    H249294   3.857   2.795  10.534 -0.9539 -0.2746 -1.9891
 8367TIP3   OH249295   6.408   4.987  12.191  0.0749 -0.2605 -0.1174
 8367TIP3    H149296   6.386   4.894  12.181  0.7323 -0.3337 -0.9485
 8367TIP3    H249297   6.390   5.005  12.284  1.9355 -1.7502  0.6067
 8368TIP3   OH249298   3.373   3.026  11.563  0.1064 -0.1690  0.2149
 8368TIP3    H149299   3.362   3.025  11.658 -1.0143 -0.2931  0.0963
 8368TIP3    H249300   3.284   3.022  11.528  0.4402  0.8066 -0.8426
 8369TIP3   OH249301   8.424   0.961  11.633 -0.0631  0.5653  0.0871
 8369TIP3    H149302   8.411   1.000  11.546 -0.7759  0.7544  0.2762
 8369TIP3    H249303   8.513   0.987  11.657 -0.3471  1.6750 -0.0022
 8370TIP3   OH249304   1.412   6.948  11.290 -0.3628 -0.1393 -0.5319
 8370TIP3    H149305   1.399   6.880  11.224 -0.6481  0.4477 -1.0837
 8370TIP3    H249306   1.465   7.014  11.247 -0.6082  0.2805 -0.2018
 8371TIP3   OH249307   6.782   5.306  11.673  0.4731  0.0421 -0.1352
 8371TIP3    H149308   6.811   5.319  11.764 -0.9237 -0.8312  0.4801
 8371TIP3    H249309   6.863   5.301  11.622  1.3427 -0.9120  1.2686
 8372TIP3   OH249310   1.240   5.127  10.474 -0.2922 -0.4178 -0.9912
 8372TIP3    H149311   1.197   5.049  10.510 -1.0308 -0.2366 -1.4625
 8372TIP3    H249312   1.169   5.178  10.435  0.2650  0.2094 -1.2090
 8373TIP3   OH249313   1.457   7.264  10.657  0.4508  0.2116 -0.8436
 8373TIP3    H149314   1.473   7.175  10.626  0.6485 -0.8100  1.9298
 8373TIP3    H249315   1.390   7.254  10.725  1.0117  2.0692  0.0446
 8374TIP3   OH249316   0.789   4.307  11.884  0.5426  0.2626  0.2703
 8374TIP3    H149317   0.770   4.400  11.871 -1.0657 -0.1585 -0.6437
 8374TIP3    H249318   0.846   4.285  11.810  0.0168  0.2679 -0.1368
 8375TIP3   OH249319   2.604   8.358  10.990  0.1984 -0.4005  0.2408
 8375TIP3    H149320   2.546   8.428  10.961 -0.3715 -0.5305  1.0402
 8375TIP3    H249321   2.687   8.376  10.946 -0.3412 -0.0231 -0.6618
 8376TIP3   OH249322   0.539   0.138  10.713 -0.3636  0.4787  0.1259
 8376TIP3    H149323   0.465   0.168  10.767 -0.4947  0.4302 -0.0245
 8376TIP3    H249324   0.596   0.215  10.707 -0.3312  0.4754  0.3596
 8377TIP3   OH249325   1.562   1.602  12.262 -0.3047 -0.6645  0.2087
 8377TIP3    H149326   1.645   1.578  12.220 -0.3814 -0.7273  0.0949
 8377TIP3    H249327   1.582   1.601  12.356 -0.8621 -3.3904  0.3808
 8378TIP3   OH249328   0.902   3.885  11.081  1.0681 -0.2010  0.8243
 8378TIP3    H149329   0.989   3.898  11.119  1.4891  3.7006 -1.0057
 8378TIP3    H249330   0.918   3.832  11.002  1.4839 -0.8931  1.3613
 8379TIP3   OH249331   1.123   7.155  11.262  0.7295  0.3116  0.4217
 8379TIP3    H149332   1.204   7.203  11.249  0.8157  0.1169  0.2309
 8379TIP3    H249333   1.151   7.064  11.272  0.4096 -0.0878 -1.7167
 8380TIP3   OH249334   4.218   5.678  12.406  0.2597  0.2943  0.0865
 8380TIP3    H149335   4.129   5.673  12.441  1.0838  0.2556  2.3350
 8380TIP3    H249336   4.239   5.588  12.380 -0.5359  0.4095 -1.0331
 8381TIP3   OH249337   1.884   6.772  11.496  0.3435 -0.1843  0.4931
 8381TIP3    H149338   1.835   6.809  11.423 -0.0556 -1.1949  0.2420
 8381TIP3    H249339   1.976   6.775  11.467  0.4857  1.7148  0.9714
 8382TIP3   OH249340   0.932   6.918  10.918 -0.0924  0.2460 -0.3963
 8382TIP3    H149341   0.836   6.916  10.916 -0.0825  0.2466 -1.1180
 8382TIP3    H249342   0.957   6.938  10.828  0.6017 -0.5019 -0.3818
 8383TIP3   OH249343   5.548   5.273  11.657  0.0830 -0.5400 -0.0535
 8383TIP3    H149344   5.574   5.184  11.682 -1.7529 -1.6156 -1.6830
 8383TIP3    H249345   5.552   5.273  11.562 -2.4424  0.2557 -0.2270
 8384TIP3   OH249346   0.101   3.199  12.244 -0.4548  0.0724  0.2495
 8384TIP3    H149347   0.098   3.147  12.164 -1.2098  1.5471 -0.7185
 8384TIP3    H249348   0.028   3.260  12.236  0.9641  1.9393  0.8857
 8385TIP3   OH249349   8.247   1.222  10.735 -0.2341  0.3195  0.3575
 8385TIP3    H149350   8.219   1.288  10.673 -1.2681 -1.6462 -1.4028
 8385TIP3    H249351   8.172   1.210  10.793 -0.8662 -0.6930 -0.6158
 8386TIP3   OH249352   3.310   6.287  11.116  0.7526 -0.8500  0.1049
 8386TIP3    H149353   3.402   6.307  11.100  0.8680 -0.3236  1.3333
 8386TIP3    H249354   3.301   6.287  11.211 -0.8567  0.6836  0.0158
 8387TIP3   OH249355   0.975   1.453  10.610  0.0931  0.1880 -0.3950
 8387TIP3    H149356   1.025   1.444  10.691  0.9630  0.2741 -0.9109
 8387TIP3    H249357   0.925   1.372  10.603  1.0610 -0.4132 -0.4695
 8388TIP3   OH249358   1.186   7.119  11.701  0.4119  0.2634 -1.0438
 8388TIP3    H149359   1.124   7.046  11.694 -0.2413  0.6001  0.6668
 8388TIP3    H249360   1.165   7.176  11.627 -1.0264  0.1323 -0.7629
 8389TIP3   OH249361   3.990   1.147  12.127 -0.3589  0.2526 -0.0114
 8389TIP3    H149362   3.926   1.183  12.188 -0.5501 -2.5440  1.6114
 8389TIP3    H249363   4.074   1.159  12.171 -0.1058  1.0448 -0.6836
 8390TIP3   OH249364   2.786   7.729  10.363 -0.8583 -0.0457  0.7070
 8390TIP3    H149365   2.836   7.648  10.352 -0.6509  0.0999  0.5639
 8390TIP3    H249366   2.849   7.792  10.399 -0.2077  0.8811 -1.8243
 8391TIP3   OH249367   4.330   8.412  12.032 -0.2922 -0.2933 -0.2974
 8391TIP3    H149368   4.381   8.374  11.960 -0.1778  0.0421 -0.3954
 8391TIP3    H249369   4.240   8.413  12.000 -0.2916 -0.4624 -0.3034
 8392TIP3   OH249370   2.899   7.072  12.517  0.4609 -0.8212  0.0523
 8392TIP3    H149371   2.808   7.060  12.545 -0.1304 -0.1813 -1.4408
 8392TIP3    H249372   2.892   7.124  12.437  2.1697 -0.6127  0.0026
 8393TIP3   OH249373   8.202   4.023  12.425 -0.0053 -0.8153  0.0730
 8393TIP3    H149374   8.196   4.036  12.520 -2.2347 -0.8869 -0.0061
 8393TIP3    H249375   8.294   4.003  12.410  0.6312  0.3147  2.0647
 8394TIP3   OH249376   1.262   1.563  11.017  0.0256 -0.0873 -0.7743
 8394TIP3    H149377   1.224   1.592  11.100  1.5560  1.4205 -0.5546
 8394TIP3    H249378   1.346   1.524  11.041  2.1592  3.4293 -1.7468
 8395TIP3   OH249379   8.098   6.686  12.932 -0.0672 -0.8987  0.1349
 8395TIP3    H149380   8.161   6.731  12.877 -0.1424 -2.3689 -1.2281
 8395TIP3    H249381   8.081   6.747  13.004  2.4481 -0.2147  0.2491
 8396TIP3   OH249382   7.976   1.449  11.899 -0.3330  0.1454  0.1103
 8396TIP3    H149383   8.036   1.411  11.835 -0.8815 -0.4812 -0.0453
 8396TIP3    H249384   7.994   1.543  11.897  0.7086 -0.0432  0.1404
 8397TIP3   OH249385   2.294   5.866  11.655  0.5942 -0.0682  0.0347
 8397TIP3    H149386   2.352   5.900  11.586 -0.4464 -3.7820 -3.0487
 8397TIP3    H249387   2.352   5.814  11.711  0.9457  0.0740 -0.1917
 8398TIP3   OH249388   2.004   7.580  11.011  0.3845 -0.6506  0.3674
 8398TIP3    H149389   2.092   7.582  10.971  0.3297  1.1367  0.2624
 8398TIP3    H249390   1.946   7.556  10.939  0.5638  0.2823 -0.1101
 8399TIP3   OH249391   8.302   5.402  11.073 -0.6089 -0.3290 -0.6068
 8399TIP3    H149392   8.295   5.400  11.168 -1.7274 -0.6267 -0.6870
 8399TIP3    H249393   8.333   5.314  11.049  0.7795  0.0878 -0.4628
 8400TIP3   OH249394   7.234   5.668  12.271  0.7978  0.3984  0.3188
 8400TIP3    H149395   7.150   5.699  12.303  0.9896 -0.8891  2.1866
 8400TIP3    H249396   7.243   5.580  12.306  3.0366  0.5892  0.3784
 8401TIP3   OH249397   7.766   1.580  11.312 -0.1091 -0.0016  0.2233
 8401TIP3    H149398   7.709   1.656  11.323 -0.5748 -0.1015 -1.3054
 8401TIP3    H249399   7.709   1.511  11.279  1.0087  0.2088 -2.3884
 8402TIP3   OH249400   5.168   5.280  11.280 -0.0526 -0.3435  0.1033
 8402TIP3    H149401   5.252   5.251  11.243  0.2863  1.2221 -0.4092
 8402TIP3    H249402   5.104   5.254  11.214 -0.2893 -3.1859  1.2825
 8403TIP3   OH249403   5.538   3.630  10.976 -0.3378  0.5171 -0.4347
 8403TIP3    H149404   5.537   3.688  11.051 -0.1373 -0.0183 -0.0105
 8403TIP3    H249405   5.631   3.608  10.964 -0.4379  0.0747 -0.4249
 8404TIP3   OH249406   5.385   3.054  12.298 -0.5759  0.2651 -0.0820
 8404TIP3    H149407   5.439   2.999  12.355  1.7586  0.3598 -2.0386
 8404TIP3    H249408   5.320   3.093  12.357  0.8611 -0.6249  2.2514
 8405TIP3   OH249409   1.167   4.584  11.383 -0.2618 -0.6642  0.3638
 8405TIP3    H149410   1.186   4.499  11.345  0.5917 -0.0896 -0.5448
 8405TIP3    H249411   1.163   4.644  11.308 -1.4963 -0.0121  0.9298
 8406TIP3   OH249412   3.023   6.272  11.221  0.1528  0.0436  0.2984
 8406TIP3    H149413   3.081   6.239  11.152 -1.4481 -0.4201 -0.9018
 8406TIP3    H249414   3.055   6.360  11.239  0.0298  0.5812 -1.7979
 8407TIP3   OH249415   2.714   0.546  11.200  0.1687 -0.3349 -0.2594
 8407TIP3    H149416   2.626   0.543  11.162  0.3635 -0.0262 -0.7466
 8407TIP3    H249417   2.773   0.530  11.126  0.5351 -0.2617  0.0113
 8408TIP3   OH249418   2.515   2.183  11.621 -0.2425  0.1615 -0.9750
 8408TIP3    H149419   2.596   2.220  11.657 -0.2066 -0.5787 -0.2869
 8408TIP3    H249420   2.461   2.260  11.601  0.1153  0.6173 -0.2437
 8409TIP3   OH249421   0.801   4.062  11.618 -0.6176 -0.4084  0.3616
 8409TIP3    H149422   0.822   4.126  11.550 -1.1170  0.0872  0.6696
 8409TIP3    H249423   0.712   4.084  11.646 -0.6485 -0.9913  0.7501
 8410TIP3   OH249424   7.262   6.440  12.882  0.9851  0.0154 -0.3429
 8410TIP3    H149425   7.192   6.380  12.907 -0.7160  1.1775 -2.0924
 8410TIP3    H249426   7.332   6.383  12.850 -0.8258 -1.1296 -2.5612
 8411TIP3   OH249427   0.267   0.334  11.474 -0.5755 -0.1700 -0.1380
 8411TIP3    H149428   0.237   0.319  11.563 -0.3439 -0.9731 -0.1806
 8411TIP3    H249429   0.344   0.277  11.465  0.9913  1.8348 -0.0277
 8412TIP3   OH249430   5.408   7.433  10.543  0.3041 -0.0210  0.3236
 8412TIP3    H149431   5.314   7.450  10.545  0.6406  2.2693 -0.3674
 8412TIP3    H249432   5.418   7.345  10.580 -2.1598 -0.6386 -0.3476
 8413TIP3   OH249433   0.205   0.793  11.867 -0.5753 -0.5350 -0.2356
 8413TIP3    H149434   0.260   0.737  11.922  1.0250 -0.2049 -1.4461
 8413TIP3    H249435   0.118   0.789  11.908 -0.2268 -2.9172  0.4061
 8414TIP3   OH249436   8.313   2.814  12.740  0.2007 -0.0314 -0.3136
 8414TIP3    H149437   8.408   2.824  12.753 -0.0776  2.9178  0.1238
 8414TIP3    H249438   8.305   2.783  12.650  1.5505 -1.7147  0.0677
 8415TIP3   OH249439   4.794   7.717  11.571 -0.1634 -0.1242  0.0734
 8415TIP3    H149440   4.834   7.802  11.590 -1.9110  0.6340  0.6276
 8415TIP3    H249441   4.819   7.661  11.645  0.4421  0.1118  0.0493
 8416TIP3   OH249442   2.322   5.865  12.004 -0.1410 -0.7196 -0.3375
 8416TIP3    H149443   2.271   5.786  12.018 -1.4897  0.4074  1.4414
 8416TIP3    H249444   2.413   5.836  12.014 -0.5138 -2.2407 -0.9606
 8417TIP3   OH249445   7.371   0.271  11.161 -0.5440 -0.2852  0.2862
 8417TIP3    H149446   7.410   0.337  11.105 -2.2053  0.2814 -0.2505
 8417TIP3    H249447   7.439   0.203  11.169  0.6177  0.7659 -0.3762
 8418TIP3   OH249448   1.215   0.027  11.920 -0.8934  0.0135 -0.0984
 8418TIP3    H149449   1.257  -0.058  11.903 -2.2805 -0.8105  0.3982
 8418TIP3    H249450   1.255   0.086  11.856  1.8819 -0.3886  1.1234
 8419TIP3   OH249451   1.202   3.688  11.102  0.4568  0.2990  0.1998
 8419TIP3    H149452   1.272   3.660  11.041 -0.7158 -0.6514 -0.7734
 8419TIP3    H249453   1.239   3.672  11.189  1.3340 -0.5571 -0.2994
 8420TIP3   OH249454   2.352   4.805  11.489 -0.0221 -0.2175  0.0171
 8420TIP3    H149455   2.350   4.767  11.577 -1.3437  0.8443  0.4805
 8420TIP3    H249456   2.279   4.867  11.488  1.4208  1.5764 -1.0378
 8421TIP3   OH249457   4.547   7.218  11.285 -0.3125 -0.7721  0.2913
 8421TIP3    H149458   4.509   7.171  11.359  0.2826 -0.9194  0.5085
 8421TIP3    H249459   4.501   7.302  11.283  0.3770 -0.3413  1.4773
 8422TIP3   OH249460   3.280   2.701  10.965 -0.3734  0.1091  0.6853
 8422TIP3    H149461   3.202   2.693  10.910 -0.4217  1.7268  0.4742
 8422TIP3    H249462   3.286   2.617  11.010 -4.2797  0.9687  3.3956
 8423TIP3   OH249463   2.008   5.004  12.000  0.1467 -0.7584  0.3139
 8423TIP3    H149464   2.089   4.952  11.998  1.1978  0.8315 -0.8221
 8423TIP3    H249465   2.023   5.070  12.068  1.0085  1.2852 -1.7586
 8424TIP3   OH249466   2.833   1.227  11.111 -0.0977  0.2523 -0.1941
 8424TIP3    H149467   2.909   1.230  11.169 -0.3440  0.5206  0.1176
 8424TIP3    H249468   2.837   1.139  11.072  2.0861  1.2537 -2.5341
 8425TIP3   OH249469   1.116   8.329  12.258 -0.0422  0.7152 -0.3447
 8425TIP3    H149470   1.072   8.352  12.176  0.1036  0.5168 -0.4799
 8425TIP3    H249471   1.190   8.275  12.231 -1.7257 -1.9948  0.0732
 8426TIP3   OH249472   2.164   6.949  11.301 -0.4925 -0.6850 -0.2259
 8426TIP3    H149473   2.094   6.950  11.235 -0.3061 -1.2801 -0.4439
 8426TIP3    H249474   2.245   6.950  11.250 -0.3215  0.6608  0.0359
 8427TIP3   OH249475   4.507   1.263  10.906  0.4666  0.3597  0.7866
 8427TIP3    H149476   4.528   1.300  10.821 -2.3971 -2.8995 -1.6039
 8427TIP3    H249477   4.427   1.307  10.933 -1.1894 -1.6658 -0.5543
 8428TIP3   OH249478   3.230   6.667  10.231  0.4881 -0.3948  0.2205
 8428TIP3    H149479   3.150   6.688  10.278  0.2293 -0.8922  0.0182
 8428TIP3    H249480   3.244   6.741  10.172  0.1154 -0.3501  0.1853
 8429TIP3   OH249481   1.006   7.085  10.633  0.4070  0.6434  0.0061
 8429TIP3    H149482   1.017   7.063  10.540 -0.6026 -0.2458  0.0797
 8429TIP3    H249483   1.072   7.031  10.678  0.2505  0.3497 -0.1145
 8430TIP3   OH249484   7.351   4.281  11.008 -0.0599 -0.0962 -0.9531
 8430TIP3    H149485   7.299   4.278  11.088  0.3735  1.8365 -0.5513
 8430TIP3    H249486   7.372   4.189  10.990 -1.8484 -0.7445 -0.0020
 8431TIP3   OH249487   7.436   3.380  12.015  0.2158 -0.5260 -0.3117
 8431TIP3    H149488   7.406   3.414  12.100  0.2541  0.9717 -0.8794
 8431TIP3    H249489   7.409   3.288  12.016 -2.6083  0.2328  0.0465
 8432TIP3   OH249490   5.499   1.359  12.078  0.4726  0.1890  0.1074
 8432TIP3    H149491   5.529   1.426  12.139 -0.8466 -0.0637  1.0922
 8432TIP3    H249492   5.403   1.362  12.085  0.2550  0.4737 -2.3429
 8433TIP3   OH249493   4.076   7.887  12.273 -0.1909  0.3073  0.1682
 8433TIP3    H149494   4.086   7.902  12.179 -0.8819  0.2125  0.0721
 8433TIP3    H249495   4.025   7.961  12.304 -1.4369 -0.4985  0.1469
 8434TIP3   OH249496   7.166   2.389  10.806 -0.4289  0.9110  0.1075
 8434TIP3    H149497   7.127   2.420  10.887 -1.7244  1.8849 -0.8432
 8434TIP3    H249498   7.091   2.369  10.749  0.4195  2.2107 -1.5619
 8435TIP3   OH249499   7.006   1.525  10.663  0.1733 -0.3615 -0.1521
 8435TIP3    H149500   7.012   1.447  10.718  1.7007  0.5019  0.9765
 8435TIP3    H249501   7.095   1.560  10.662 -0.4218  1.1909 -0.9071
 8436TIP3   OH249502   8.404   6.605  12.115 -0.0769 -0.5028  0.0769
 8436TIP3    H149503   8.453   6.593  12.196  0.9474 -1.3520 -0.6379
 8436TIP3    H249504   8.471   6.615  12.047 -0.9195  0.8759 -0.5838
 8437TIP3   OH249505   4.279   6.282  12.371 -0.0883 -0.8657 -0.2597
 8437TIP3    H149506   4.261   6.188  12.377 -1.2781 -0.6893 -0.7516
 8437TIP3    H249507   4.243   6.308  12.287  0.7981 -0.0754 -0.4117
 8438TIP3   OH249508   6.504   6.209  12.004  0.0483 -0.0141  0.0354
 8438TIP3    H149509   6.551   6.199  12.087  0.3625 -1.0612 -0.2571
 8438TIP3    H249510   6.511   6.302  11.983 -2.7388  0.9801  2.7652
 8439TIP3   OH249511   5.661   7.966  10.595 -0.1396 -0.0367  0.1443
 8439TIP3    H149512   5.633   7.875  10.591  1.7963 -0.6394 -2.1534
 8439TIP3    H249513   5.640   8.001  10.509  0.0545  1.4121  0.6593
 8440TIP3   OH249514   2.870   6.484  10.747  0.5801  0.3457 -0.2911
 8440TIP3    H149515   2.965   6.489  10.739  0.5862 -1.3308 -2.1304
 8440TIP3    H249516   2.838   6.492  10.657 -0.9601  0.1432  0.2085
 8441TIP3   OH249517   8.422   2.661  12.545  0.4744  0.1918  0.0380
 8441TIP3    H149518   8.417   2.586  12.606 -0.1199  2.0994  2.5154
 8441TIP3    H249519   8.489   2.717  12.582  1.4412  0.6098 -2.2090
 8442TIP3   OH249520   5.636   7.346  10.270  0.1610  0.3831 -0.7733
 8442TIP3    H149521   5.556   7.398  10.275  0.0628  0.1110  1.9519
 8442TIP3    H249522   5.706   7.408  10.288  0.3796  0.2296 -1.0877
 8443TIP3   OH249523   4.676   4.583  11.311  0.2609  0.4611  0.3646
 8443TIP3    H149524   4.702   4.494  11.337 -2.2535 -0.5304 -0.2461
 8443TIP3    H249525   4.647   4.573  11.220 -1.3100  1.6262  0.7083
 8444TIP3   OH249526   4.916   1.257  11.339 -0.0685  0.3595 -0.0086
 8444TIP3    H149527   4.995   1.280  11.289 -1.4310  0.9656 -1.9873
 8444TIP3    H249528   4.895   1.337  11.387 -0.2399  0.6553 -0.5661
 8445TIP3   OH249529   5.153   7.913  11.814  0.6060 -0.5182 -0.0302
 8445TIP3    H149530   5.134   7.877  11.727  1.8219  0.0981 -0.5704
 8445TIP3    H249531   5.181   8.003  11.798  0.8807 -0.4011  1.0042
 8446TIP3   OH249532   2.187   0.624  11.022 -0.2216 -0.4585  0.0996
 8446TIP3    H149533   2.269   0.578  11.037 -0.0518 -0.5123 -0.9520
 8446TIP3    H249534   2.198   0.668  10.938 -1.6236 -1.2875 -0.5493
 8447TIP3   OH249535   2.429   2.762  12.935 -0.4322 -0.4097 -0.3424
 8447TIP3    H149536   2.368   2.689  12.942 -0.7746 -0.2660 -1.5948
 8447TIP3    H249537   2.374   2.838  12.922 -0.2184  0.4832  3.0142
 8448TIP3   OH249538   2.799   4.803  12.518  0.0296 -0.0818 -0.1828
 8448TIP3    H149539   2.711   4.841  12.521 -0.1101 -0.1452 -2.0643
 8448TIP3    H249540   2.786   4.716  12.480  0.6512 -1.0761  1.7928
 8449TIP3   OH249541   3.214   1.828  10.447 -0.1021  0.0701  0.2298
 8449TIP3    H149542   3.129   1.808  10.407 -0.6487  2.8873 -0.2713
 8449TIP3    H249543   3.200   1.913  10.490  2.5999  0.9159 -0.3841
 8450TIP3   OH249544   5.313   5.385  11.768 -0.0373 -0.4289  0.3256
 8450TIP3    H149545   5.403   5.368  11.742  0.2239  1.0541  0.1824
 8450TIP3    H249546   5.261   5.364  11.690  0.0971 -1.7665  0.5629
 8451TIP3   OH249547   0.762   0.758  12.428 -0.1963  0.2025  0.6899
 8451TIP3    H149548   0.853   0.783  12.443  0.5472 -1.6448 -0.3609
 8451TIP3    H249549   0.760   0.663  12.441 -1.9037  0.1569  0.3911
 8452TIP3   OH249550   7.988   7.538  10.862  0.3792  0.7607  1.2524
 8452TIP3    H149551   8.037   7.616  10.836  0.0408  1.3702  2.3635
 8452TIP3    H249552   7.898   7.569  10.873 -0.1955 -0.2377 -0.2799
 8453TIP3   OH249553   3.549   6.480  10.657 -0.5148 -0.1939  0.3306
 8453TIP3    H149554   3.504   6.462  10.574 -0.4689 -0.0188  0.2664
 8453TIP3    H249555   3.639   6.449  10.642 -0.7169 -0.9364  0.6027
 8454TIP3   OH249556   8.283   1.984  11.382  0.4501 -0.3523 -0.2896
 8454TIP3    H149557   8.307   1.986  11.475  1.2437 -1.6464 -0.4515
 8454TIP3    H249558   8.198   2.029  11.379 -0.0830 -1.1834  1.2171
 8455TIP3   OH249559   3.109   6.347  10.542  0.7807 -0.5640 -0.3667
 8455TIP3    H149560   3.150   6.425  10.579 -2.2552  0.4012  1.2607
 8455TIP3    H249561   3.127   6.278  10.607  0.6034 -0.3764 -0.1171
 8456TIP3   OH249562   6.462   5.086  10.183  0.2013 -0.5705 -0.0369
 8456TIP3    H149563   6.383   5.086  10.237  0.2721  1.4043  0.1431
 8456TIP3    H249564   6.446   5.018  10.117 -0.8909 -1.3801  1.0121
 8457TIP3   OH249565   7.966   6.663  12.680  0.1267  0.0491  0.3563
 8457TIP3    H149566   7.948   6.756  12.696 -1.3861 -0.3298  1.0734
 8457TIP3    H249567   8.011   6.633  12.759  0.5098  0.1468  0.1748
 8458TIP3   OH249568   7.217   0.373  12.501 -0.0411  0.1263 -0.1124
 8458TIP3    H149569   7.130   0.335  12.515 -0.1968 -0.0195 -1.3993
 8458TIP3    H249570   7.272   0.329  12.566 -1.1423  1.1073  1.5639
 8459TIP3   OH249571   0.499   5.678  12.423 -0.3797  0.0554  0.5621
 8459TIP3    H149572   0.461   5.621  12.357  0.6888  0.5905 -0.5513
 8459TIP3    H249573   0.576   5.630  12.455 -1.1295 -0.3905  1.7542
 8460TIP3   OH249574   4.513   5.096  10.976  0.0573 -0.3266  0.0072
 8460TIP3    H149575   4.482   5.012  10.940 -2.5626 -0.0959  1.4698
 8460TIP3    H249576   4.490   5.092  11.068  3.1187  0.6453  0.9288
 8461TIP3   OH249577   2.164   7.648  11.272 -0.2998 -0.0102 -0.1252
 8461TIP3    H149578   2.177   7.554  11.290 -0.6802 -0.4567 -1.9743
 8461TIP3    H249579   2.244   7.675  11.227  0.9674  1.2630  2.6752
 8462TIP3   OH249580   2.036   3.349  12.308  0.1725 -0.0842  0.1456
 8462TIP3    H149581   2.035   3.418  12.242 -1.3712 -1.3084 -1.2187
 8462TIP3    H249582   1.952   3.358  12.352  1.1413  0.6370  1.9153
 8463TIP3   OH249583   2.054   5.965  11.547 -0.1412 -0.2739 -0.4118
 8463TIP3    H149584   2.057   6.059  11.531 -1.8915  0.0250  0.7939
 8463TIP3    H249585   2.135   5.947  11.597 -0.0565  0.6868 -0.1843
 8464TIP3   OH249586   3.834   8.324  10.667  0.8578 -0.2232  0.5284
 8464TIP3    H149587   3.822   8.395  10.604 -0.3615 -1.9051 -1.2277
 8464TIP3    H249588   3.909   8.275  10.635 -0.4858 -1.7867 -0.4116
 8465TIP3   OH249589   2.590   4.709  11.353 -0.0972  0.4399  0.0120
 8465TIP3    H149590   2.650   4.655  11.405 -1.3814 -0.4315  0.6599
 8465TIP3    H249591   2.520   4.733  11.414  0.8638  3.6965  0.0172
 8466TIP3   OH249592   8.133   4.680  10.785  0.3638 -0.0544 -0.2181
 8466TIP3    H149593   8.127   4.628  10.705  0.2042  0.8448 -0.8070
 8466TIP3    H249594   8.043   4.707  10.803  0.3507 -0.4969  0.4520
 8467TIP3   OH249595   8.210   1.993  11.107  0.3126 -0.7541 -0.3049
 8467TIP3    H149596   8.242   1.909  11.139 -0.4025 -1.4706 -1.3963
 8467TIP3    H249597   8.269   2.058  11.145 -0.1454 -1.5760  1.9415
 8468TIP3   OH249598   0.646   2.708  11.753  0.3530 -0.0508  0.6551
 8468TIP3    H149599   0.696   2.731  11.831  0.3515 -1.2861  1.0508
 8468TIP3    H249600   0.556   2.695  11.785  0.6131 -1.9619  0.7638
 8469TIP3   OH249601   8.260   6.814  12.726  0.5191 -0.1072 -0.0925
 8469TIP3    H149602   8.327   6.778  12.668  1.3134  1.5701 -0.2979
 8469TIP3    H249603   8.213   6.877  12.672 -2.6342 -2.6070 -0.5444
 8470TIP3   OH249604   5.542   7.006  11.732 -0.0659 -0.2621 -0.1072
 8470TIP3    H149605   5.469   6.977  11.787 -0.1028  1.3201  0.7544
 8470TIP3    H249606   5.604   7.044  11.794  0.8486 -0.3028 -0.9739
 8471TIP3   OH249607   7.044   5.069  11.360  0.2663  0.1244 -0.5809
 8471TIP3    H149608   6.984   5.064  11.434 -0.1861 -0.4750 -0.9792
 8471TIP3    H249609   7.042   5.161  11.334 -0.0183  0.2246 -0.2187
 8472TIP3   OH249610   3.335   5.441  12.106  0.5356  0.4079  0.6001
 8472TIP3    H149611   3.256   5.463  12.155 -0.5589  0.3287 -1.0495
 8472TIP3    H249612   3.344   5.346  12.117 -1.3007 -0.1129 -1.4553
 8473TIP3   OH249613   8.271   3.086  12.672  0.0371 -0.7473  0.1056
 8473TIP3    H149614   8.227   3.111  12.754 -0.0875  0.4030 -0.2928
 8473TIP3    H249615   8.290   2.993  12.683 -1.1062 -0.9131  0.9297
 8474TIP3   OH249616   1.115   2.622  10.651  0.0683 -0.3647  0.1865
 8474TIP3    H149617   1.121   2.527  10.663 -0.2232 -0.2327  1.5837
 8474TIP3    H249618   1.198   2.655  10.684 -0.2700 -0.0602  0.7442
 8475TIP3   OH249619   4.286   0.346  12.491 -0.3856  0.1487 -0.4225
 8475TIP3    H149620   4.242   0.297  12.422  0.4413  0.4485 -1.1691
 8475TIP3    H249621   4.217   0.403  12.527 -1.0818 -0.7724 -0.2674
 8476TIP3   OH249622   7.739   5.107  11.528  0.4904  0.2078  0.1967
 8476TIP3    H149623   7.691   5.109  11.611  1.7360 -0.4680  0.9602
 8476TIP3    H249624   7.746   5.014  11.507  3.8661  0.0094  1.5890
 8477TIP3   OH249625   6.439   4.226  11.866 -0.2440 -0.2262  0.9295
 8477TIP3    H149626   6.422   4.307  11.819 -0.0632 -0.8140 -0.1807
 8477TIP3    H249627   6.434   4.157  11.799  0.1803 -1.0723  1.7341
 8478TIP3   OH249628   7.544   0.577  10.757  0.3265 -0.3263  0.4103
 8478TIP3    H149629   7.468   0.595  10.701  1.0953 -0.4116 -0.6751
 8478TIP3    H249630   7.613   0.633  10.723  0.8121 -0.3740  1.2876
 8479TIP3   OH249631   6.125   1.289  11.733  0.6648  0.1388 -0.6235
 8479TIP3    H149632   6.204   1.270  11.784 -0.7667 -0.2844  1.5679
 8479TIP3    H249633   6.106   1.207  11.686  0.5804 -0.3239  0.2048
 8480TIP3   OH249634   3.699   2.753  11.140 -0.1099  0.1227  0.4281
 8480TIP3    H149635   3.736   2.671  11.172  0.6356 -0.1060 -0.9626
 8480TIP3    H249636   3.628   2.773  11.202 -0.4207 -1.6558  0.6999
 8481TIP3   OH249637   4.885   4.201  12.628 -0.1115 -0.3191  0.2844
 8481TIP3    H149638   4.801   4.171  12.665  0.5864 -1.1623  1.2481
 8481TIP3    H249639   4.895   4.290  12.661 -1.7149  0.7053 -1.7629
 8482TIP3   OH249640   3.988   4.869  11.197  0.1013 -0.1124 -0.5009
 8482TIP3    H149641   3.962   4.821  11.118 -2.0164  1.0770 -0.5698
 8482TIP3    H249642   3.983   4.961  11.172  1.2927  0.2525  0.4948
 8483TIP3   OH249643   2.899   5.654  10.617  0.5907  0.3735 -0.4412
 8483TIP3    H149644   2.886   5.738  10.572  1.4512 -0.0020 -1.4257
 8483TIP3    H249645   2.994   5.648  10.630  0.5959 -0.6836 -0.8688
 8484TIP3   OH249646   5.897   4.173  12.321 -0.3159  0.1765 -0.5714
 8484TIP3    H149647   5.964   4.116  12.359 -1.2472 -0.8051 -0.3817
 8484TIP3    H249648   5.947   4.241  12.276  0.8119 -0.1710  0.1073
 8485TIP3   OH249649   0.775   8.385  10.829 -0.0354  0.2783 -0.3719
 8485TIP3    H149650   0.824   8.401  10.748  1.0359  0.5853  0.3127
 8485TIP3    H249651   0.708   8.453  10.830 -0.1862  0.1484 -1.0980
 8486TIP3   OH249652   6.650   5.110  11.817  0.2185  0.0866 -0.7092
 8486TIP3    H149653   6.736   5.084  11.852 -0.6035 -0.7373  0.7906
 8486TIP3    H249654   6.669   5.187  11.763  1.6685  1.0870  1.0994
 8487TIP3   OH249655   3.208   1.636  11.164  0.1891  0.7123  0.0414
 8487TIP3    H149656   3.270   1.637  11.091 -0.5356 -0.4850 -0.6373
 8487TIP3    H249657   3.240   1.569  11.223 -0.2851  0.2895 -0.1696
 8488TIP3   OH249658   1.516   0.880  11.688 -0.0855  0.1224  0.2469
 8488TIP3    H149659   1.544   0.923  11.607  1.1793 -0.9632  0.0773
 8488TIP3    H249660   1.422   0.867  11.676  0.1165 -0.2324 -1.1533
 8489TIP3   OH249661   7.854   2.766  10.998  0.2438 -0.2439 -0.5780
 8489TIP3    H149662   7.831   2.840  10.941 -0.7200 -0.7140 -0.8305
 8489TIP3    H249663   7.892   2.806  11.075  0.4501  0.4759 -1.0452
 8490TIP3   OH249664   5.320   3.940  11.355 -0.1890 -0.4203 -0.1941
 8490TIP3    H149665   5.242   3.892  11.327 -1.3960  0.9884  0.6023
 8490TIP3    H249666   5.311   4.027  11.314  0.5753  0.0067  0.5079
 8491TIP3   OH249667   7.262   3.863  11.147 -0.2228  0.2531  0.1743
 8491TIP3    H149668   7.258   3.770  11.168 -2.9109 -0.1143 -1.5349
 8491TIP3    H249669   7.180   3.899  11.179  0.3222  1.8533 -0.1158
 8492TIP3   OH249670   5.111   2.116  11.944  0.5792  0.6307  0.1119
 8492TIP3    H149671   5.154   2.045  11.895  0.2005  0.4887 -0.0146
 8492TIP3    H249672   5.027   2.128  11.900 -0.3887 -0.4812  1.5988
 8493TIP3   OH249673   3.262   4.616  12.279 -0.0353  0.0779 -0.4346
 8493TIP3    H149674   3.344   4.595  12.324  1.8702 -0.7780 -3.9756
 8493TIP3    H249675   3.267   4.710  12.263  0.9609 -0.1728 -1.7725
 8494TIP3   OH249676   3.806   6.667  10.942  0.0722  0.0086  0.0506
 8494TIP3    H149677   3.731   6.608  10.934 -0.0205  0.1829 -0.4173
 8494TIP3    H249678   3.845   6.667  10.855  0.5241  0.0421  0.2525
 8495TIP3   OH249679   6.995   7.628  10.808 -0.1614  0.0268  0.3506
 8495TIP3    H149680   7.000   7.608  10.901 -2.1616  2.3086  1.0340
 8495TIP3    H249681   6.902   7.619  10.786  0.0733  0.8465 -1.0994
 8496TIP3   OH249682   3.554   5.452  11.798 -0.1613  0.4481  0.4129
 8496TIP3    H149683   3.589   5.378  11.846 -0.1069 -0.1008 -0.4541
 8496TIP3    H249684   3.616   5.523  11.814  0.3923 -0.0123  0.3433
 8497TIP3   OH249685   8.375   7.263  10.612 -0.5306 -0.2421  0.0798
 8497TIP3    H149686   8.432   7.194  10.646  1.0556  1.0285  0.1607
 8497TIP3    H249687   8.307   7.274  10.678  0.5561 -0.1372  1.2122
 8498TIP3   OH249688   5.752   5.745  11.398  0.0371  0.0448  0.1356
 8498TIP3    H149689   5.805   5.678  11.439  0.1363  0.1141  0.1204
 8498TIP3    H249690   5.663   5.708  11.397  0.0744 -0.0474  0.2096
 8499TIP3   OH249691   3.460   1.954  12.631 -1.1344 -0.0095  0.1543
 8499TIP3    H149692   3.431   2.022  12.692 -0.2416  1.9191 -1.4501
 8499TIP3    H249693   3.383   1.934  12.578 -0.6265  2.3799 -1.6442
 8500TIP3   OH249694   2.469   2.598  12.292 -0.1619 -0.0020  0.0958
 8500TIP3    H149695   2.546   2.583  12.237 -0.8144  0.2344 -0.9018
 8500TIP3    H249696   2.446   2.511  12.324  0.1723 -0.1606 -0.0888
 8501TIP3   OH249697   0.103   3.757  11.155 -0.1987  0.3315 -0.3720
 8501TIP3    H149698   0.140   3.695  11.092 -1.7260  1.5926 -2.6641
 8501TIP3    H249699   0.012   3.728  11.166 -1.2112  2.5418 -2.1830
 8502TIP3   OH249700   5.950   1.481  10.815  0.3235  0.1511  0.3410
 8502TIP3    H149701   5.981   1.552  10.871  1.9300 -2.0970  2.5350
 8502TIP3    H249702   5.999   1.493  10.733  1.2485  1.0845  0.9987
 8503TIP3   OH249703   5.697   4.138  11.824  0.0757 -0.0733 -0.2497
 8503TIP3    H149704   5.781   4.120  11.866 -0.9232 -1.5785  1.2406
 8503TIP3    H249705   5.664   4.217  11.866  1.3377  1.3776 -1.8593
 8504TIP3   OH249706   3.936   7.259  10.974  0.3642 -0.5735 -0.4533
 8504TIP3    H149707   3.894   7.228  11.054  1.5619  1.5278  1.1036
 8504TIP3    H249708   3.880   7.331  10.944  0.0307 -1.2207 -1.4309
 8505TIP3   OH249709   3.980   4.317  12.315 -0.2291 -0.4361 -0.4142
 8505TIP3    H149710   3.966   4.391  12.375 -1.1315 -1.9741  1.4158
 8505TIP3    H249711   3.998   4.357  12.230  0.1444  1.8659  0.6741
 8506TIP3   OH249712   3.485   7.266  12.719 -0.1401  0.2561 -0.0329
 8506TIP3    H149713   3.564   7.241  12.766  0.9370  0.1757 -1.8184
 8506TIP3    H249714   3.436   7.184  12.708  0.5831 -0.0840 -0.7990
 8507TIP3   OH249715   5.530   1.898  10.826  0.0517 -0.3558  0.0012
 8507TIP3    H149716   5.549   1.804  10.833  0.3768 -0.2732  0.2707
 8507TIP3    H249717   5.434   1.903  10.819 -0.0712 -0.6480  1.1963
 8508TIP3   OH249718   0.959   2.160  12.012  0.1065  0.2243  0.4487
 8508TIP3    H149719   0.950   2.174  12.106 -1.6230  2.4716  0.0281
 8508TIP3    H249720   0.940   2.067  12.000 -0.5876  0.0972  2.2107
 8509TIP3   OH249721   0.454   3.057  11.804  0.2385  0.3490 -0.1945
 8509TIP3    H149722   0.423   3.033  11.717  0.9696 -0.3235 -0.2862
 8509TIP3    H249723   0.379   3.100  11.846 -0.8196 -1.2387 -0.3819
 8510TIP3   OH249724   2.708   4.560  11.956  0.2973 -0.3711  0.0322
 8510TIP3    H149725   2.650   4.631  11.981  0.1030 -0.0599 -1.2221
 8510TIP3    H249726   2.755   4.592  11.879 -0.3353 -1.8445 -1.0273
 8511TIP3   OH249727   8.376   2.605  12.086  0.1974  0.3191 -0.0774
 8511TIP3    H149728   8.367   2.663  12.162  0.6258 -1.1146  1.0987
 8511TIP3    H249729   8.470   2.605  12.067  0.3941 -0.9569  0.7527
 8512TIP3   OH249730   5.121   1.683  12.674  0.2503 -0.3152 -0.1768
 8512TIP3    H149731   5.116   1.719  12.763 -0.4490  0.9808 -0.7030
 8512TIP3    H249732   5.215   1.672  12.658  0.5297  1.5495 -0.0557
 8513TIP3   OH249733   3.344   7.751  12.563  0.7773  0.2461  0.4460
 8513TIP3    H149734   3.273   7.750  12.498  1.9938 -1.4957 -0.9806
 8513TIP3    H249735   3.346   7.662  12.598  2.1483  0.2909  0.5507
 8514TIP3   OH249736   1.974   6.291  10.506 -0.2949 -0.6814 -0.4069
 8514TIP3    H149737   1.913   6.365  10.498  0.6047  0.1137 -0.0943
 8514TIP3    H249738   1.941   6.239  10.579 -0.9596 -0.6164 -0.6566
 8515TIP3   OH249739   4.001   5.728  12.171 -0.0196  0.0623 -0.5344
 8515TIP3    H149740   3.980   5.776  12.251 -0.4158  0.1235 -0.6776
 8515TIP3    H249741   4.040   5.646  12.203 -2.0739 -0.8439 -0.2092
 8516TIP3   OH249742   5.742   1.579  11.291  0.0295 -0.1429  0.2423
 8516TIP3    H149743   5.693   1.499  11.309  0.2355  0.0854  1.9234
 8516TIP3    H249744   5.833   1.554  11.307  0.3111 -0.0645 -1.0917
 8517TIP3   OH249745   3.265   4.559  10.495 -0.2373  0.2578  0.3840
 8517TIP3    H149746   3.245   4.602  10.578 -1.1237  0.3596  0.1346
 8517TIP3    H249747   3.271   4.631  10.431 -3.0946  0.0036 -0.3031
 8518TIP3   OH249748   1.818   0.107  12.113 -0.2530 -0.6350  0.0863
 8518TIP3    H149749   1.879   0.109  12.187  0.9402 -1.7785 -0.8096
 8518TIP3    H249750   1.808   0.015  12.092 -0.7020 -0.3438 -1.0747
 8519TIP3   OH249751   2.256   0.981  12.644 -0.0880  0.0127 -0.5071
 8519TIP3    H149752   2.218   1.058  12.686  2.3453  0.5364  0.9818
 8519TIP3    H249753   2.350   0.998  12.645  0.2684 -0.6153 -5.0826
 8520TIP3   OH249754   5.517   1.768  11.539  0.2704  0.7818 -0.4996
 8520TIP3    H149755   5.566   1.830  11.485  0.2135  1.5258  0.2814
 8520TIP3    H249756   5.475   1.822  11.606 -3.2598  0.4725 -2.2359
 8521TIP3   OH249757   0.127   5.676  12.561  0.2576  0.3093 -0.8049
 8521TIP3    H149758   0.144   5.768  12.582  0.9020  0.4904 -2.0364
 8521TIP3    H249759   0.061   5.679  12.492 -0.2328 -0.1968 -0.3710
 8522TIP3   OH249760   7.433   6.271  12.777  0.6669  0.5982  0.1477
 8522TIP3    H149761   7.481   6.317  12.708  0.1132  1.1700  0.1315
 8522TIP3    H249762   7.489   6.197  12.800  0.7346  0.2348 -1.1114
 8523TIP3   OH249763   5.190   0.986  11.069  0.2446  0.0907 -0.0348
 8523TIP3    H149764   5.214   0.896  11.048  0.0715  0.4908 -2.1403
 8523TIP3    H249765   5.195   1.032  10.986  2.9736  2.6823  1.3717
 8524TIP3   OH249766   2.648   7.383  10.597  0.4029 -0.3858 -0.3410
 8524TIP3    H149767   2.574   7.339  10.639  1.1927 -2.0544 -0.6398
 8524TIP3    H249768   2.611   7.466  10.566 -1.6228 -1.5993 -1.3737
 8525TIP3   OH249769   4.737   8.366  10.574 -0.2875 -0.3115 -0.7994
 8525TIP3    H149770   4.708   8.283  10.537  0.3307 -1.3003  0.8049
 8525TIP3    H249771   4.832   8.361  10.574 -0.2315  0.4898 -0.8444
 8526TIP3   OH249772   7.404   5.002  11.545 -0.0344  0.1293  0.2755
 8526TIP3    H149773   7.414   5.042  11.458  1.3607  0.1573  0.4189
 8526TIP3    H249774   7.324   5.040  11.580  0.3014  1.4501 -0.3157
 8527TIP3   OH249775   2.893   7.571  12.721 -0.9006 -0.0107  0.1578
 8527TIP3    H149776   2.837   7.495  12.706 -0.6076 -0.7038  2.1398
 8527TIP3    H249777   2.920   7.562  12.813 -0.5937  2.3368  0.3559
 8528TIP3   OH249778   1.839   6.783  10.631  0.3423  0.2240  0.0265
 8528TIP3    H149779   1.857   6.791  10.724 -2.1156 -0.9009  0.6823
 8528TIP3    H249780   1.832   6.873  10.599  0.8754  0.6176  0.9983
 8529TIP3   OH249781   3.572   2.390  11.891 -0.4747 -0.6972 -0.0315
 8529TIP3    H149782   3.654   2.378  11.844 -0.5083 -2.0756  0.2087
 8529TIP3    H249783   3.547   2.301  11.918 -3.2485 -0.6865 -2.1354
 8530TIP3   OH249784   1.851   5.140  12.700 -0.2874 -0.3428 -0.5977
 8530TIP3    H149785   1.805   5.191  12.767 -0.2171  1.6542 -2.0069
 8530TIP3    H249786   1.917   5.090  12.749 -1.6649 -0.6516  1.0465
 8531TIP3   OH249787   2.864   1.852  11.993  0.1296 -0.0645 -0.1554
 8531TIP3    H149788   2.800   1.816  11.932 -0.9979 -0.9884  1.4858
 8531TIP3    H249789   2.933   1.785  11.998 -0.5368 -0.7214  0.6933
 8532TIP3   OH249790   4.611   4.648  10.745  0.2687 -0.4748  0.1059
 8532TIP3    H149791   4.620   4.556  10.770  1.9477  0.0231  1.4396
 8532TIP3    H249792   4.699   4.675  10.719  0.1018  1.1342  1.0887
 8533TIP3   OH249793   0.484   6.158  10.500 -0.8341  0.0231 -0.7920
 8533TIP3    H149794   0.464   6.250  10.482 -2.3591 -0.4657 -1.8191
 8533TIP3    H249795   0.502   6.119  10.414  0.2102 -0.5706 -0.3279
 8534TIP3   OH249796   5.482   3.572  11.438  0.1621 -0.2658 -0.2985
 8534TIP3    H149797   5.476   3.502  11.504 -2.6181  0.3208  0.1943
 8534TIP3    H249798   5.525   3.644  11.484 -0.7879 -0.2280  0.5621
 8535TIP3   OH249799   1.069   0.456  10.898 -0.1643 -0.5957 -0.2370
 8535TIP3    H149800   0.980   0.422  10.890 -0.3799  0.0023 -0.4555
 8535TIP3    H249801   1.062   0.524  10.965  0.5745 -2.0153  1.3402
 8536TIP3   OH249802   4.932   1.464  11.948 -0.2382 -0.8665 -0.7626
 8536TIP3    H149803   4.946   1.441  12.040  1.5203  0.6186 -0.5954
 8536TIP3    H249804   4.855   1.522  11.950  1.2613  1.2046  0.1843
 8537TIP3   OH249805   0.009   4.203  11.716  0.3413 -0.1925 -0.0547
 8537TIP3    H149806   0.036   4.287  11.753  0.9383  0.0276 -0.9676
 8537TIP3    H249807   0.016   4.214  11.622  0.9023 -1.4126 -0.1821
 8538TIP3   OH249808   0.656   7.231  11.162 -0.3257  0.3895 -0.1307
 8538TIP3    H149809   0.721   7.300  11.148 -0.2333  0.0484 -1.5405
 8538TIP3    H249810   0.705   7.149  11.153 -0.9748  0.1251 -1.4754
 8539TIP3   OH249811   3.616   6.851  11.569  0.2580 -0.5366 -0.0059
 8539TIP3    H149812   3.629   6.856  11.475  2.4989 -0.3567  0.2545
 8539TIP3    H249813   3.629   6.758  11.590  0.3685 -0.4760  0.1975
 8540TIP3   OH249814   1.564   0.783  12.526  0.4856 -0.2852 -0.1542
 8540TIP3    H149815   1.482   0.751  12.489  0.0872  0.3819  0.1446
 8540TIP3    H249816   1.551   0.877  12.536  1.3612 -0.1387 -0.2967
 8541TIP3   OH249817   4.243   1.076  10.715  0.5381  0.3985  0.5246
 8541TIP3    H149818   4.178   1.146  10.715 -0.6249 -0.6216  1.6667
 8541TIP3    H249819   4.320   1.114  10.673 -0.6139  1.8130 -0.3889
 8542TIP3   OH249820   5.395   3.827  11.883  0.5736 -0.4170  0.2648
 8542TIP3    H149821   5.315   3.831  11.936 -0.2820 -0.8112 -0.9562
 8542TIP3    H249822   5.416   3.918  11.865  0.5959 -0.2988  0.8824
 8543TIP3   OH249823   7.508   2.999  11.659  0.0786 -0.2868 -0.8544
 8543TIP3    H149824   7.568   3.001  11.733 -0.9782 -0.7425  0.0267
 8543TIP3    H249825   7.539   2.927  11.605  0.2246 -0.6353 -0.3116
 8544TIP3   OH249826   7.069   3.669  10.924  0.0325  0.5691 -0.3951
 8544TIP3    H149827   6.976   3.649  10.932  0.0062  1.4231  3.1195
 8544TIP3    H249828   7.072   3.764  10.912  0.4216  0.5713 -0.2963
 8545TIP3   OH249829   3.323   2.708  11.607 -1.0284  0.8102 -0.3554
 8545TIP3    H149830   3.275   2.670  11.533  0.1529  1.5972 -1.5777
 8545TIP3    H249831   3.411   2.723  11.573 -0.8593  2.6085  0.7375
 8546TIP3   OH249832   4.579   4.877  11.884 -0.2868 -0.0451  0.6881
 8546TIP3    H149833   4.653   4.825  11.916 -0.6386  0.0915  1.7776
 8546TIP3    H249834   4.621   4.953  11.842  0.2334 -1.4788 -1.4897
 8547TIP3   OH249835   5.717   7.127  11.898 -0.2045 -0.2847  0.5281
 8547TIP3    H149836   5.679   7.089  11.977 -1.1386  0.4196  0.4362
 8547TIP3    H249837   5.790   7.180  11.928  0.6200 -1.4957  0.7300
 8548TIP3   OH249838   2.508   6.365  10.922  0.0929 -0.0539  0.2005
 8548TIP3    H149839   2.597   6.333  10.933 -0.3203 -1.8777 -1.2055
 8548TIP3    H249840   2.471   6.310  10.852 -1.4765  2.0188 -0.7143
 8549TIP3   OH249841   5.110   1.163  11.899  0.0075  0.5719 -0.6801
 8549TIP3    H149842   5.023   1.128  11.877 -0.0100  0.3335 -0.2591
 8549TIP3    H249843   5.094   1.255  11.919 -0.3709  0.2405  0.6363
 8550TIP3   OH249844   3.973   7.905  17.185 -0.2779  0.1847 -0.0517
 8550TIP3    H149845   3.975   7.848  17.262 -0.7867  1.3938  0.8790
 8550TIP3    H249846   3.890   7.886  17.143 -0.1560 -0.2247 -0.1144
 8551TIP3   OH249847   1.027   0.497  11.491 -0.4003  0.2058  0.6965
 8551TIP3    H149848   0.960   0.563  11.476 -1.4271 -0.7423  0.9413
 8551TIP3    H249849   1.048   0.506  11.584 -1.5908 -0.7147  1.0901
 8552TIP3   OH249850   0.886   6.424  10.155 -0.4380  0.0238  0.2921
 8552TIP3    H149851   0.897   6.459  10.243  0.7056  0.1981  0.1084
 8552TIP3    H249852   0.976   6.417  10.121 -0.9057  1.1936 -1.3276
 8553TIP3   OH249853   5.139   4.134  12.920  0.1141 -0.5281  0.0555
 8553TIP3    H149854   5.175   4.172  12.839 -1.7624 -2.9255 -2.0689
 8553TIP3    H249855   5.210   4.082  12.956  0.4929 -0.7908 -1.0331
 8554TIP3   OH249856   7.479   8.401  10.674  0.1759  0.2422 -0.3231
 8554TIP3    H149857   7.481   8.416  10.580 -1.3196  0.7531 -0.2966
 8554TIP3    H249858   7.539   8.466  10.710 -0.7167  1.3411 -0.7822
 8555TIP3   OH249859   1.242   1.328  11.426  0.3195  0.0999 -0.1594
 8555TIP3    H149860   1.232   1.244  11.471 -1.2859  0.5967  0.4800
 8555TIP3    H249861   1.277   1.305  11.340  1.3519 -1.0632  0.5329
 8556TIP3   OH249862   2.348   1.965  12.059  0.5453  0.3617  0.8736
 8556TIP3    H149863   2.291   2.000  11.990  1.6988 -0.0526 -0.3258
 8556TIP3    H249864   2.291   1.959  12.136 -1.2216 -0.6608 -0.4361
 8557TIP3   OH249865   7.884   0.015  11.589 -0.1723 -0.1168 -0.4286
 8557TIP3    H149866   7.884  -0.080  11.578 -1.8628  0.0571 -2.4014
 8557TIP3    H249867   7.965   0.034  11.636 -0.1818 -2.5887  0.7145
 8558TIP3   OH249868   0.981   2.824  12.152  0.0416  0.2230  0.0669
 8558TIP3    H149869   0.967   2.882  12.228 -0.9938  0.8655 -0.5870
 8558TIP3    H249870   1.066   2.851  12.117  0.8786 -0.5711  1.3962
 8559TIP3   OH249871   0.074   2.106  12.325 -0.2497  0.1805  0.1467
 8559TIP3    H149872   0.017   2.042  12.285  0.5166 -0.7495  0.5058
 8559TIP3    H249873   0.025   2.188  12.321 -1.5125 -0.5501  0.2779
 8560TIP3   OH249874   2.828   1.683  11.378  0.2707  0.3475 -0.0316
 8560TIP3    H149875   2.906   1.644  11.339  1.7333  1.5286  1.5544
 8560TIP3    H249876   2.780   1.721  11.304 -1.1020 -3.9154 -1.6586
 8561TIP3   OH249877   7.393   6.986  12.211  0.5437  0.1565  0.5867
 8561TIP3    H149878   7.462   6.919  12.206  0.9525  0.6101 -3.9290
 8561TIP3    H249879   7.441   7.069  12.214  0.4792  0.5197 -3.4202
 8562TIP3   OH249880   5.854   0.109  16.109 -0.1494 -0.0483 -0.9001
 8562TIP3    H149881   5.866   0.196  16.147 -0.0627  0.4913 -2.1368
 8562TIP3    H249882   5.782   0.071  16.161  0.5666  0.2990  0.3862
 8563TIP3   OH249883   0.323   0.539  11.772  0.7398 -0.0402 -0.0348
 8563TIP3    H149884   0.268   0.616  11.756  1.5563  0.6277  0.3288
 8563TIP3    H249885   0.274   0.467  11.732  0.2931  0.7663 -0.9840
 8564TIP3   OH249886   4.189   0.787  11.866  0.0058  0.0847  0.4612
 8564TIP3    H149887   4.117   0.845  11.889 -0.4505 -0.6859  1.0379
 8564TIP3    H249888   4.210   0.740  11.947 -1.8824 -2.9676 -0.6282
 8565TIP3   OH249889   0.207   1.209  11.601 -0.2117  0.3691  0.1191
 8565TIP3    H149890   0.177   1.235  11.688 -1.4659 -0.3660 -0.0726
 8565TIP3    H249891   0.229   1.116  11.610 -2.9218 -0.4877 -0.9061
 8566TIP3   OH249892   1.425   2.445  11.086  0.1744  0.3113  0.1167
 8566TIP3    H149893   1.520   2.452  11.099  0.2316  1.4703 -0.8055
 8566TIP3    H249894   1.387   2.482  11.165  0.5056  1.4564 -0.2445
 8567TIP3   OH249895   6.587   4.005  11.979  0.0114 -0.2871 -0.4234
 8567TIP3    H149896   6.543   3.925  11.948 -2.1802 -0.0809  1.7564
 8567TIP3    H249897   6.520   4.073  11.973  0.1714  0.2477  2.2972
 8568TIP3   OH249898   4.675   5.758  10.833 -0.4251 -0.2364  0.2978
 8568TIP3    H149899   4.767   5.732  10.840 -0.3521  0.0068  0.2395
 8568TIP3    H249900   4.654   5.797  10.918 -0.3914 -0.0238  0.2076
 8569TIP3   OH249901   2.469   4.042  11.312 -0.2800 -0.2346  0.0723
 8569TIP3    H149902   2.452   4.135  11.328 -1.4160 -0.1571 -1.3440
 8569TIP3    H249903   2.382   4.001  11.317 -0.2988 -0.6623 -2.4663
 8570TIP3   OH249904   6.215   1.105  12.311 -0.2435 -0.0678  0.3831
 8570TIP3    H149905   6.263   1.157  12.376 -1.4363  1.9117 -0.2209
 8570TIP3    H249906   6.126   1.099  12.346 -0.3532 -0.9371 -0.0101
 8571TIP3   OH249907   2.973   1.777  12.562  0.0520  0.1359  0.1543
 8571TIP3    H149908   2.935   1.849  12.512 -0.1940 -0.2523 -0.2254
 8571TIP3    H249909   3.068   1.795  12.560  0.0273  0.2304 -0.2853
 8572TIP3   OH249910   6.266   7.660  10.896  0.0914 -0.2462 -0.0904
 8572TIP3    H149911   6.305   7.580  10.859  1.2318  0.4048 -0.3408
 8572TIP3    H249912   6.240   7.711  10.819 -0.2104 -0.1693  0.0625
 8573TIP3   OH249913   8.418   2.448  12.696  0.3697  0.3373  0.1061
 8573TIP3    H149914   8.485   2.380  12.708  1.0423  0.8160 -0.7994
 8573TIP3    H249915   8.339   2.398  12.672  1.0671 -0.1228 -1.4007
 8574TIP3   OH249916   0.136   5.182  11.003 -0.2815 -0.0804  0.2834
 8574TIP3    H149917   0.046   5.155  11.019  0.2753 -2.0260  0.3646
 8574TIP3    H249918   0.182   5.160  11.085  0.1491  1.5655  0.5188
 8575TIP3   OH249919   2.870   7.815  10.926 -0.1357 -0.4755 -0.4989
 8575TIP3    H149920   2.809   7.858  10.986 -1.1264  0.2343 -1.9596
 8575TIP3    H249921   2.942   7.878  10.916  0.5103 -0.9942  0.6305
 8576TIP3   OH249922   0.578   5.003  12.249 -0.1194 -0.0589 -0.3712
 8576TIP3    H149923   0.518   4.936  12.284  0.0702  0.1257  0.3375
 8576TIP3    H249924   0.664   4.960  12.250 -0.1609 -0.1549 -0.9069
 8577TIP3   OH249925   7.544   2.693  10.422  0.1845  0.0062 -1.0348
 8577TIP3    H149926   7.543   2.602  10.451  0.1674 -0.1461 -1.4964
 8577TIP3    H249927   7.452   2.715  10.406  0.1243  0.3128 -0.3093
 8578TIP3   OH249928   0.680   1.848  12.278 -0.7432 -0.3925 -0.4206
 8578TIP3    H149929   0.641   1.936  12.277 -0.7105 -0.3514  0.5873
 8578TIP3    H249930   0.690   1.828  12.371 -0.2240 -1.2359 -0.6516
 8579TIP3   OH249931   8.064   4.431  11.896 -0.3187 -0.2040  0.3107
 8579TIP3    H149932   8.107   4.502  11.945  1.5339 -0.8026 -0.3479
 8579TIP3    H249933   7.999   4.396  11.956  1.5346 -0.5963  2.1999
 8580TIP3   OH249934   7.776   8.125  12.724 -0.2209 -0.3276  0.4017
 8580TIP3    H149935   7.867   8.146  12.703 -0.0398  1.5504  2.7465
 8580TIP3    H249936   7.744   8.201  12.772 -2.4578 -1.7527  1.3035
 8581TIP3   OH249937   6.106   8.415  10.651 -0.3063 -0.0471  0.4447
 8581TIP3    H149938   6.067   8.480  10.711  2.7661  2.5148 -0.0689
 8581TIP3    H249939   6.104   8.458  10.566 -0.2969 -1.6541 -0.3840
 8582TIP3   OH249940   4.764   6.351  11.391 -0.5134 -0.7024  0.6095
 8582TIP3    H149941   4.673   6.325  11.375 -2.0763  3.2830  1.8643
 8582TIP3    H249942   4.785   6.313  11.476 -1.4686 -0.7207  0.8506
 8583TIP3   OH249943   5.134   2.224  10.577  0.1426 -0.3138 -0.0731
 8583TIP3    H149944   5.142   2.283  10.651  0.7593 -0.9716  0.4001
 8583TIP3    H249945   5.152   2.279  10.500  0.1510  0.2246  0.3086
 8584TIP3   OH249946   1.128   1.107  11.226  0.0355 -0.4222  0.1851
 8584TIP3    H149947   1.131   1.081  11.318  2.3327  3.0393  1.2691
 8584TIP3    H249948   1.215   1.141  11.207 -1.3002  2.0325 -2.2798
 8585TIP3   OH249949   6.122   5.559  10.668  0.1959  0.3842  0.4243
 8585TIP3    H149950   6.142   5.537  10.577 -0.8463 -0.7968  0.4623
 8585TIP3    H249951   6.199   5.531  10.717 -0.0162 -0.7389  0.1332
 8586TIP3   OH249952   5.432   7.510  10.281  0.2495  0.2305  0.1103
 8586TIP3    H149953   5.366   7.577  10.299 -2.2688 -1.8166 -1.0204
 8586TIP3    H249954   5.450   7.471  10.367  0.3437  1.0602  0.4850
 8587TIP3   OH249955   3.635   1.051  11.989 -0.0664 -0.1160 -0.3840
 8587TIP3    H149956   3.626   1.147  11.995 -0.5828 -0.1487 -0.6037
 8587TIP3    H249957   3.675   1.026  12.072  1.7780  0.4822 -1.0522
 8588TIP3   OH249958   2.515   3.155  10.399 -0.0059  0.2588  0.2709
 8588TIP3    H149959   2.507   3.075  10.452 -0.0170  0.4631  0.5797
 8588TIP3    H249960   2.578   3.209  10.446  2.5575 -0.8918 -1.5999
 8589TIP3   OH249961   2.929   1.199  12.344 -0.0593 -0.0311  0.7371
 8589TIP3    H149962   3.005   1.170  12.394 -0.0680  0.6810  1.1794
 8589TIP3    H249963   2.860   1.135  12.365 -0.1101  0.3481  1.7699
 8590TIP3   OH249964   2.569   7.667  10.539  0.5296 -0.6083  0.4362
 8590TIP3    H149965   2.609   7.681  10.453  0.9337 -1.7822  0.4181
 8590TIP3    H249966   2.608   7.734  10.595 -0.9845  1.2963 -0.6466
 8591TIP3   OH249967   7.672   1.315  10.859 -0.1785 -0.2336  0.1819
 8591TIP3    H149968   7.691   1.229  10.822  2.4577  0.2165  0.2898
 8591TIP3    H249969   7.650   1.298  10.951  4.0057 -0.6739  1.2846
 8592TIP3   OH249970   2.745   3.438  11.748  0.0103  0.8189  0.9784
 8592TIP3    H149971   2.782   3.360  11.708  0.3613  1.4612  0.0216
 8592TIP3    H249972   2.650   3.427  11.742 -0.0947 -1.0376  3.8164
 8593TIP3   OH249973   1.189   4.466  11.051 -0.3134  0.5519 -0.1812
 8593TIP3    H149974   1.280   4.484  11.027  0.5201 -0.8863  1.6141
 8593TIP3    H249975   1.191   4.376  11.084 -2.5567  0.2286 -0.8022
 8594TIP3   OH249976   2.821   2.485  10.943 -0.0246 -0.3319  0.3125
 8594TIP3    H149977   2.795   2.572  10.913 -1.1415 -0.7041  0.1378
 8594TIP3    H249978   2.744   2.430  10.927  1.0494 -1.6272 -0.6911
 8595TIP3   OH249979   5.539   4.270  12.545 -0.0083  0.4710  0.3754
 8595TIP3    H149980   5.634   4.266  12.557  0.0380 -1.3813 -0.3817
 8595TIP3    H249981   5.511   4.179  12.537 -1.7238  1.0170 -0.4406
 8596TIP3   OH249982   7.307   8.067  11.765  0.2037 -0.1903 -0.1769
 8596TIP3    H149983   7.284   8.087  11.674 -0.9179 -1.3412 -0.1771
 8596TIP3    H249984   7.258   8.130  11.817  0.7122  0.3585 -0.3459
 8597TIP3   OH249985   6.268   7.125  10.580  0.3619  0.3544  0.2457
 8597TIP3    H149986   6.292   7.070  10.655  0.6968  0.9160  0.5609
 8597TIP3    H249987   6.173   7.117  10.573  0.6245 -2.7844 -1.6901
 8598TIP3   OH249988   1.853   3.839  10.943  0.2995 -0.2775 -0.2023
 8598TIP3    H149989   1.784   3.804  10.999  1.4504  0.2125  1.6147
 8598TIP3    H249990   1.893   3.762  10.903  0.7994 -0.8507  1.3241
 8599TIP3   OH249991   1.509   0.018  12.160 -0.5647 -0.4057  0.0004
 8599TIP3    H149992   1.503  -0.003  12.067  2.0952 -0.1700 -0.3215
 8599TIP3    H249993   1.500  -0.067  12.204  0.6827 -0.9394 -0.6899
 8600TIP3   OH249994   1.521   5.462  12.151 -0.0286  0.4000  0.0642
 8600TIP3    H149995   1.491   5.552  12.141  0.8033  0.6628 -0.1093
 8600TIP3    H249996   1.513   5.445  12.245 -1.1171  0.3072 -0.0238
 8601TIP3   OH249997   0.317   6.868  11.846  0.0708  0.0219 -0.4301
 8601TIP3    H149998   0.296   6.895  11.935 -0.4501 -0.1906 -0.4838
 8601TIP3    H249999   0.272   6.785  11.835  0.4747 -0.1562 -0.7539
 8602TIP3   OH250000   1.047   2.039  11.478  0.1163 -0.0163 -0.2942
 8602TIP3    H150001   0.986   1.966  11.468  0.2571 -0.8951  3.6936
 8602TIP3    H250002   1.133   2.002  11.458  0.1641 -0.9721  1.5248
 8603TIP3   OH250003   2.175   5.666  12.212 -0.0811 -0.3789 -0.6160
 8603TIP3    H150004   2.083   5.668  12.185 -0.5033  0.1407  0.8144
 8603TIP3    H250005   2.215   5.601  12.153 -1.9636 -2.8314  0.6136
 8604TIP3   OH250006   4.416   6.417  10.676  0.0416  0.1359 -0.2919
 8604TIP3    H150007   4.386   6.410  10.766  2.2774  0.2621  0.5402
 8604TIP3    H250008   4.368   6.350  10.629 -1.2810  0.1689  0.9509
 8605TIP3   OH250009   7.809   3.457  12.410 -0.2136  0.0364  0.1781
 8605TIP3    H150010   7.893   3.496  12.386  0.0068  0.1034  1.0365
 8605TIP3    H250011   7.762   3.448  12.327 -0.6691  3.0101 -0.0082
 8606TIP3   OH250012   1.822   2.351  11.107  0.2833 -0.0128  0.1469
 8606TIP3    H150013   1.875   2.298  11.047  1.0420 -0.1211  0.9080
 8606TIP3    H250014   1.790   2.423  11.052 -1.0443 -1.3789 -1.0018
 8607TIP3   OH250015   8.019   6.247  11.601 -0.2455 -0.2549  0.7051
 8607TIP3    H150016   8.110   6.276  11.612 -0.2102  0.2543 -0.7816
 8607TIP3    H250017   8.002   6.256  11.508 -1.4788 -1.4248  0.7946
 8608TIP3   OH250018   2.967   3.294  12.601  0.3740  0.2251  0.0932
 8608TIP3    H150019   2.926   3.369  12.645  1.4402  0.7454  0.2197
 8608TIP3    H250020   3.013   3.247  12.671  1.1441  0.4316 -0.2630
 8609TIP3   OH250021   2.914   4.218  12.546  0.1242 -0.0102  0.3220
 8609TIP3    H150022   2.991   4.162  12.545  1.1067  1.2685  1.2920
 8609TIP3    H250023   2.944   4.300  12.506 -0.3489  0.9512  1.8911
 8610TIP3   OH250024   4.920   4.530  10.749 -0.5089  0.0572 -0.6152
 8610TIP3    H150025   4.987   4.493  10.806  0.2856 -1.2153 -2.2812
 8610TIP3    H250026   4.944   4.622  10.740  0.6890 -0.2422 -0.6878
 8611TIP3   OH250027   4.616   7.793  10.559  0.3835  0.3599 -0.2859
 8611TIP3    H150028   4.711   7.792  10.561  0.4120  1.2861  1.4351
 8611TIP3    H250029   4.591   7.704  10.536  1.6848 -0.5932  1.6989
 8612TIP3   OH250030   4.827   4.374  11.636  0.2018 -0.6943  0.1650
 8612TIP3    H150031   4.779   4.456  11.650  0.1848 -0.4951 -0.9247
 8612TIP3    H250032   4.888   4.369  11.708 -0.7930 -0.4550  1.0483
 8613TIP3   OH250033   7.514   8.175  11.362 -0.1030  0.0018  0.0860
 8613TIP3    H150034   7.551   8.254  11.401 -1.5695  1.1286 -0.7080
 8613TIP3    H250035   7.585   8.111  11.364  0.8604  1.0697  1.5132
 8614TIP3   OH250036   7.436   8.299  10.938  0.5608  0.5322 -0.7110
 8614TIP3    H150037   7.438   8.314  10.843  0.0038 -0.5238 -0.9119
 8614TIP3    H250038   7.513   8.243  10.954 -0.2616 -0.6765 -0.8305
 8615TIP3   OH250039   0.394   1.760  11.715  0.3035  0.0138 -0.2795
 8615TIP3    H150040   0.478   1.745  11.672  0.4277 -1.6207  0.4363
 8615TIP3    H250041   0.413   1.750  11.809 -0.6656 -0.3684 -0.1077
 8616TIP3   OH250042   4.362   5.788  10.354 -0.0759 -0.1521  0.0760
 8616TIP3    H150043   4.323   5.870  10.326  0.5520 -0.0800 -0.6109
 8616TIP3    H250044   4.445   5.814  10.396  0.7628 -0.5019 -1.3075
 8617TIP3   OH250045   7.202   7.992  12.449  0.6133  0.4109 -0.1214
 8617TIP3    H150046   7.181   8.004  12.356 -0.6928 -2.4488 -0.2921
 8617TIP3    H250047   7.298   8.000  12.453  0.9403 -1.5556 -2.1669
 8618TIP3   OH250048   2.113   3.018  11.075 -0.0587 -0.1888  0.2565
 8618TIP3    H150049   2.185   3.062  11.120 -2.1757  1.2882  2.4587
 8618TIP3    H250050   2.088   3.078  11.005 -1.5293  1.2426  1.8995
 8619TIP3   OH250051   1.726   5.393  10.565  0.3732  0.2419  0.3709
 8619TIP3    H150052   1.670   5.320  10.537 -0.8981 -0.1474  3.5185
 8619TIP3    H250053   1.697   5.467  10.513 -0.5370 -0.7795 -0.6361
 8620TIP3   OH250054   3.514   5.197  10.985 -0.4506 -0.1956 -0.0919
 8620TIP3    H150055   3.546   5.199  10.895 -1.7920 -0.0290 -0.5867
 8620TIP3    H250056   3.487   5.106  10.999  0.4110 -0.3919  0.4049
 8621TIP3   OH250057   0.641   6.998  12.416 -0.4961 -0.0147 -0.7007
 8621TIP3    H150058   0.567   7.058  12.405 -0.3839  0.1444 -0.5969
 8621TIP3    H250059   0.606   6.912  12.394 -1.1926 -0.2171  1.0356
 8622TIP3   OH250060   1.840   1.784  10.804 -0.1646 -0.3116  0.2780
 8622TIP3    H150061   1.926   1.827  10.801 -0.6898  0.8124  0.6783
 8622TIP3    H250062   1.858   1.693  10.781  0.6611  0.5696 -3.0938
 8623TIP3   OH250063   7.643   2.783  12.953 -0.0609 -0.3109  0.2017
 8623TIP3    H150064   7.591   2.810  13.028  1.3344  0.2250  1.0190
 8623TIP3    H250065   7.671   2.865  12.912 -0.1207 -0.5881 -0.4040
 8624TIP3   OH250066   5.266   2.819  12.231  0.7073  0.0941  0.8334
 8624TIP3    H150067   5.272   2.757  12.304  1.2969  0.2632  0.9346
 8624TIP3    H250068   5.318   2.894  12.259 -1.3616  1.3904  1.4345
 8625TIP3   OH250069   2.340   4.013  12.122 -0.5141  0.4580 -0.3201
 8625TIP3    H150070   2.294   4.020  12.206 -0.7779  0.9916 -0.5032
 8625TIP3    H250071   2.428   4.046  12.140 -0.7382  1.1141 -0.3759
 8626TIP3   OH250072   2.017   7.983  11.369 -0.0282  0.4244 -0.1130
 8626TIP3    H150073   2.017   7.933  11.287  0.6575  0.8744 -0.3946
 8626TIP3    H250074   1.972   7.926  11.431 -0.4347  0.0172 -0.7656
 8627TIP3   OH250075   1.031   0.934  10.631  0.7693  0.2557  0.0919
 8627TIP3    H150076   1.003   0.959  10.719  0.3462  0.5985 -0.1345
 8627TIP3    H250077   0.953   0.944  10.577  0.5491 -1.7199  0.0009
 8628TIP3   OH250078   8.369   0.956  11.934  0.0250 -0.1175  0.7802
 8628TIP3    H150079   8.373   0.961  11.838  3.0664  0.3055  0.8330
 8628TIP3    H250080   8.327   0.872  11.952 -0.0514 -0.4797 -0.9237
 8629TIP3   OH250081   3.230   1.442  11.519  0.6681  0.0470 -0.0508
 8629TIP3    H150082   3.271   1.511  11.571 -0.0096 -0.2730  0.9492
 8629TIP3    H250083   3.140   1.471  11.506  0.3159 -0.7197  0.5588
 8630TIP3   OH250084   8.352   3.374  12.237  0.0735  0.5596 -0.2187
 8630TIP3    H150085   8.335   3.460  12.276  1.1474 -0.4266  2.7340
 8630TIP3    H250086   8.379   3.392  12.148 -0.5676  3.2065  0.0580
 8631TIP3   OH250087   1.410   5.332  12.693  0.5392  0.2875  0.3683
 8631TIP3    H150088   1.353   5.287  12.631 -1.2111 -1.1781  2.8630
 8631TIP3    H250089   1.403   5.424  12.670 -0.2693 -0.1714 -1.3829
 8632TIP3   OH250090   1.648   8.178  11.243 -0.4274 -0.4581 -0.1014
 8632TIP3    H150091   1.638   8.134  11.158  0.1719  0.7109 -0.8071
 8632TIP3    H250092   1.590   8.130  11.302  0.3813 -2.3474 -0.7673
 8633TIP3   OH250093   6.784   0.016  11.125  0.0738  0.0902 -0.3864
 8633TIP3    H150094   6.821  -0.071  11.138  0.1592  0.1816  0.0154
 8633TIP3    H250095   6.695   0.000  11.093 -0.0749 -0.1529  0.1369
 8634TIP3   OH250096   5.742   7.855  10.938  0.1312  0.1761 -0.0758
 8634TIP3    H150097   5.746   7.810  10.853 -0.9113  0.8859 -0.5062
 8634TIP3    H250098   5.683   7.801  10.991  0.6753 -0.1922  0.1671
 8635TIP3   OH250099   3.075   0.735  12.320  0.1619 -0.6867  0.0248
 8635TIP3    H150100   3.169   0.749  12.311 -0.1347  0.8074 -1.0461
 8635TIP3    H250101   3.056   0.757  12.411  0.8153 -0.8651  0.2093
 8636TIP3   OH250102   4.384   5.577  10.584  0.5470  0.2209  0.1129
 8636TIP3    H150103   4.376   5.484  10.565 -1.4182  0.6303 -1.3117
 8636TIP3    H250104   4.364   5.621  10.501  1.1828  1.9290  0.8090
 8637TIP3   OH250105   7.600   0.718  11.632  0.0307 -0.0983 -0.4265
 8637TIP3    H150106   7.624   0.702  11.541  1.2103  1.0688 -0.3446
 8637TIP3    H250107   7.640   0.802  11.653 -1.8428  0.6073  0.5882
 8638TIP3   OH250108   2.921   0.338  12.448  0.0235 -0.1473  0.1366
 8638TIP3    H150109   2.991   0.342  12.513  0.5016  0.5035 -0.4059
 8638TIP3    H250110   2.905   0.429  12.425 -1.0592 -0.2884  0.3074
 8639TIP3   OH250111   6.178   0.590  10.988  0.0677  0.0495 -0.1101
 8639TIP3    H150112   6.088   0.619  11.001 -0.1407 -0.2840 -0.7472
 8639TIP3    H250113   6.225   0.620  11.066 -0.5824  0.2664  0.2027
 8640TIP3   OH250114   1.375   2.169  11.185  0.5189  0.0447 -0.5602
 8640TIP3    H150115   1.317   2.220  11.241 -0.2601 -0.5048 -0.8408
 8640TIP3    H250116   1.398   2.229  11.114 -1.0404 -0.1829 -1.3258
 8641TIP3   OH250117   1.509   7.530  11.446  0.0262  0.1464 -0.3901
 8641TIP3    H150118   1.580   7.476  11.483 -0.2569  0.0167 -0.0281
 8641TIP3    H250119   1.554   7.601  11.401  0.3889  0.4348  0.3966
 8642TIP3   OH250120   4.987   7.207  11.179 -0.0007 -0.0279  0.2078
 8642TIP3    H150121   5.023   7.119  11.191  1.8823  0.4495 -1.4000
 8642TIP3    H250122   4.911   7.195  11.122  0.8137 -0.5617 -0.8066
 8643TIP3   OH250123   1.965   4.624  12.834  0.4444  0.1865 -0.0178
 8643TIP3    H150124   2.060   4.625  12.824  0.3854 -0.7403 -0.8249
 8643TIP3    H250125   1.932   4.663  12.753  0.0887 -2.3119 -1.1719
 8644TIP3   OH250126   4.180   2.253  11.733 -0.3101  0.4285  0.3650
 8644TIP3    H150127   4.120   2.277  11.662 -0.0915  1.0005  0.3727
 8644TIP3    H250128   4.142   2.294  11.811 -1.0496 -0.9362  0.7712
 8645TIP3   OH250129   0.865   5.230  12.334 -0.4234 -0.3699 -0.0418
 8645TIP3    H150130   0.887   5.198  12.246 -0.5764 -0.5460 -0.0180
 8645TIP3    H250131   0.774   5.259  12.326 -0.1331  0.5103 -0.1838
 8646TIP3   OH250132   7.382   1.302  11.467  0.1648  0.3794  0.2189
 8646TIP3    H150133   7.353   1.226  11.518 -0.3918  0.0859 -0.5300
 8646TIP3    H250134   7.454   1.339  11.519 -0.0498 -0.2164  0.9601
 8647TIP3   OH250135   4.643   5.244  10.592 -0.2595 -0.6300 -0.1888
 8647TIP3    H150136   4.660   5.241  10.686 -1.5071 -2.4473  0.0199
 8647TIP3    H250137   4.711   5.301  10.557  0.8441 -0.7340  1.6914
 8648TIP3   OH250138   6.837   6.138  11.639  0.1711 -0.6173  0.4578
 8648TIP3    H150139   6.842   6.044  11.619 -0.9587 -0.9139  1.4883
 8648TIP3    H250140   6.758   6.147  11.691 -0.7465  1.2141 -1.1347
 8649TIP3   OH250141   6.568   0.281  10.770 -0.5013  0.5965  0.3371
 8649TIP3    H150142   6.481   0.253  10.739 -0.1936 -0.0237 -0.0031
 8649TIP3    H250143   6.629   0.235  10.712  0.0834 -0.0073  1.4122
 8650TIP3   OH250144   1.893   1.755  12.476 -0.0890 -0.4741  0.5758
 8650TIP3    H150145   1.828   1.694  12.510 -0.9864  0.5068  0.6719
 8650TIP3    H250146   1.969   1.743  12.532  0.4464 -2.8021 -0.5417
 8651TIP3   OH250147   5.118   6.360  11.866 -0.0006 -0.3878 -0.1616
 8651TIP3    H150148   5.193   6.401  11.823 -0.3367  0.9924  0.5256
 8651TIP3    H250149   5.128   6.267  11.846  1.5210 -0.1551 -0.6555
 8652TIP3   OH250150   3.149   0.091  11.319  0.3148 -0.5933 -0.6194
 8652TIP3    H150151   3.124   0.008  11.361 -1.2762 -0.1055 -0.5479
 8652TIP3    H250152   3.148   0.072  11.225 -1.5468 -0.3055 -0.6914
 8653TIP3   OH250153   2.300   6.850  12.536 -0.4951  0.8497  0.5674
 8653TIP3    H150154   2.387   6.867  12.573  0.0179  2.5918 -1.2472
 8653TIP3    H250155   2.271   6.769  12.578  1.2948  1.0914  2.4308
 8654TIP3   OH250156   7.110   2.372  12.855 -0.6164 -0.2065 -0.0893
 8654TIP3    H150157   7.061   2.369  12.773 -0.4486 -1.9475 -0.1660
 8654TIP3    H250158   7.146   2.460  12.859 -2.1634  0.4964 -0.9688
 8655TIP3   OH250159   7.634   5.307  11.162 -0.5817  0.0759 -0.2559
 8655TIP3    H150160   7.601   5.375  11.220 -0.1586 -0.3868  0.5470
 8655TIP3    H250161   7.564   5.294  11.098 -0.2170  2.0506 -1.1304
 8656TIP3   OH250162   6.682   7.295  10.937  0.1221  0.4708  0.0491
 8656TIP3    H150163   6.708   7.217  10.985 -3.4039 -0.0606  1.3193
 8656TIP3    H250164   6.592   7.280  10.911 -0.7192  4.0741  0.2756
 8657TIP3   OH250165   6.623   7.753  11.673 -0.0134 -0.2373  0.7802
 8657TIP3    H150166   6.684   7.699  11.723 -0.4730 -0.1777  1.4185
 8657TIP3    H250167   6.676   7.825  11.638  0.2321 -0.0452  1.5409
 8658TIP3   OH250168   2.590   4.342  10.744 -0.0556  0.7325 -0.4004
 8658TIP3    H150169   2.672   4.388  10.762  1.3682 -1.6964 -0.3183
 8658TIP3    H250170   2.561   4.310  10.830 -1.6225  2.2815 -0.2858
 8659TIP3   OH250171   5.844   5.359  12.775  0.2542 -0.1634 -0.2690
 8659TIP3    H150172   5.845   5.291  12.842 -0.0229  1.2475  1.2250
 8659TIP3    H250173   5.780   5.328  12.711  0.0997 -1.2718  0.3896
 8660TIP3   OH250174   4.739   1.130  12.119  0.3399  0.0404 -0.1187
 8660TIP3    H150175   4.644   1.139  12.109  0.4375  1.0695 -0.1608
 8660TIP3    H250176   4.750   1.052  12.173 -0.5083 -0.4132 -0.5842
 8661TIP3   OH250177   4.281   4.053  10.680 -0.2264  0.5386 -0.6922
 8661TIP3    H150178   4.356   4.079  10.733 -1.6968  0.9402  1.2958
 8661TIP3    H250179   4.318   3.997  10.612  1.8555  0.6994  0.2339
 8662TIP3   OH250180   0.543   3.824  10.787 -0.1603 -0.8726 -0.2637
 8662TIP3    H150181   0.515   3.876  10.861 -1.3332 -1.6865 -0.1130
 8662TIP3    H250182   0.590   3.750  10.826 -1.6842 -1.8636 -0.2314
 8663TIP3   OH250183   0.079   6.223  12.195 -0.0968 -0.0096  0.2693
 8663TIP3    H150184   0.159   6.238  12.143  0.0171 -1.6166 -0.0727
 8663TIP3    H250185   0.010   6.265  12.145  0.2128 -0.4632 -0.5552
 8664TIP3   OH250186   3.246   6.234  10.308  0.0990  0.2335  1.0257
 8664TIP3    H150187   3.303   6.288  10.254 -1.4153  0.0505 -0.8993
 8664TIP3    H250188   3.183   6.296  10.345  0.9211  0.3109  2.3045
 8665TIP3   OH250189   7.073   1.904  11.785  0.4523  0.2428 -0.2330
 8665TIP3    H150190   7.001   1.846  11.759  1.5431 -1.1833 -0.2357
 8665TIP3    H250191   7.053   1.928  11.875  0.8658 -1.6850  0.4277
 8666TIP3   OH250192   4.522   4.942  11.496 -0.7276 -0.0239  0.2142
 8666TIP3    H150193   4.588   5.004  11.529 -0.6649  0.5917 -0.9995
 8666TIP3    H250194   4.567   4.858  11.496 -0.0580  0.3212 -0.2331
 8667TIP3   OH250195   2.708   8.070  11.625  0.0954  0.5516  0.5398
 8667TIP3    H150196   2.784   8.044  11.573 -0.1577  0.5521  0.1621
 8667TIP3    H250197   2.644   8.101  11.560 -0.5841 -0.3304  0.7596
 8668TIP3   OH250198   7.813   8.276  12.000 -0.6849  0.0003 -0.2913
 8668TIP3    H150199   7.877   8.260  12.069 -0.0229  1.5656 -0.4991
 8668TIP3    H250200   7.761   8.196  11.997 -1.4877  0.2678  2.8058
 8669TIP3   OH250201   3.734   3.587  12.556 -0.0051 -0.1541  0.1452
 8669TIP3    H150202   3.780   3.532  12.492  2.1370  1.3273  0.3270
 8669TIP3    H250203   3.652   3.611  12.512 -0.3279 -2.2366 -0.5041
 8670TIP3   OH250204   5.530   7.447  11.740 -0.1573  0.8025 -0.3397
 8670TIP3    H150205   5.577   7.380  11.691  1.7835 -0.3290  2.7521
 8670TIP3    H250206   5.447   7.405  11.764  0.0631  0.3416 -0.3670
 8671TIP3   OH250207   7.691   1.571  12.128  0.1073  0.1010 -0.4796
 8671TIP3    H150208   7.725   1.657  12.152  1.6947 -0.0315 -2.0278
 8671TIP3    H250209   7.597   1.585  12.114  0.0705  1.2273  0.6913
 8672TIP3   OH250210   2.289   4.979  11.959 -0.6244  0.6027 -0.3470
 8672TIP3    H150211   2.282   5.007  11.868  0.7101  2.2609  0.0099
 8672TIP3    H250212   2.343   4.900  11.956 -1.1323  0.2751 -1.0436
 8673TIP3   OH250213   6.039   6.727  11.401  0.7584 -0.1568  0.0509
 8673TIP3    H150214   5.958   6.719  11.350  0.2751  0.3065  0.7306
 8673TIP3    H250215   6.066   6.637  11.418  1.4030 -0.3372 -1.7510
 8674TIP3   OH250216   1.023   3.432  12.943  0.1824  0.0608  0.1323
 8674TIP3    H150217   0.930   3.446  12.928 -0.5893 -2.8301  1.4878
 8674TIP3    H250218   1.032   3.337  12.948  3.0200  0.3048  1.2070
 8675TIP3   OH250219   1.237   4.743  11.866 -0.2772 -0.1621 -0.1456
 8675TIP3    H150220   1.227   4.768  11.774  2.0246  0.5215 -0.2864
 8675TIP3    H250221   1.171   4.794  11.913  1.0485  2.5368 -1.0112
 8676TIP3   OH250222   4.915   6.203  12.083  0.1228  0.2071  0.0358
 8676TIP3    H150223   4.869   6.152  12.150 -0.8086 -1.2346 -1.6029
 8676TIP3    H250224   4.940   6.284  12.127 -0.1409 -0.8146  2.1968
 8677TIP3   OH250225   4.250   1.814  11.133  0.3127  0.8139  0.3643
 8677TIP3    H150226   4.264   1.720  11.141 -1.9810  0.4518  0.7442
 8677TIP3    H250227   4.331   1.847  11.095  0.6875 -1.4809 -0.9999
 8678TIP3   OH250228   7.700   8.420  11.808  0.3172  0.7429  0.0658
 8678TIP3    H150229   7.771   8.445  11.749  0.3958 -0.9038 -0.5650
 8678TIP3    H250230   7.742   8.370  11.877 -0.1210  0.4323  0.1126
 8679TIP3   OH250231   0.965   8.114  11.973  0.5034 -0.0068 -0.4394
 8679TIP3    H150232   1.059   8.101  11.966  0.5743  0.4805 -0.4259
 8679TIP3    H250233   0.927   8.028  11.952  1.0321 -1.0336  2.3341
 8680TIP3   OH250234   2.427   3.436  11.465  0.1617 -0.4587  0.2391
 8680TIP3    H150235   2.420   3.402  11.554 -0.5517 -0.5480  0.1565
 8680TIP3    H250236   2.340   3.421  11.427  0.1549  0.4678 -0.1465
 8681TIP3   OH250237   1.940   2.334  11.590  0.2420 -0.3205 -0.0148
 8681TIP3    H150238   1.907   2.244  11.585  1.7086 -0.9675  1.2276
 8681TIP3    H250239   1.909   2.375  11.509  0.9578 -2.4355 -1.4409
 8682TIP3   OH250240   4.403   2.331  12.894 -0.0174  0.4156 -0.4571
 8682TIP3    H150241   4.308   2.333  12.880 -0.3246 -0.6903  1.1474
 8682TIP3    H250242   4.431   2.421  12.882 -1.4009  0.9020 -0.2608
 8683TIP3   OH250243   4.375   5.330  10.541  0.5383  0.2986  0.9162
 8683TIP3    H150244   4.315   5.258  10.559  0.2565  0.4920  0.7524
 8683TIP3    H250245   4.461   5.297  10.568  0.6635 -0.6469 -0.5483
 8684TIP3   OH250246   5.714   3.887  11.666 -0.3249  0.1845 -0.1061
 8684TIP3    H150247   5.679   3.975  11.685  1.5357  0.9550 -0.0942
 8684TIP3    H250248   5.690   3.872  11.574 -5.6706 -1.8078  1.2379
 8685TIP3   OH250249   0.596   7.660  11.529  0.0454 -0.1937 -0.6356
 8685TIP3    H150250   0.641   7.575  11.523 -1.3453 -0.8993 -1.6614
 8685TIP3    H250251   0.623   7.707  11.450  0.4106  0.1290 -0.3248
 8686TIP3   OH250252   0.447   5.249  11.012 -0.1104  0.3986  0.2662
 8686TIP3    H150253   0.384   5.210  11.074  0.2516 -2.0914 -0.8058
 8686TIP3    H250254   0.393   5.305  10.956 -1.0678 -0.2307  0.5252
 8687TIP3   OH250255   0.598   0.691  12.031  0.0992 -0.4778 -0.3540
 8687TIP3    H150256   0.674   0.685  12.090  0.2643  0.5196 -0.4499
 8687TIP3    H250257   0.552   0.770  12.059  0.5097  0.3517 -1.9479
 8688TIP3   OH250258   4.779   6.737  10.722  0.0176 -0.0122  0.3075
 8688TIP3    H150259   4.776   6.642  10.707 -2.4740  0.3512 -2.4597
 8688TIP3    H250260   4.687   6.764  10.718  0.6624  2.5153  1.2116
 8689TIP3   OH250261   5.464   1.538  11.684  0.6788  0.0403 -0.6872
 8689TIP3    H150262   5.528   1.468  11.694  1.1030  0.6456  1.3905
 8689TIP3    H250263   5.501   1.596  11.618  1.0030 -0.9522 -1.3946
 8690TIP3   OH250264   2.879   0.621  11.637 -0.0755  0.3059 -0.4543
 8690TIP3    H150265   2.887   0.646  11.545 -0.0736 -0.2057 -0.5941
 8690TIP3    H250266   2.805   0.560  11.639  0.7211 -0.6825 -0.3181
 8691TIP3   OH250267   2.516   8.103  10.994  0.8228  0.4516 -0.2390
 8691TIP3    H150268   2.536   8.071  10.906  0.3503  1.1364 -0.6027
 8691TIP3    H250269   2.545   8.194  10.994 -0.5854  0.9286 -0.1991
 8692TIP3   OH250270   3.995   7.007  10.873  0.6519  0.5439  0.7174
 8692TIP3    H150271   3.920   6.961  10.909  0.2575  0.3270 -0.3404
 8692TIP3    H250272   3.981   7.099  10.897  0.3425  0.4235  1.0057
 8693TIP3   OH250273   5.448   5.173  10.658  0.3381 -0.1532  0.1300
 8693TIP3    H150274   5.424   5.246  10.602 -1.7730 -0.7433  0.1732
 8693TIP3    H250275   5.540   5.157  10.639  0.4969  1.6855 -0.8065
 8694TIP3   OH250276   2.929   6.094  10.861  0.0016  0.1731 -0.6456
 8694TIP3    H150277   2.867   6.152  10.905 -0.2345 -0.5347 -0.0072
 8694TIP3    H250278   2.908   6.007  10.895  0.5211 -0.2519 -1.3757
 8695TIP3   OH250279   4.722   0.181  11.479  0.3013  0.0303 -0.2192
 8695TIP3    H150280   4.688   0.178  11.389  0.5105  2.2975 -0.4186
 8695TIP3    H250281   4.662   0.240  11.525  2.5591  2.2967  0.0086
 8696TIP3   OH250282   3.319   7.487  12.656 -0.0712  0.0707  0.2267
 8696TIP3    H150283   3.373   7.408  12.665  0.0181 -0.1579 -1.8519
 8696TIP3    H250284   3.233   7.454  12.629 -0.3505  0.6213  0.4273
 8697TIP3   OH250285   0.239   8.012  10.775 -0.2917 -0.6954  0.0655
 8697TIP3    H150286   0.191   7.982  10.697 -1.0664 -0.2683  0.3623
 8697TIP3    H250287   0.218   8.106  10.781  1.1568 -0.3360 -0.1915
 8698TIP3   OH250288   7.336   5.495  11.735  0.7421 -0.7420  0.4232
 8698TIP3    H150289   7.352   5.404  11.712  0.5001 -0.3223 -1.5629
 8698TIP3    H250290   7.301   5.534  11.656  2.0104  1.3912  0.8365
 8699TIP3   OH250291   3.148   4.013  10.894  0.2590  0.6763 -0.0154
 8699TIP3    H150292   3.187   3.926  10.892 -0.5451  0.2296  1.8530
 8699TIP3    H250293   3.093   4.017  10.816  0.8427 -0.2158 -0.4814
 8700TIP3   OH250294   4.555   2.264  12.119  0.1227 -0.4940  1.1379
 8700TIP3    H150295   4.569   2.356  12.096 -0.6583 -0.3803  1.0941
 8700TIP3    H250296   4.643   2.225  12.117  0.3971  0.1317  0.6451
 8701TIP3   OH250297   2.974   1.642  11.736  0.2284 -0.1332  0.6050
 8701TIP3    H150298   2.940   1.558  11.703 -1.5034 -0.0634  2.0667
 8701TIP3    H250299   2.946   1.707  11.672 -0.5325 -0.3636  0.7042
 8702TIP3   OH250300   4.794   0.514  11.343  0.1434 -0.2651 -0.1406
 8702TIP3    H150301   4.863   0.459  11.380  0.3355  0.9021  1.3048
 8702TIP3    H250302   4.840   0.578  11.289 -0.0793 -1.4190 -1.8015
 8703TIP3   OH250303   2.770   7.713  11.657  0.3221 -0.0292  0.1043
 8703TIP3    H150304   2.797   7.799  11.624 -1.2476 -0.2543 -1.9866
 8703TIP3    H250305   2.848   7.658  11.644  1.1960  0.9345  1.0387
 8704TIP3   OH250306   7.901   0.139  12.067 -0.0396  0.0067 -0.2620
 8704TIP3    H150307   7.921   0.159  12.158 -1.8649 -0.5080  0.2809
 8704TIP3    H250308   7.931   0.048  12.055  3.8149  1.2231 -1.3735
 8705TIP3   OH250309   2.445   6.228  11.951  0.2503  0.0012 -0.2029
 8705TIP3    H150310   2.426   6.295  12.017  0.7619  1.2335 -1.2559
 8705TIP3    H250311   2.377   6.239  11.885  0.4000 -0.4522 -0.4368
 8706TIP3   OH250312   2.031   4.050  10.184 -0.3639  0.1250 -0.1305
 8706TIP3    H150313   1.949   4.095  10.162 -0.3377  0.4073  0.3281
 8706TIP3    H250314   2.094   4.120  10.199 -0.1874 -0.0747  0.0762
 8707TIP3   OH250315   4.454   1.217  12.530  0.3030 -0.2677  0.3145
 8707TIP3    H150316   4.480   1.299  12.488  0.3868 -0.6894 -0.4761
 8707TIP3    H250317   4.456   1.236  12.623  0.0919  0.7002  0.1297
 8708TIP3   OH250318   5.924   3.102  12.111  0.9091  0.4169  0.2760
 8708TIP3    H150319   5.880   3.096  12.196 -2.1422  0.1504 -1.1747
 8708TIP3    H250320   5.925   3.196  12.092 -1.2740  0.3033 -0.6679
 8709TIP3   OH250321   1.655   5.304  12.823 -0.3333 -0.0043  0.6099
 8709TIP3    H150322   1.656   5.399  12.830 -0.0225  0.1456 -1.0830
 8709TIP3    H250323   1.565   5.282  12.801 -0.0539  0.0729 -0.6935
 8710TIP3   OH250324   6.714   3.445  10.518  0.0992  0.2224  0.3090
 8710TIP3    H150325   6.751   3.424  10.432 -1.4869 -0.6375 -0.2077
 8710TIP3    H250326   6.759   3.387  10.579  0.5275  0.1279 -0.0914
 8711TIP3   OH250327   3.569   6.448  11.948 -0.0185 -0.0308  0.5514
 8711TIP3    H150328   3.529   6.361  11.957  0.8939 -0.3619  1.4696
 8711TIP3    H250329   3.508   6.495  11.891 -1.6905 -0.5548  1.8115
 8712TIP3   OH250330   2.162   4.508  11.088  0.4737  0.4166  0.1850
 8712TIP3    H150331   2.135   4.431  11.038 -0.0595  1.3789 -1.0704
 8712TIP3    H250332   2.230   4.549  11.034  0.5677  0.9590  0.7106
 8713TIP3   OH250333   7.050   5.151  12.103 -0.0218 -0.0326  0.6590
 8713TIP3    H150334   7.073   5.213  12.173 -0.0202 -1.5857  2.0851
 8713TIP3    H250335   7.131   5.102  12.087  0.3949  1.2086 -1.4825
 8714TIP3   OH250336   7.952   6.478  11.244  0.2109  0.0969 -0.3788
 8714TIP3    H150337   8.003   6.538  11.189  1.6629  0.6419  1.4647
 8714TIP3    H250338   7.863   6.513  11.242  0.5267  0.9103 -1.2372
 8715TIP3   OH250339   6.794   7.540  11.330 -0.8755 -0.1708 -0.1397
 8715TIP3    H150340   6.756   7.457  11.301 -3.0497  0.9378 -0.7318
 8715TIP3    H250341   6.842   7.518  11.409 -0.5058 -2.1591 -0.8586
 8716TIP3   OH250342   2.221   8.051  10.579  0.1193 -0.1123 -0.0510
 8716TIP3    H150343   2.154   8.017  10.639 -1.5915  0.4091 -1.5555
 8716TIP3    H250344   2.232   7.981  10.514 -0.8721  0.7701 -1.2220
 8717TIP3   OH250345   5.768   6.142  10.755 -0.1822  0.0716  0.5071
 8717TIP3    H150346   5.795   6.059  10.795  0.3538 -0.1848 -0.3561
 8717TIP3    H250347   5.850   6.184  10.729 -0.5252 -0.6053 -1.9158
 8718TIP3   OH250348   3.696   2.109  11.812 -0.0323  0.6577 -0.0389
 8718TIP3    H150349   3.751   2.186  11.823  0.5482  0.2629 -0.1058
 8718TIP3    H250350   3.731   2.065  11.734  0.4669 -0.3499  0.7347
 8719TIP3   OH250351   6.345   2.039  11.440 -0.1623 -0.1032  0.4472
 8719TIP3    H150352   6.283   2.012  11.508  1.2622  0.9480  2.2562
 8719TIP3    H250353   6.294   2.097  11.384 -1.6399 -1.7751 -0.0399
 8720TIP3   OH250354   5.140   5.975  12.070  0.0766  0.2326 -0.5639
 8720TIP3    H150355   5.082   5.922  12.125 -0.3424  1.2515  0.0012
 8720TIP3    H250356   5.163   6.050  12.125  2.4701 -0.4468 -0.5203
 8721TIP3   OH250357   6.533   2.826  11.479  0.3932 -0.0369  0.2613
 8721TIP3    H150358   6.471   2.898  11.491  1.2688  0.6784  0.7129
 8721TIP3    H250359   6.498   2.775  11.407  0.6742  1.8976 -1.3601
 8722TIP3   OH250360   7.982   6.221  11.322 -0.3363  0.0482  0.2421
 8722TIP3    H150361   8.070   6.227  11.287 -0.5687  1.1821 -0.2109
 8722TIP3    H250362   7.934   6.292  11.279 -1.0806  0.3885  1.5650
 8723TIP3   OH250363   4.861   6.972  11.795 -0.0027  0.4182  0.5908
 8723TIP3    H150364   4.795   7.033  11.761  0.3447  1.1297  1.1661
 8723TIP3    H250365   4.875   6.999  11.885  1.7258  0.8556  0.2313
 8724TIP3   OH250366   1.433   2.585  11.332 -0.5200  0.0044 -0.5022
 8724TIP3    H150367   1.367   2.594  11.402  0.3546  1.3048  0.2075
 8724TIP3    H250368   1.504   2.536  11.373  0.5921  1.9452  0.0277
 8725TIP3   OH250369   3.164   5.693  10.641  0.4308  0.0114  0.0605
 8725TIP3    H150370   3.208   5.609  10.631  0.5717  0.0392  0.4157
 8725TIP3    H250371   3.180   5.718  10.732 -1.4536 -0.6126  0.6063
 8726TIP3   OH250372   0.145   5.040  11.975 -1.0207 -0.0332  0.0959
 8726TIP3    H150373   0.081   5.111  11.976  0.9103  1.8504 -0.2717
 8726TIP3    H250374   0.142   5.005  11.886 -1.0633  0.5260 -0.1262
 8727TIP3   OH250375   2.805   7.013  10.392  0.5234  0.0064  0.0204
 8727TIP3    H150376   2.759   6.978  10.469  0.9812  0.0207  0.3034
 8727TIP3    H250377   2.735   7.048  10.336  0.0332 -1.4362 -0.3161
 8728TIP3   OH250378   1.867   7.285  11.636 -0.1614 -0.0066 -0.2022
 8728TIP3    H150379   1.852   7.206  11.690 -3.3288  0.4778 -0.2107
 8728TIP3    H250380   1.844   7.258  11.547 -0.3968  0.6869 -0.3544
 8729TIP3   OH250381   2.424   4.917  10.888 -0.1444  0.2324 -0.0630
 8729TIP3    H150382   2.370   4.960  10.954  0.7995  0.4050  0.6141
 8729TIP3    H250383   2.470   4.990  10.845  0.4665 -0.0056  0.1895
 8730TIP3   OH250384   6.565   1.694  11.687  0.0016  0.1553  0.2438
 8730TIP3    H150385   6.541   1.754  11.757 -2.0349 -1.0125  0.6242
 8730TIP3    H250386   6.524   1.611  11.711  1.7318 -1.1015 -0.8623
 8731TIP3   OH250387   1.041   4.119  10.408 -0.2388 -0.0759 -0.5998
 8731TIP3    H150388   1.021   4.135  10.501 -0.1883  0.8080 -0.7386
 8731TIP3    H250389   0.959   4.084  10.373  0.1631 -1.8580  0.0868
 8732TIP3   OH250390   4.043   6.631  12.201 -0.7009 -0.5424 -0.7351
 8732TIP3    H150391   4.131   6.653  12.231 -0.1279 -0.5144 -2.3226
 8732TIP3    H250392   4.056   6.591  12.115 -2.3112  1.0088 -1.7905
 8733TIP3   OH250393   5.991   6.662  12.280 -0.2103 -0.1171  0.0719
 8733TIP3    H150394   5.971   6.663  12.373 -1.9113  1.6380 -0.2571
 8733TIP3    H250395   6.066   6.722  12.272  0.3061 -0.7076  0.3465
 8734TIP3   OH250396   5.143   3.790  11.939 -0.8459  0.0921 -0.1305
 8734TIP3    H150397   5.126   3.812  12.031 -2.5930  0.0686 -0.4083
 8734TIP3    H250398   5.174   3.699  11.941  2.6888  1.1638  0.6887
 8735TIP3   OH250399   2.083   8.087  11.058 -0.4783 -0.4082 -0.2266
 8735TIP3    H150400   2.038   8.169  11.080 -0.0672 -0.2777  0.1434
 8735TIP3    H250401   2.023   8.019  11.088  0.1694 -0.2317  1.5981
 8736TIP3   OH250402   5.291   4.325  12.354 -0.3445 -0.3778  0.2112
 8736TIP3    H150403   5.386   4.310  12.353 -0.1533  0.6384  1.0974
 8736TIP3    H250404   5.257   4.260  12.415 -0.5428 -2.1964 -1.6973
 8737TIP3   OH250405   0.687   4.085  11.102 -0.3131  0.5496  0.2872
 8737TIP3    H150406   0.682   4.096  11.007 -1.1041 -1.0364  0.1171
 8737TIP3    H250407   0.759   4.024  11.116 -1.1113 -0.3365  0.5939
 8738TIP3   OH250408   0.825   7.040  11.787 -0.2070 -0.3094  0.1073
 8738TIP3    H150409   0.891   7.002  11.729  0.6085 -1.0849  1.5099
 8738TIP3    H250410   0.844   7.134  11.787  1.8558 -0.6756  1.6071
 8739TIP3   OH250411   4.615   0.631  11.096 -0.5821  0.3957  0.4056
 8739TIP3    H150412   4.543   0.693  11.089 -0.8165 -0.0555 -2.8268
 8739TIP3    H250413   4.693   0.686  11.103 -0.7946  1.1968 -2.2542
 8740TIP3   OH250414   3.170   3.645  11.585 -0.4382  0.4028 -0.1250
 8740TIP3    H150415   3.146   3.646  11.678  1.3962 -1.7102  0.4534
 8740TIP3    H250416   3.265   3.631  11.585 -0.2297  1.4353 -2.3310
 8741TIP3   OH250417   0.102   2.830  10.888 -0.3055  0.1601  0.3611
 8741TIP3    H150418   0.038   2.842  10.818 -0.1353  2.5293  0.5472
 8741TIP3    H250419   0.051   2.839  10.968 -0.4178 -2.0955  0.5964
 8742TIP3   OH250420   1.224   0.421  11.756  0.0161 -0.3780  0.0213
 8742TIP3    H150421   1.132   0.442  11.773  0.1278 -0.5207  0.8176
 8742TIP3    H250422   1.224   0.328  11.735  0.2078 -0.8393  1.9340
 8743TIP3   OH250423   7.020   5.054  12.441 -0.4052 -0.2116  0.3046
 8743TIP3    H150424   7.080   5.015  12.378 -1.0968  0.9996 -1.1910
 8743TIP3    H250425   7.041   5.147  12.440 -0.1840 -0.2083  2.1963
 8744TIP3   OH250426   3.954   6.881  12.510  0.8071  0.2745 -0.1826
 8744TIP3    H150427   4.021   6.925  12.564  1.4462  1.6772 -2.0244
 8744TIP3    H250428   3.902   6.953  12.474 -0.0579 -0.6764 -0.8793
 8745TIP3   OH250429   4.331   7.741  12.046  0.4820 -0.6121 -0.2815
 8745TIP3    H150430   4.350   7.706  11.959  1.3629 -1.9060  0.3885
 8745TIP3    H250431   4.241   7.712  12.064  0.3006 -0.3492 -0.7524
 8746TIP3   OH250432   1.482   2.579  11.654 -0.2435  0.1049 -0.1540
 8746TIP3    H150433   1.529   2.510  11.609  0.7242 -0.4707  1.6348
 8746TIP3    H250434   1.414   2.534  11.704 -0.2046  0.5352  0.2978
 8747TIP3   OH250435   2.300   1.458  11.471  0.4113  0.2307 -0.0860
 8747TIP3    H150436   2.262   1.542  11.443  0.6643  1.1702  2.1973
 8747TIP3    H250437   2.225   1.399  11.478  0.1719  0.3645 -1.2608
 8748TIP3   OH250438   2.808   5.755  12.171  0.1283  0.0625  0.0600
 8748TIP3    H150439   2.898   5.753  12.139 -0.7376 -0.5480 -2.6097
 8748TIP3    H250440   2.803   5.682  12.232  1.0310 -1.0601 -1.1363
 8749TIP3   OH250441   1.382   0.596  11.888 -0.2251 -0.4503 -0.4313
 8749TIP3    H150442   1.417   0.547  11.962  2.0697  0.5858 -0.7410
 8749TIP3    H250443   1.332   0.532  11.838 -0.3275 -1.5779  1.0534
 8750TIP3   OH250444   0.206   8.279  11.809  0.1366 -0.3831  0.1125
 8750TIP3    H150445   0.125   8.280  11.861  0.7800 -1.8897  1.2254
 8750TIP3    H250446   0.206   8.363  11.763 -0.9647  0.5980  1.7832
 8751TIP3   OH250447   7.325   5.329  10.488 -0.3949 -0.4824 -0.2540
 8751TIP3    H150448   7.376   5.386  10.430 -0.5781 -1.2033 -1.1320
 8751TIP3    H250449   7.265   5.389  10.533  1.6206  0.5037  1.3086
 8752TIP3   OH250450   3.127   2.661  11.821 -0.0859 -0.7663  0.0298
 8752TIP3    H150451   3.056   2.665  11.757 -0.5369  0.7152  0.5837
 8752TIP3    H250452   3.202   2.702  11.777 -0.4572  0.4518  0.4913
 8753TIP3   OH250453   2.641   3.720  12.278 -0.2783 -0.6860 -0.0784
 8753TIP3    H150454   2.662   3.806  12.241  1.6112 -0.4741  1.2925
 8753TIP3    H250455   2.559   3.734  12.326  0.4581  0.6196  0.8626
 8754TIP3   OH250456   5.607   4.220  11.323 -0.0923 -0.2330  0.0802
 8754TIP3    H150457   5.582   4.312  11.316  2.0882  0.4457  0.4029
 8754TIP3    H250458   5.675   4.209  11.257  1.6674 -0.8157  1.8770
 8755TIP3   OH250459   3.633   2.667  12.054 -0.0307 -0.6083 -0.1274
 8755TIP3    H150460   3.568   2.672  11.984  0.0207 -0.3897 -0.1587
 8755TIP3    H250461   3.716   2.656  12.008 -0.0331 -0.7939 -0.0901
 8756TIP3   OH250462   6.241   8.280  12.179  0.0855 -0.4260 -0.1389
 8756TIP3    H150463   6.182   8.254  12.250 -0.5676 -1.0083 -0.8653
 8756TIP3    H250464   6.324   8.299  12.222  0.1773 -2.3228  0.6388
 8757TIP3   OH250465   1.196   2.339  11.287 -0.8595 -0.3444  0.7412
 8757TIP3    H150466   1.105   2.318  11.309 -0.7560 -0.5738  0.9510
 8757TIP3    H250467   1.240   2.349  11.371 -0.8048  0.2948  0.6466
 8758TIP3   OH250468   0.420   4.679  11.826 -0.5101  0.1319  0.1898
 8758TIP3    H150469   0.464   4.645  11.904  0.2420 -0.1484 -0.3536
 8758TIP3    H250470   0.476   4.653  11.753 -0.5384  1.5004 -0.3469
 8759TIP3   OH250471   1.711   8.335  11.800 -0.0616 -0.4349 -0.4568
 8759TIP3    H150472   1.686   8.245  11.781 -0.2594 -0.1317 -1.7198
 8759TIP3    H250473   1.734   8.335  11.893 -1.7937 -1.4086  0.0097
 8760TIP3   OH250474   5.584   5.489  12.056 -0.6830 -0.2046 -0.1850
 8760TIP3    H150475   5.597   5.460  11.965 -0.7465 -0.1444 -0.2127
 8760TIP3    H250476   5.647   5.437  12.106  1.5364  1.8674 -0.6328
 8761TIP3   OH250477   2.145   5.595  11.686  0.3788 -0.0442 -0.5180
 8761TIP3    H150478   2.126   5.547  11.605  2.2326 -2.1711  0.1890
 8761TIP3    H250479   2.071   5.575  11.743  0.7977 -1.6114 -0.4754
 8762TIP3   OH250480   6.951   1.711  11.105 -0.4207  0.2801 -0.3973
 8762TIP3    H150481   7.024   1.740  11.050 -0.1556  0.4836  0.0609
 8762TIP3    H250482   6.877   1.704  11.044  0.2940 -1.2606 -1.1394
 8763TIP3   OH250483   7.356   3.539  11.784 -0.6804 -0.0123 -0.0095
 8763TIP3    H150484   7.390   3.482  11.853  0.9237  0.4397 -0.3960
 8763TIP3    H250485   7.432   3.559  11.729 -1.8297 -0.0435 -1.7055
 8764TIP3   OH250486   3.761   3.107  16.830 -0.3104 -0.0896 -0.1617
 8764TIP3    H150487   3.674   3.087  16.865 -0.7577  1.7781 -0.1276
 8764TIP3    H250488   3.747   3.113  16.735 -0.6153  1.8749 -0.0283
 8765TIP3   OH250489   1.591   1.191  10.949  0.1171  0.1148  0.7256
 8765TIP3    H150490   1.622   1.125  11.012 -0.9771 -1.6139 -0.4582
 8765TIP3    H250491   1.567   1.140  10.871  1.2346  2.1525 -1.0481
 8766TIP3   OH250492   1.010   1.879  10.753 -0.3770  0.0346 -0.3847
 8766TIP3    H150493   1.017   1.946  10.685 -0.6528 -0.0295 -0.4756
 8766TIP3    H250494   1.013   1.796  10.706 -1.1480 -0.0074 -0.3815
 8767TIP3   OH250495   1.001   6.928  11.643 -0.0860 -0.0755  0.7397
 8767TIP3    H150496   0.961   6.945  11.558  1.8882 -0.6394 -0.3350
 8767TIP3    H250497   1.060   6.854  11.629  0.6666  0.1403  2.4770
 8768TIP3   OH250498   8.136   5.657  10.761 -0.1530 -0.4249  0.1156
 8768TIP3    H150499   8.118   5.587  10.825 -3.1066 -0.8555 -1.0231
 8768TIP3    H250500   8.128   5.614  10.676  1.5747  0.6088 -0.6193
 8769TIP3   OH250501   7.218   1.995  13.114 -0.0566 -0.0245  0.2905
 8769TIP3    H150502   7.230   2.043  13.032 -3.9838  3.6427  1.4623
 8769TIP3    H250503   7.166   1.919  13.089  0.5769 -0.1094 -0.8481
 8770TIP3   OH250504   6.286   1.649  12.313 -0.3984  0.2514 -0.4109
 8770TIP3    H150505   6.298   1.721  12.250 -2.1869  1.1627  0.2180
 8770TIP3    H250506   6.191   1.640  12.320 -0.2306 -0.3874  1.5244
 8771TIP3   OH250507   3.571   0.671  10.966  0.5900  0.1303 -0.1387
 8771TIP3    H150508   3.596   0.659  11.058  1.3581  0.1751 -0.3377
 8771TIP3    H250509   3.629   0.612  10.917  1.2723  1.2684 -0.7339
 8772TIP3   OH250510   1.428   6.542  11.539  0.6537  0.0605 -0.1399
 8772TIP3    H150511   1.511   6.573  11.574  1.0987 -0.1550 -0.9768
 8772TIP3    H250512   1.378   6.622  11.524  0.7811  0.2036  0.1842
 8773TIP3   OH250513   8.098   0.842  11.565  0.3354  0.0150 -0.3505
 8773TIP3    H150514   8.150   0.800  11.497 -0.2706  0.4199 -1.0814
 8773TIP3    H250515   8.020   0.788  11.573 -0.2690  0.7671 -1.0232
 8774TIP3   OH250516   7.940   2.616  10.746 -0.2422 -0.1159 -0.3697
 8774TIP3    H150517   7.920   2.665  10.825 -1.3492 -2.0401  0.6034
 8774TIP3    H250518   7.876   2.646  10.682  0.8082  1.6240 -0.6836
 8775TIP3   OH250519   3.808   7.753  12.031  0.4115 -0.0098  0.3391
 8775TIP3    H150520   3.736   7.807  12.063 -0.1031 -0.8253  0.6105
 8775TIP3    H250521   3.814   7.681  12.094  2.3628  0.7358  1.0713
 8776TIP3   OH250522   3.008   1.054  16.694  0.2606  0.0041  0.6282
 8776TIP3    H150523   2.927   1.069  16.742 -2.1861 -0.8578 -2.7956
 8776TIP3    H250524   3.045   0.975  16.731 -0.4429  0.4072  2.2664
 8777TIP3   OH250525   4.521   4.098  10.832 -0.0365 -0.6818  0.2485
 8777TIP3    H150526   4.602   4.051  10.810 -0.1646 -1.1441  0.7485
 8777TIP3    H250527   4.506   4.079  10.925 -0.1873  0.2162  0.4148
 8778TIP3   OH250528   4.954   1.303  12.176  0.0579  1.2330  0.2662
 8778TIP3    H150529   4.916   1.339  12.256 -1.9832  0.1177 -0.1496
 8778TIP3    H250530   4.883   1.255  12.135  1.7679 -0.4096 -0.9147
 8779TIP3   OH250531   1.940   2.638  10.511 -0.0580 -0.0090 -0.2819
 8779TIP3    H150532   1.869   2.588  10.553  0.4013 -0.5445 -0.1307
 8779TIP3    H250533   1.910   2.729  10.514 -0.7421 -0.2297 -0.2222
 8780TIP3   OH250534   1.805   0.428  11.297 -0.7617 -0.2944 -0.0096
 8780TIP3    H150535   1.817   0.503  11.238 -0.3024  0.1382  0.6218
 8780TIP3    H250536   1.718   0.395  11.276 -1.2679  0.8662  0.2052
 8781TIP3   OH250537   6.341   3.965  12.617  0.5079  0.0227  0.4146
 8781TIP3    H150538   6.354   4.039  12.676  1.8550 -0.6766  1.0555
 8781TIP3    H250539   6.307   3.896  12.673 -0.5664  0.0824 -0.1433
 8782TIP3   OH250540   2.966   5.637  12.522  0.1764  0.1604 -0.6320
 8782TIP3    H150541   2.937   5.616  12.611  0.2549 -0.0940 -0.6653
 8782TIP3    H250542   2.885   5.650  12.473  0.1275  0.0118 -0.5916
 8783TIP3   OH250543   5.013   0.954  10.809  0.0220  0.4241  0.1480
 8783TIP3    H150544   4.995   0.998  10.726 -1.1692  2.9518  1.6463
 8783TIP3    H250545   4.997   0.861  10.790  0.3561  0.8414 -2.5569
 8784TIP3   OH250546   1.458   3.651  10.955 -0.3091  0.3728  0.3998
 8784TIP3    H150547   1.535   3.662  11.011 -0.3196 -1.5844  0.8984
 8784TIP3    H250548   1.486   3.682  10.869  1.3169 -0.9149  0.3930
 8785TIP3   OH250549   2.549   7.976  11.802 -0.2243  0.0217  0.3193
 8785TIP3    H150550   2.499   8.058  11.804 -0.6943 -0.2805  1.4288
 8785TIP3    H250551   2.625   7.996  11.747  0.8142  1.8877  2.2549
 8786TIP3   OH250552   5.789   5.376  11.212 -0.2152 -0.0100  0.1524
 8786TIP3    H150553   5.739   5.437  11.158  0.0102  0.6868  0.7114
 8786TIP3    H250554   5.781   5.411  11.301 -0.5936 -1.1405  0.5907
 8787TIP3   OH250555   2.957   5.399  12.139  0.0144  0.0826 -0.4750
 8787TIP3    H150556   2.911   5.459  12.080  0.0812 -1.1414 -1.8322
 8787TIP3    H250557   3.028   5.450  12.176 -0.9845  1.3293 -0.2116
 8788TIP3   OH250558   8.101   7.346  11.670 -0.2830  0.3789  0.2301
 8788TIP3    H150559   8.180   7.369  11.720 -0.8059  1.6201  0.5257
 8788TIP3    H250560   8.044   7.422  11.680 -1.3484 -0.3272 -0.3388
 8789TIP3   OH250561   7.840   0.887  11.267  0.2696 -0.2114 -0.3023
 8789TIP3    H150562   7.864   0.959  11.324 -1.5747  0.0666  0.1720
 8789TIP3    H250563   7.887   0.811  11.302  1.7658  0.5962 -0.4655
 8790TIP3   OH250564   7.906   1.422  11.067  0.4388  0.2649  0.3752
 8790TIP3    H150565   7.959   1.474  11.128  0.1881 -1.1239  1.8404
 8790TIP3    H250566   7.818   1.424  11.104 -0.1174  0.8288 -0.9161
 8791TIP3   OH250567   6.440   1.095  13.103 -0.9126  0.2907 -0.3256
 8791TIP3    H150568   6.497   1.096  13.027 -2.3750 -1.3285 -1.5063
 8791TIP3    H250569   6.497   1.120  13.176  0.7942  0.7230 -1.7429
 8792TIP3   OH250570   2.912   5.065  11.127 -0.8519 -0.5068  0.5065
 8792TIP3    H150571   2.890   5.112  11.207 -0.1104  0.4427  0.1772
 8792TIP3    H250572   2.835   5.074  11.072 -1.5329 -1.5351  1.2617
 8793TIP3   OH250573   1.761   4.994  11.327  0.0933  0.2061  0.1562
 8793TIP3    H150574   1.854   5.012  11.315  0.2640 -1.1309 -0.8001
 8793TIP3    H250575   1.757   4.899  11.337 -1.0379  0.3768  1.6492
 8794TIP3   OH250576   3.961   1.822  11.138  0.1919  0.4731 -0.3623
 8794TIP3    H150577   4.024   1.837  11.068 -0.6281  4.5384 -0.5114
 8794TIP3    H250578   4.011   1.834  11.219  0.7909 -2.5759 -0.1948
 8795TIP3   OH250579   3.115   2.633  12.379  0.1408 -0.0518 -0.3535
 8795TIP3    H150580   3.107   2.631  12.475 -1.3338  0.0835 -0.4550
 8795TIP3    H250581   3.112   2.726  12.357 -2.2860 -0.1415 -0.6890
 8796TIP3   OH250582   5.079   4.601  11.994 -0.6055  0.2658  0.3304
 8796TIP3    H150583   5.020   4.659  12.042 -1.3433  0.4274 -0.7322
 8796TIP3    H250584   5.092   4.645  11.910  0.5479 -0.0728  0.3261
 8797TIP3   OH250585   0.316   7.648  10.646 -0.3248 -0.1022 -0.4595
 8797TIP3    H150586   0.254   7.604  10.587  0.5893  0.8744 -2.2559
 8797TIP3    H250587   0.387   7.585  10.658 -1.3058 -0.9717  1.0732
 8798TIP3   OH250588   7.613   4.558  11.616 -0.3006  0.2206  0.6532
 8798TIP3    H150589   7.603   4.497  11.689 -1.1025  0.1782  0.5120
 8798TIP3    H250590   7.706   4.552  11.593 -0.5673 -1.7651 -0.0585
 8799TIP3   OH250591   4.476   1.785  10.909  0.1423  0.3134  0.5389
 8799TIP3    H150592   4.441   1.696  10.921  0.4438  0.2797  1.2088
 8799TIP3    H250593   4.541   1.794  10.978 -0.7807  1.5251  1.2830
 8800TIP3   OH250594   5.534   4.719  12.744  0.2398  0.2770  0.4829
 8800TIP3    H150595   5.623   4.746  12.723  1.3110 -2.0714  1.7219
 8800TIP3    H250596   5.503   4.677  12.663 -0.2073  2.0017 -0.3034
 8801TIP3   OH250597   7.746   2.141  10.884  0.2423 -0.3406 -0.2038
 8801TIP3    H150598   7.696   2.147  10.803 -1.8309  3.1478  1.1094
 8801TIP3    H250599   7.825   2.192  10.866 -1.0415  1.9773  0.3786
 8802TIP3   OH250600   2.807   4.022  11.643  0.1101 -0.2505 -0.1359
 8802TIP3    H150601   2.796   4.061  11.730 -0.5248 -0.6393 -0.0333
 8802TIP3    H250602   2.897   3.989  11.643  0.1302 -0.2069  0.3627
 8803TIP3   OH250603   5.993   2.813  11.559 -0.5689  0.2484  0.1940
 8803TIP3    H150604   5.971   2.732  11.513  1.8506 -1.5337  1.9485
 8803TIP3    H250605   5.962   2.799  11.648  0.9816  0.7029  0.8263
 8804TIP3   OH250606   6.059   0.771  12.474  0.1235  0.2159  0.3644
 8804TIP3    H150607   6.052   0.825  12.552  0.9660 -0.5700  0.9896
 8804TIP3    H250608   5.976   0.723  12.471 -0.2824  0.9036  0.2605
 8805TIP3   OH250609   3.308   1.048  12.131  0.6161 -0.8560 -1.1660
 8805TIP3    H150610   3.345   1.134  12.152  0.7898 -1.3001  0.4987
 8805TIP3    H250611   3.238   1.067  12.068 -1.7820  1.0372  1.7257
 8806TIP3   OH250612   3.627   1.370  11.360  0.6384 -0.7293  0.2458
 8806TIP3    H150613   3.662   1.337  11.277  0.1662  1.2409 -0.8145
 8806TIP3    H250614   3.700   1.415  11.401  0.0849  1.2258 -0.7800
 8807TIP3   OH250615   3.979   7.598  10.871 -0.0116 -0.9226 -0.3309
 8807TIP3    H150616   4.050   7.641  10.919 -0.2360  0.3377 -1.0812
 8807TIP3    H250617   3.983   7.637  10.783 -2.3529  0.0547 -0.0788
 8808TIP3   OH250618   3.728   5.319  10.477 -0.1583  1.0185 -0.3180
 8808TIP3    H150619   3.746   5.413  10.477  0.1114  1.0069 -2.0106
 8808TIP3    H250620   3.806   5.280  10.516  0.1484  1.4460 -0.4900
 8809TIP3   OH250621   7.885   8.387  11.103 -0.2179 -0.0836 -0.0951
 8809TIP3    H150622   7.906   8.294  11.104  0.3796 -0.0288 -2.2635
 8809TIP3    H250623   7.826   8.399  11.178  0.7071 -1.9230  1.0150
 8810TIP3   OH250624   1.536   4.440  10.799  0.2769  0.2555  0.2232
 8810TIP3    H150625   1.527   4.480  10.712  0.4610 -1.0589 -0.4228
 8810TIP3    H250626   1.534   4.346  10.783 -0.2955 -0.0196  1.7201
 8811TIP3   OH250627   4.383   2.659  12.578 -0.2867  0.3106  0.0018
 8811TIP3    H150628   4.403   2.752  12.589  0.9758  0.0099  0.4058
 8811TIP3    H250629   4.442   2.614  12.639  0.4322 -0.8623 -1.4806
 8812TIP3   OH250630   0.955   1.543  11.390  0.2360  0.1923  0.4736
 8812TIP3    H150631   0.903   1.484  11.336  0.1013 -0.7153  1.5543
 8812TIP3    H250632   1.015   1.586  11.329 -0.0000 -0.6963 -0.4079
 8813TIP3   OH250633   2.737   1.245  12.016  0.0412  0.5081  0.3206
 8813TIP3    H150634   2.807   1.246  11.950  0.0269  2.6348  0.2758
 8813TIP3    H250635   2.679   1.317  11.991 -0.5650  0.6662  2.0416
 8814TIP3   OH250636   1.741   3.520  12.028 -0.1686 -0.5621  0.3572
 8814TIP3    H150637   1.721   3.609  11.998 -0.6124 -0.5271  0.7456
 8814TIP3    H250638   1.799   3.533  12.103 -2.2614 -0.4769  2.0393
 8815TIP3   OH250639   3.461   2.669  11.839  0.5194 -0.6987 -0.0289
 8815TIP3    H150640   3.443   2.577  11.859  3.2338 -1.8500 -2.0713
 8815TIP3    H250641   3.424   2.682  11.752 -0.4215  0.3714  0.5163
 8816TIP3   OH250642   6.144   2.255  10.910 -0.0338 -0.0996  0.2162
 8816TIP3    H150643   6.203   2.208  10.968 -0.3001 -2.5925 -1.3426
 8816TIP3    H250644   6.201   2.304  10.851  0.4163 -0.7087  0.1342
 8817TIP3   OH250645   2.139   2.129  12.483 -0.6674 -0.3629  0.6216
 8817TIP3    H150646   2.212   2.168  12.531 -0.7741 -0.2849  0.7214
 8817TIP3    H250647   2.102   2.065  12.543  0.2316 -1.4728  0.0361
 8818TIP3   OH250648   4.933   1.575  10.830 -0.2201 -0.4379  0.0242
 8818TIP3    H150649   4.943   1.480  10.840 -1.3760 -0.5308  0.5632
 8818TIP3    H250650   5.003   1.613  10.884 -1.0530 -0.9981  1.5801
 8819TIP3   OH250651   3.711   4.182  11.192  0.0249 -0.0111  0.6133
 8819TIP3    H150652   3.777   4.188  11.262  0.8520  0.7178 -0.1891
 8819TIP3    H250653   3.712   4.269  11.152 -0.3759 -0.4366 -0.3454
 8820TIP3   OH250654   3.090   1.690  11.965  0.1804 -0.4234  0.0143
 8820TIP3    H150655   3.139   1.612  11.992 -1.8441 -1.6509  0.4056
 8820TIP3    H250656   3.061   1.670  11.876  1.0117  0.6041 -0.4918
 8821TIP3   OH250657   5.917   2.155  12.737  0.1329 -0.2445  0.3597
 8821TIP3    H150658   5.974   2.122  12.667 -0.3636  0.5121 -0.4386
 8821TIP3    H250659   5.878   2.077  12.776  0.9249 -0.7141  0.2237
 8822TIP3   OH250660   8.308   3.335  10.738  0.0231  0.6406  0.3925
 8822TIP3    H150661   8.353   3.367  10.660  1.2973 -1.0194  0.3681
 8822TIP3    H250662   8.219   3.315  10.708 -0.0329  1.6613 -0.1783
 8823TIP3   OH250663   2.148   5.336  11.092  0.0778 -0.2799 -0.4175
 8823TIP3    H150664   2.083   5.314  11.159 -0.3401 -1.1125 -1.0893
 8823TIP3    H250665   2.117   5.419  11.054 -1.1456 -1.1667 -1.4192
 8824TIP3   OH250666   2.494   1.255  11.333 -0.8731 -0.5051 -0.3809
 8824TIP3    H150667   2.448   1.319  11.387 -2.2568 -1.2014 -0.6718
 8824TIP3    H250668   2.547   1.204  11.395 -1.0670 -0.1547  0.0734
 8825TIP3   OH250669   1.672   5.408  10.839 -0.1475 -0.1768 -0.2705
 8825TIP3    H150670   1.754   5.364  10.859  0.1550  0.6591  0.4004
 8825TIP3    H250671   1.673   5.419  10.744  0.3445 -0.5069 -0.3052
 8826TIP3   OH250672   0.272   6.923  12.142  0.2885  0.0748 -0.0246
 8826TIP3    H150673   0.296   6.830  12.140  1.7628  0.3728  1.3744
 8826TIP3    H250674   0.180   6.924  12.168  0.5087 -0.9788  0.8597
 8827TIP3   OH250675   1.164   2.337  10.722 -0.0103 -0.1155  0.1908
 8827TIP3    H150676   1.130   2.330  10.811  1.7033  0.0720  0.9010
 8827TIP3    H250677   1.255   2.307  10.728 -0.3574 -1.8079 -1.8560
 8828TIP3   OH250678   4.884   8.054  11.283 -0.0691  0.0270  0.1948
 8828TIP3    H150679   4.958   8.052  11.344  0.3252 -1.0495 -0.3026
 8828TIP3    H250680   4.879   7.965  11.247 -0.5035  0.5515 -1.1030
 8829TIP3   OH250681   2.876   2.803  13.095  0.1913 -0.4527  0.3610
 8829TIP3    H150682   2.948   2.844  13.047 -0.0120 -0.0636  0.3860
 8829TIP3    H250683   2.907   2.714  13.114  0.8404 -0.1561  0.7384
 8830TIP3   OH250684   8.092   6.077  10.492  0.1811 -0.3463  0.0629
 8830TIP3    H150685   8.067   6.011  10.427  0.2174  0.1623 -0.4833
 8830TIP3    H250686   8.186   6.089  10.479 -0.2797  1.8717 -1.8504
 8831TIP3   OH250687   5.645   6.059  11.070  0.6122 -0.4870 -0.0559
 8831TIP3    H150688   5.614   6.148  11.057  2.1031 -0.0075 -0.4849
 8831TIP3    H250689   5.681   6.057  11.158 -0.8420 -1.1378  0.5698
 8832TIP3   OH250690   6.699   7.548  10.731 -0.3618  0.2368 -0.5317
 8832TIP3    H150691   6.701   7.486  10.804  0.2549  1.1944  0.3025
 8832TIP3    H250692   6.634   7.613  10.757 -0.7416  0.1461 -1.2293
 8833TIP3   OH250693   6.487   4.340  11.325  0.1259  0.0004 -0.1609
 8833TIP3    H150694   6.405   4.371  11.364  1.0759  1.3704  0.8332
 8833TIP3    H250695   6.459   4.283  11.254 -1.7018 -1.2270  1.4261
 8834TIP3   OH250696   5.788   5.019  10.852  0.5056  0.7018  0.7259
 8834TIP3    H150697   5.735   5.076  10.797  0.4275  0.0884  0.1467
 8834TIP3    H250698   5.872   5.013  10.808 -0.1571 -1.3007 -0.3973
 8835TIP3   OH250699   8.274   0.157  11.657 -0.3134 -0.3008 -0.0060
 8835TIP3    H150700   8.262   0.070  11.619 -0.6890 -0.2183 -0.0799
 8835TIP3    H250701   8.192   0.175  11.703  0.1124 -0.3748  0.7965
 8836TIP3   OH250702   4.112   6.365  12.101  0.1270  0.5849 -0.0014
 8836TIP3    H150703   4.044   6.330  12.043 -0.4969  1.2361  0.3176
 8836TIP3    H250704   4.193   6.323  12.071 -0.2348  0.6405 -1.1058
 8837TIP3   OH250705   5.715   7.113  10.728  0.3118 -0.0032  0.1931
 8837TIP3    H150706   5.653   7.054  10.686  0.6312  0.1363 -0.4989
 8837TIP3    H250707   5.672   7.199  10.726 -1.0180 -0.5008  3.0005
 8838TIP3   OH250708   3.007   4.659  12.176 -0.2958  0.2213 -0.0401
 8838TIP3    H150709   2.958   4.729  12.220  1.3609  0.9364  0.7410
 8838TIP3    H250710   3.097   4.672  12.204 -0.0873 -3.0141  1.1740
 8839TIP3   OH250711   1.948   3.960  11.339  0.1405  0.0827 -0.4446
 8839TIP3    H150712   1.875   3.961  11.277  0.3602 -0.6218 -0.7277
 8839TIP3    H250713   1.978   3.869  11.339 -0.4696 -0.1523  1.4242
 8840TIP3   OH250714   0.004   0.262  11.328  0.1413  0.2996  0.3846
 8840TIP3    H150715   0.024   0.352  11.302  1.5484 -0.2390 -0.4800
 8840TIP3    H250716   0.045   0.253  11.414 -1.8505  1.1052  1.5035
 8841TIP3   OH250717   4.556   5.812  11.711 -0.0547 -0.7643 -0.0822
 8841TIP3    H150718   4.467   5.839  11.731  0.0271 -1.3417  1.1708
 8841TIP3    H250719   4.572   5.843  11.622 -1.4781 -0.6131 -0.2949
 8842TIP3   OH250720   7.042   5.969  10.613  0.0977 -0.1862  0.0153
 8842TIP3    H150721   7.000   5.907  10.673  0.0031  0.7029  0.8971
 8842TIP3    H250722   7.089   6.030  10.670  0.0257  0.6773 -0.8149
 8843TIP3   OH250723   2.474   0.933  10.924  0.0837 -0.0169  0.3747
 8843TIP3    H150724   2.538   0.905  10.990  0.2171 -1.1376 -0.2008
 8843TIP3    H250725   2.448   1.021  10.951  0.9449 -0.0333  1.3120
 8844TIP3   OH250726   5.907   6.319  11.485 -0.1123 -0.3976  0.4800
 8844TIP3    H150727   5.876   6.228  11.494 -2.0325  0.0916 -0.5316
 8844TIP3    H250728   5.826   6.371  11.480  0.9381  1.2531 -0.0343
 8845TIP3   OH250729   3.273   7.307  11.757  0.4324  1.0346  0.0296
 8845TIP3    H150730   3.321   7.262  11.826 -1.4155  1.1881  1.4671
 8845TIP3    H250731   3.279   7.248  11.682  0.0910 -0.5058  1.1549
 8846TIP3   OH250732   3.995   2.497  10.564 -0.2263  0.5773  0.2864
 8846TIP3    H150733   3.988   2.591  10.580 -0.1868  0.8427 -1.1417
 8846TIP3    H250734   3.913   2.474  10.520 -0.3506 -0.1135  0.8694
 8847TIP3   OH250735   8.167   7.435  12.466 -0.0422  0.0545  0.6810
 8847TIP3    H150736   8.192   7.347  12.492 -0.5327 -0.8486 -1.6533
 8847TIP3    H250737   8.073   7.440  12.480  0.1630  0.7424  2.0840
 8848TIP3   OH250738   6.654   1.269  10.876  0.3612 -0.0712 -0.2622
 8848TIP3    H150739   6.645   1.342  10.936  0.2410 -1.1936  1.1492
 8848TIP3    H250740   6.617   1.194  10.923 -0.8594 -0.7818 -2.2078
 8849TIP3   OH250741   5.314   5.971  10.834  0.1589 -0.4085 -0.0464
 8849TIP3    H150742   5.374   6.004  10.901  1.0667 -1.4905 -0.2855
 8849TIP3    H250743   5.304   6.044  10.773  1.3697 -0.2446 -0.0760
 8850TIP3   OH250744   3.551   3.569  10.554 -0.2352 -0.7677 -0.9402
 8850TIP3    H150745   3.585   3.658  10.545  0.0595 -0.6981  0.6141
 8850TIP3    H250746   3.627   3.515  10.574 -0.7344 -0.8908  0.8486
 8851TIP3   OH250747   4.799   6.311  11.681 -0.1864  0.0572  0.4361
 8851TIP3    H150748   4.732   6.243  11.677  1.7817 -2.0177  0.7192
 8851TIP3    H250749   4.771   6.368  11.753 -2.9431  0.8543 -1.0972
 8852TIP3   OH250750   4.792   4.349  12.020 -0.2569 -0.0982 -0.3380
 8852TIP3    H150751   4.823   4.278  12.077  0.9437 -0.2918 -1.2012
 8852TIP3    H250752   4.853   4.349  11.947 -0.8516  1.1766 -0.8531
 8853TIP3   OH250753   4.536   3.887  12.808 -0.1765  0.3039  0.2131
 8853TIP3    H150754   4.576   3.833  12.739 -2.4169 -0.7994 -0.3093
 8853TIP3    H250755   4.484   3.825  12.859 -3.5181  1.9659 -0.8845
 8854TIP3   OH250756   0.028   0.080  11.837 -0.1322 -0.0842  0.3959
 8854TIP3    H150757  -0.007   0.002  11.879  0.3699 -0.1804  0.6413
 8854TIP3    H250758  -0.005   0.076  11.747 -1.1814  0.1091  0.7544
 8855TIP3   OH250759   2.067   0.340  11.938  0.3287 -0.0096 -0.6021
 8855TIP3    H150760   2.160   0.356  11.954  0.4272 -1.1680  0.1231
 8855TIP3    H250761   2.030   0.323  12.025  0.0257 -2.3223 -1.1048
 8856TIP3   OH250762   6.159   5.396  10.925 -0.3211 -0.3212 -0.8313
 8856TIP3    H150763   6.177   5.337  10.851  2.6380 -0.9012  0.1965
 8856TIP3    H250764   6.144   5.337  10.999  0.9255  0.1685 -0.1556
 8857TIP3   OH250765   1.536   2.280  12.658 -0.5305  0.1743 -0.1310
 8857TIP3    H150766   1.492   2.318  12.734 -0.2042 -0.1297  0.2104
 8857TIP3    H250767   1.628   2.304  12.669 -0.5631  0.5783 -0.7033
 8858TIP3   OH250768   1.737   2.393  10.533  0.5951 -0.2894  0.1332
 8858TIP3    H150769   1.733   2.337  10.455 -3.6090 -0.5203  0.3224
 8858TIP3    H250770   1.715   2.335  10.606 -0.2811  0.8565  0.8138
 8859TIP3   OH250771   3.316   6.406  11.385  0.4106 -0.6161 -0.0668
 8859TIP3    H150772   3.363   6.356  11.452  0.3127  1.0492  1.3355
 8859TIP3    H250773   3.369   6.485  11.373 -0.3482 -0.2138 -0.8542
 8860TIP3   OH250774   2.616   0.495  11.565 -0.0946 -0.5739  0.2618
 8860TIP3    H150775   2.610   0.462  11.475  0.2345  1.4238 -0.5448
 8860TIP3    H250776   2.537   0.547  11.576 -0.1314 -0.8009  1.1599
 8861TIP3   OH250777   5.430   3.511  13.002 -0.5482  0.0794 -0.3811
 8861TIP3    H150778   5.401   3.517  12.911  0.2045 -0.5079 -0.6672
 8861TIP3    H250779   5.367   3.451  13.043 -0.6571  0.0301 -0.6167
 8862TIP3   OH250780   5.428   5.985  12.221  0.3310  0.1984  0.2614
 8862TIP3    H150781   5.352   6.042  12.208  0.8631  0.4894 -2.0855
 8862TIP3    H250782   5.491   6.039  12.268  0.7053  1.5359 -1.6536
 8863TIP3   OH250783   6.429   8.404  11.952  0.4649  0.5279  0.1918
 8863TIP3    H150784   6.382   8.439  12.028 -2.5404 -1.3117 -0.6366
 8863TIP3    H250785   6.457   8.317  11.979 -1.1537 -0.3842 -0.8772
 8864TIP3   OH250786   7.768   2.777  10.562 -0.1156 -0.1783  0.2563
 8864TIP3    H150787   7.768   2.855  10.506  0.6303 -0.4572 -0.1547
 8864TIP3    H250788   7.690   2.729  10.537  0.1525 -0.2439 -0.4765
 8865TIP3   OH250789   3.730   2.828  10.828 -0.2589 -0.1708  0.0687
 8865TIP3    H150790   3.638   2.811  10.851  0.4223 -0.3643  3.1103
 8865TIP3    H250791   3.777   2.749  10.856  0.8358 -0.3338 -1.9953
 8866TIP3   OH250792   5.839   3.359  12.037  0.1442  0.4193 -0.1882
 8866TIP3    H150793   5.751   3.336  12.008  0.1992  0.2379 -0.2137
 8866TIP3    H250794   5.891   3.361  11.957  0.3326 -0.2408 -0.0921
 8867TIP3   OH250795   6.503   5.654  12.990  0.2917 -0.0556 -0.1385
 8867TIP3    H150796   6.553   5.640  12.909  1.5324 -0.0814  0.6015
 8867TIP3    H250797   6.494   5.749  12.995 -0.6223 -0.0962 -0.7766
 8868TIP3   OH250798   3.312   6.994  10.774  0.1225  0.2607 -0.7195
 8868TIP3    H150799   3.341   6.935  10.843  0.7220  2.4068  0.9847
 8868TIP3    H250800   3.242   7.046  10.815 -0.9504  0.2264 -2.4052
 8869TIP3   OH250801   3.265   3.228  10.943  0.1614  0.6677  0.2024
 8869TIP3    H150802   3.249   3.217  10.849 -0.5423 -0.5914  0.4336
 8869TIP3    H250803   3.213   3.158  10.983 -0.5801  1.9776  1.6189
 8870TIP3   OH250804   4.128   6.295  11.582  0.1752 -0.3559  0.1221
 8870TIP3    H150805   4.104   6.204  11.600  1.3868 -1.0403 -1.4516
 8870TIP3    H250806   4.143   6.333  11.669 -0.7910 -1.4990  0.8342
 8871TIP3   OH250807   4.205   4.332  12.452  0.4826 -0.0374  0.0932
 8871TIP3    H150808   4.170   4.372  12.531  0.3991 -1.8745  1.0321
 8871TIP3    H250809   4.134   4.338  12.388  0.2375  0.6636  0.4174
 8872TIP3   OH250810   0.280   1.433  12.084 -0.3355  0.7431 -0.2893
 8872TIP3    H150811   0.194   1.409  12.119 -0.0898  2.0973  1.4034
 8872TIP3    H250812   0.338   1.362  12.112 -1.0399 -0.7738 -2.4291
 8873TIP3   OH250813   7.425   4.854  10.824 -0.0631 -0.0114 -0.3631
 8873TIP3    H150814   7.509   4.819  10.793  1.6681  3.6545 -0.4779
 8873TIP3    H250815   7.421   4.829  10.916  1.1327 -0.4053 -0.3964
 8874TIP3   OH250816   4.005   5.108  11.014  0.0991  0.2224 -0.4912
 8874TIP3    H150817   3.984   5.109  10.921 -1.0981 -0.5883 -0.2493
 8874TIP3    H250818   4.098   5.086  11.017  0.6329  2.1110 -1.5316
 8875TIP3   OH250819   3.605   6.143  12.248 -0.0437  0.6464  0.5251
 8875TIP3    H150820   3.545   6.198  12.196 -0.3456  0.8107  1.0459
 8875TIP3    H250821   3.605   6.183  12.335  0.8632  0.6668  0.5179
 8876TIP3   OH250822   4.951   1.881  10.766 -0.2464  0.6828 -0.0896
 8876TIP3    H150823   4.870   1.864  10.719 -1.0013 -0.7524  1.6289
 8876TIP3    H250824   4.973   1.798  10.809  2.4110  0.8749 -0.8525
 8877TIP3   OH250825   2.795   2.945  12.597  0.4712  0.3680  0.2629
 8877TIP3    H150826   2.829   2.978  12.514  0.3408 -4.1055 -1.8058
 8877TIP3    H250827   2.868   2.900  12.638 -0.6465 -1.6422  0.1460
 8878TIP3   OH250828   1.672   1.525  11.185 -0.0167  0.0510 -0.2032
 8878TIP3    H150829   1.611   1.503  11.114  0.9011  0.3555 -1.1159
 8878TIP3    H250830   1.758   1.529  11.142  0.5527  0.2946  0.9264
 8879TIP3   OH250831   6.430   2.396  11.156 -0.5089  0.4170 -0.8472
 8879TIP3    H150832   6.478   2.313  11.150  0.0206  0.6008  0.4896
 8879TIP3    H250833   6.410   2.405  11.250  0.7741  2.5403 -0.7177
 8880TIP3   OH250834   1.330   6.933  12.278  0.1192  0.4274 -0.0103
 8880TIP3    H150835   1.248   6.894  12.249 -0.9898  3.0275 -0.5696
 8880TIP3    H250836   1.391   6.918  12.206 -0.3509  0.0167 -0.3282
 8881TIP3   OH250837   7.321   4.134  10.410 -0.0860 -0.5691 -0.2682
 8881TIP3    H150838   7.370   4.200  10.361 -0.7250  0.7372  0.7762
 8881TIP3    H250839   7.380   4.060  10.416  1.9359  1.0535  1.1941
 8882TIP3   OH250840   3.161   7.233  12.235  0.9438  0.1199  0.1094
 8882TIP3    H150841   3.201   7.164  12.287  1.3290 -0.6995 -1.2137
 8882TIP3    H250842   3.067   7.220  12.245  1.0085 -1.0523 -0.6818
 8883TIP3   OH250843   4.062   1.662  13.047  0.0357  0.1265  0.7667
 8883TIP3    H150844   4.138   1.708  13.083  0.8538  0.3035 -1.0678
 8883TIP3    H250845   4.098   1.584  13.006 -0.6532  0.4994 -0.6339
 8884TIP3   OH250846   8.224   1.678  11.074  0.0365 -0.9014  0.1920
 8884TIP3    H150847   8.129   1.670  11.086 -0.2473  1.8357  0.3473
 8884TIP3    H250848   8.238   1.661  10.981 -1.0767  1.5786 -0.5088
 8885TIP3   OH250849   3.661   6.013  11.817  0.4119 -0.1969  0.2838
 8885TIP3    H150850   3.627   6.032  11.729  1.5191  1.3589  0.1587
 8885TIP3    H250851   3.726   6.081  11.833  1.6972 -1.6388  1.5129
 8886TIP3   OH250852   4.887   1.830  12.586 -0.1713  0.1843  0.0069
 8886TIP3    H150853   4.965   1.779  12.609  0.2969  0.0933 -1.6581
 8886TIP3    H250854   4.827   1.817  12.660  2.0588  1.7458  2.2419
 8887TIP3   OH250855   2.649   6.337  10.591  0.0419  0.2185  0.1315
 8887TIP3    H150856   2.578   6.397  10.565 -0.0850 -0.6730 -1.7485
 8887TIP3    H250857   2.722   6.360  10.533  0.5169 -0.4238  0.4583
 8888TIP3   OH250858   5.941   3.145  11.163  0.0402  0.2557  0.0625
 8888TIP3    H150859   5.999   3.151  11.239 -0.6715 -0.7522  0.7062
 8888TIP3    H250860   5.858   3.182  11.193 -0.4170 -0.6741 -0.0406
 8889TIP3   OH250861   5.134   2.401  11.036  0.2982 -1.1239 -0.6434
 8889TIP3    H150862   5.050   2.430  11.072  0.3757 -1.1834 -0.4136
 8889TIP3    H250863   5.125   2.306  11.029  0.2898 -1.1142 -0.7655
 8890TIP3   OH250864   6.364   0.693  11.450 -0.1150  0.3368  0.3074
 8890TIP3    H150865   6.275   0.707  11.481  0.3360  2.1241  0.8929
 8890TIP3    H250866   6.419   0.730  11.519  1.0182  1.1794 -0.9976
 8891TIP3   OH250867   4.811   7.830  11.980 -0.0587  0.4339 -0.4654
 8891TIP3    H150868   4.746   7.808  12.046  1.5065 -0.7671  0.7549
 8891TIP3    H250869   4.850   7.912  12.010  0.6560 -0.1146  0.1261
 8892TIP3   OH250870   3.027   0.209  12.724  0.3048  0.3063 -0.0912
 8892TIP3    H150871   3.116   0.184  12.699  0.7846  0.5263  1.3133
 8892TIP3    H250872   2.977   0.128  12.717  0.8426 -0.0452  0.0569
 8893TIP3   OH250873   6.645   5.970  11.432 -0.4199  0.5156  0.3227
 8893TIP3    H150874   6.600   5.917  11.499  0.0365  0.9866  1.0202
 8893TIP3    H250875   6.733   5.933  11.427 -0.4719  0.4418 -0.0682
 8894TIP3   OH250876   3.833   2.801  12.225 -0.1083 -0.1925  0.6896
 8894TIP3    H150877   3.783   2.837  12.297  1.3405 -3.9193  3.9511
 8894TIP3    H250878   3.767   2.757  12.170 -1.0164  0.4076  1.2732
 8895TIP3   OH250879   5.735   0.455  11.972 -0.0331  0.1049 -0.3011
 8895TIP3    H150880   5.723   0.421  12.061  0.3689 -0.2128 -0.3683
 8895TIP3    H250881   5.692   0.540  11.973  0.6557  0.4451  0.4170
 8896TIP3   OH250882   2.027   4.774  12.242  0.4847  0.2687 -0.4669
 8896TIP3    H150883   1.984   4.834  12.181  0.7321 -0.5229 -1.4426
 8896TIP3    H250884   2.008   4.810  12.328 -0.2416  1.1742 -0.9877
 8897TIP3   OH250885   1.086   4.101  12.277  0.0698 -0.5257 -0.1817
 8897TIP3    H150886   1.074   4.016  12.319  1.2072 -1.0746 -0.9260
 8897TIP3    H250887   1.063   4.086  12.185  0.1995 -0.0142 -0.2999
 8898TIP3   OH250888   6.114   0.678  11.602 -0.1222 -0.7347  0.0888
 8898TIP3    H150889   6.043   0.698  11.541 -1.0351 -0.4221  1.2171
 8898TIP3    H250890   6.087   0.596  11.644  0.8018 -1.2868 -0.3551
 8899TIP3   OH250891   2.854   4.173  10.915  0.2539 -0.9908  0.6560
 8899TIP3    H150892   2.901   4.140  10.838  2.0010 -0.4669  1.4532
 8899TIP3    H250893   2.896   4.131  10.989 -0.3208 -0.2454  1.4283
 8900TIP3   OH250894   8.424   3.006  12.404 -0.0984 -0.3384 -0.2031
 8900TIP3    H150895   8.455   3.030  12.491 -0.5039  0.6448 -0.3077
 8900TIP3    H250896   8.482   3.054  12.344  0.2289 -1.0704 -0.4897
 8901TIP3   OH250897   7.662   4.411  11.141 -0.0847  0.5165 -0.3822
 8901TIP3    H150898   7.685   4.401  11.234  1.1805  0.1502 -0.7201
 8901TIP3    H250899   7.591   4.349  11.127 -0.4999  0.7909  0.4058
 8902TIP3   OH250900   6.748   4.112  12.205  0.0299  0.2396  0.3984
 8902TIP3    H150901   6.694   4.190  12.193  0.5868  0.2546 -3.0470
 8902TIP3    H250902   6.698   4.042  12.164  2.3731  0.2548 -2.9269
 8903TIP3   OH250903   0.328   1.893  12.691  0.4390  0.1606 -0.3165
 8903TIP3    H150904   0.258   1.927  12.747  0.2757  0.8823 -0.9427
 8903TIP3    H250905   0.409   1.923  12.733  0.3705 -0.2857  0.1559
 8904TIP3   OH250906   8.384   1.115  12.473 -0.5652  0.2901 -0.1880
 8904TIP3    H150907   8.347   1.203  12.466 -1.9573 -0.3319 -1.2161
 8904TIP3    H250908   8.311   1.057  12.451  0.4552 -1.1054 -0.0215
 8905TIP3   OH250909   1.288   4.287  12.295  0.4646  0.1518  0.1642
 8905TIP3    H150910   1.223   4.218  12.281 -0.2573  0.4556  1.7884
 8905TIP3    H250911   1.372   4.241  12.295  0.1527 -0.4333 -0.7153
 8906TIP3   OH250912   1.633   4.805  12.284 -0.0191  0.1186  0.0784
 8906TIP3    H150913   1.688   4.813  12.206 -0.6005  1.0871 -0.2390
 8906TIP3    H250914   1.546   4.832  12.256 -0.3973 -0.1982  0.8918
 8907TIP3   OH250915   6.502   4.692  10.647 -0.1734  0.3736 -0.1144
 8907TIP3    H150916   6.418   4.729  10.620  0.1271  0.4343 -0.9842
 8907TIP3    H250917   6.482   4.601  10.668 -0.1311 -0.1354 -2.1237
 8908TIP3   OH250918   4.142   3.486  10.582 -0.3994 -0.0723 -0.1981
 8908TIP3    H150919   4.096   3.405  10.561 -0.7790  0.4745 -1.6220
 8908TIP3    H250920   4.073   3.551  10.594 -0.0675  0.4486 -0.9866
 8909TIP3   OH250921   7.577   2.466  10.613 -0.1889 -0.0151  0.0462
 8909TIP3    H150922   7.590   2.461  10.708  0.5861 -1.6927 -0.1125
 8909TIP3    H250923   7.663   2.444  10.576  0.7810  4.7458 -1.1230
 8910TIP3   OH250924   0.245   5.703  11.067 -0.6786  0.1487 -0.1179
 8910TIP3    H150925   0.167   5.657  11.037 -0.4634 -0.0300 -0.4099
 8910TIP3    H250926   0.218   5.794  11.076 -1.0820 -0.0166  0.3662
 8911TIP3   OH250927   3.458   5.606  10.793  0.0568  0.2309  0.4935
 8911TIP3    H150928   3.426   5.602  10.883 -0.0343  0.6886  0.4855
 8911TIP3    H250929   3.441   5.519  10.757 -1.0102  0.3991  0.5522
 8912TIP3   OH250930   0.869   6.253  10.893  0.5531 -0.2027  0.5526
 8912TIP3    H150931   0.868   6.190  10.965  0.8118 -1.3574 -0.4157
 8912TIP3    H250932   0.782   6.245  10.853  0.7494 -0.3029  0.1411
 8913TIP3   OH250933   7.553   7.485  11.841  0.2087 -1.0612 -0.3517
 8913TIP3    H150934   7.558   7.529  11.926  0.1660 -0.7055 -0.5277
 8913TIP3    H250935   7.597   7.402  11.854  0.1131 -1.0530  0.0465
 8914TIP3   OH250936   0.702   3.970  12.340  0.1386  0.0012 -0.2153
 8914TIP3    H150937   0.704   3.984  12.435 -1.8769  0.4881 -0.2048
 8914TIP3    H250938   0.684   4.057  12.304 -0.1021 -0.3691 -0.9928
 8915TIP3   OH250939   1.948   2.147  10.937 -0.2513 -0.9479  0.3032
 8915TIP3    H150940   1.966   2.169  10.845 -0.3592 -0.0096  0.4973
 8915TIP3    H250941   2.028   2.104  10.967 -0.7254 -2.5240 -0.6079
 8916TIP3   OH250942   6.760   5.572  11.412 -0.5234  0.4352  0.2434
 8916TIP3    H150943   6.804   5.498  11.371 -2.1505  0.1194 -1.0493
 8916TIP3    H250944   6.816   5.647  11.393  0.1725 -0.1565 -0.0957
 8917TIP3   OH250945   5.855   3.030  11.433 -0.5882 -0.3639 -0.1691
 8917TIP3    H150946   5.866   2.974  11.510 -0.1766 -1.0653 -0.7235
 8917TIP3    H250947   5.944   3.061  11.414 -0.8046  0.4281  0.0916
 8918TIP3   OH250948   7.926   7.344  11.055 -0.2545 -0.3933  0.0557
 8918TIP3    H150949   7.979   7.384  11.124 -0.9718  0.5326  0.1003
 8918TIP3    H250950   7.950   7.391  10.976  1.6599 -2.4403 -0.6802
 8919TIP3   OH250951   4.663   2.301  10.834  0.5816  0.1946 -0.0848
 8919TIP3    H150952   4.660   2.392  10.803 -0.6211 -0.5969 -2.5106
 8919TIP3    H250953   4.755   2.276  10.825  1.7341  2.0645  3.8595
 8920TIP3   OH250954   3.837   7.084  12.067 -0.0356  0.1971  0.6953
 8920TIP3    H150955   3.895   7.140  12.015 -0.5875  1.3225  1.2599
 8920TIP3    H250956   3.880   7.080  12.153 -1.1200  1.6583  1.3531
 8921TIP3   OH250957   6.108   7.018  12.034 -0.1472  0.2192 -0.1481
 8921TIP3    H150958   6.048   7.091  12.046  0.2760  0.5812 -0.2047
 8921TIP3    H250959   6.058   6.952  11.987  0.3213  1.6198 -2.7785
 8922TIP3   OH250960   3.941   2.868  11.115 -0.7005 -0.5541 -0.7339
 8922TIP3    H150961   4.002   2.800  11.088 -1.4461 -1.1114 -1.0396
 8922TIP3    H250962   3.855   2.826  11.114 -1.2150  0.4626 -1.2125
 8923TIP3   OH250963   3.740   3.134  11.266 -0.0194  0.3866 -0.0374
 8923TIP3    H150964   3.777   3.057  11.310 -0.3666  0.3105  0.1242
 8923TIP3    H250965   3.690   3.097  11.192 -0.4059  0.4386  0.1962
 8924TIP3   OH250966   4.455   4.873  10.634  0.0566  0.1814  0.0831
 8924TIP3    H150967   4.498   4.795  10.668  0.8896  0.6032  0.0165
 8924TIP3    H250968   4.526   4.925  10.596  0.0002  2.4047  2.7727
 8925TIP3   OH250969   6.468   1.863  11.267  0.0422 -0.2826 -0.9536
 8925TIP3    H150970   6.472   1.915  11.187 -1.1040  2.1839  0.4704
 8925TIP3    H250971   6.426   1.921  11.331  3.0364 -1.2314  2.1589
 8926TIP3   OH250972   0.191   7.853  11.713  0.2806 -0.2102  0.3505
 8926TIP3    H150973   0.171   7.860  11.619 -1.8296 -0.6202  0.7143
 8926TIP3    H250974   0.222   7.763  11.724  1.0358 -0.0026 -0.0217
 8927TIP3   OH250975   0.842   5.749  10.879 -0.2227 -0.5022  0.9670
 8927TIP3    H150976   0.935   5.729  10.892  0.3006  1.3457  0.5237
 8927TIP3    H250977   0.819   5.704  10.798  1.0915  1.1352 -0.4155
 8928TIP3   OH250978   7.893   0.998  12.077 -0.7567  0.0042  0.0600
 8928TIP3    H150979   7.867   1.024  11.989  0.6833  1.8813  0.1280
 8928TIP3    H250980   7.843   0.919  12.094 -1.5591 -0.0462 -2.1830
 8929TIP3   OH250981   1.487   4.084  12.300  0.3478  0.2437 -0.3030
 8929TIP3    H150982   1.456   3.996  12.283 -0.4468 -0.0304  2.1199
 8929TIP3    H250983   1.566   4.071  12.353  1.5317  1.0061 -1.7959
 8930TIP3   OH250984   0.554   3.039  10.860 -0.2386 -0.4898 -0.1200
 8930TIP3    H150985   0.648   3.042  10.841 -0.4365 -1.3009 -1.3378
 8930TIP3    H250986   0.523   3.127  10.837  0.1432 -0.3720 -0.1979
 8931TIP3   OH250987   5.001   6.732  11.566 -0.2584 -0.0782  0.7671
 8931TIP3    H150988   5.083   6.711  11.612 -0.6300  2.4198  2.7697
 8931TIP3    H250989   4.934   6.733  11.634 -1.6766 -0.4314 -0.5625
 8932TIP3   OH250990   0.360   3.670  12.586 -0.0499 -0.2668  0.3006
 8932TIP3    H150991   0.376   3.601  12.521  1.1098 -0.4091  0.7122
 8932TIP3    H250992   0.302   3.732  12.542 -0.3600 -1.0403 -0.3980
 8933TIP3   OH250993   0.910   7.591  10.984 -0.4019  0.3185 -0.6456
 8933TIP3    H150994   0.902   7.650  11.059  3.3431  1.5486 -0.9810
 8933TIP3    H250995   0.894   7.504  11.019  2.5094  0.6954  2.0542
 8934TIP3   OH250996   8.062   5.330  11.771  0.1651 -0.2686 -0.3615
 8934TIP3    H150997   8.145   5.368  11.800  0.0548 -0.4172  0.1703
 8934TIP3    H250998   7.996   5.393  11.798 -0.1045 -1.2143  1.3383
 8935TIP3   OH250999   4.424   2.238  11.853  0.0873 -0.4457 -0.0319
 8935TIP3    H151000   4.334   2.238  11.819 -0.9716 -1.8891  2.4953
 8935TIP3    H251001   4.419   2.188  11.934  2.3152  2.9621  2.5031
 8936TIP3   OH251002   2.956   0.503  11.002 -0.2943  0.0782 -0.1718
 8936TIP3    H151003   2.978   0.416  10.970 -0.4807 -0.3675  0.8736
 8936TIP3    H251004   3.010   0.562  10.950  0.6723 -0.7337 -0.1111
 8937TIP3   OH251005   1.565   6.482  12.840  0.3090 -0.0328  0.2386
 8937TIP3    H151006   1.497   6.465  12.775 -0.6049  1.5830  0.7165
 8937TIP3    H251007   1.641   6.508  12.789  0.3370 -1.0577 -0.2673
 8938TIP3   OH251008   4.133   1.511  11.897  0.5635 -0.2195 -0.2147
 8938TIP3    H151009   4.210   1.471  11.938 -0.0797 -1.1112  0.1584
 8938TIP3    H251010   4.154   1.604  11.891  0.9733 -0.1615  1.5338
 8939TIP3   OH251011   2.867   8.014  12.031  0.1130 -0.4334  0.0706
 8939TIP3    H151012   2.859   7.920  12.048 -2.9676 -0.2871  0.0377
 8939TIP3    H251013   2.855   8.055  12.116 -2.1061 -0.0385 -0.3792
 8940TIP3   OH251014   5.455   5.817  11.351  0.2397  0.6651  0.2929
 8940TIP3    H151015   5.406   5.822  11.433  0.2791  1.3233  0.2780
 8940TIP3    H251016   5.454   5.724  11.329  1.5617  0.2389  1.8393
 8941TIP3   OH251017   7.777   4.157  12.381 -0.1523 -0.0623 -0.1689
 8941TIP3    H151018   7.691   4.152  12.423 -0.1040  1.2030  0.1119
 8941TIP3    H251019   7.782   4.077  12.328 -1.2160 -0.4853  0.3341
 8942TIP3   OH251020   4.813   7.839  11.113 -0.1232 -0.6751  0.4138
 8942TIP3    H151021   4.741   7.861  11.054  0.4557  1.9549  0.5760
 8942TIP3    H251022   4.839   7.750  11.087 -2.6726 -1.2725 -0.3488
 8943TIP3   OH251023   3.591   1.757  12.764  0.5416 -0.2172 -0.0261
 8943TIP3    H151024   3.549   1.832  12.722  0.6738  0.6836  1.3674
 8943TIP3    H251025   3.521   1.693  12.773 -0.0234  0.4281  0.3070
 8944TIP3   OH251026   6.275   7.502  11.575  0.8787  0.4480 -0.2956
 8944TIP3    H151027   6.347   7.546  11.531  1.1873  0.7338  0.4744
 8944TIP3    H251028   6.231   7.452  11.506  1.0758  1.2312 -1.0007
 8945TIP3   OH251029   5.308   5.533  12.006  0.9212  0.1161 -0.2823
 8945TIP3    H151030   5.324   5.474  11.932 -0.5121 -0.8706  0.1469
 8945TIP3    H251031   5.389   5.530  12.056  1.0773 -1.0829 -0.5605
 8946TIP3   OH251032   6.154   1.954  11.616 -0.1581 -0.2205  0.1092
 8946TIP3    H151033   6.102   2.030  11.641  0.4057 -0.0284  0.7275
 8946TIP3    H251034   6.107   1.916  11.542  0.0499  1.2578 -0.8274
 8947TIP3   OH251035   1.754   1.619  11.956 -0.0037  0.2023 -0.3640
 8947TIP3    H151036   1.753   1.697  12.012 -1.3484 -0.1120  0.1041
 8947TIP3    H251037   1.742   1.547  12.017  2.4865 -0.5392 -0.6399
 8948TIP3   OH251038   7.467   5.836  12.191 -0.1724  0.2836 -0.3138
 8948TIP3    H151039   7.500   5.887  12.117  0.4882  0.1639 -0.1062
 8948TIP3    H251040   7.393   5.787  12.155  0.4719 -0.1811 -1.0422
 8949TIP3   OH251041   7.972   1.462  13.218 -0.0440  0.1700  0.2313
 8949TIP3    H151042   7.969   1.527  13.288  0.1965 -0.4571  0.8283
 8949TIP3    H251043   8.053   1.482  13.171 -0.9764  1.5948 -0.8745
 8950TIP3   OH251044   4.361   1.408  12.058  0.0628 -0.0914 -0.1328
 8950TIP3    H151045   4.428   1.452  12.111 -0.2382 -1.2978  1.3094
 8950TIP3    H251046   4.316   1.350  12.119  0.3047 -2.2751 -1.8981
 8951TIP3   OH251047   4.398   2.824  11.481 -0.0515 -0.2131 -0.0497
 8951TIP3    H151048   4.388   2.745  11.535  0.3516 -1.6056 -1.8892
 8951TIP3    H251049   4.472   2.870  11.520  0.4005 -1.3250  0.4635
 8952TIP3   OH251050   6.007   1.453  11.264  0.5258 -0.4874  0.6496
 8952TIP3    H151051   6.070   1.395  11.309  0.0497 -1.7807 -0.3036
 8952TIP3    H251052   6.053   1.536  11.258  1.9611 -1.2555  0.4547
 8953TIP3   OH251053   1.270   0.006  11.142  0.2930  0.0945 -0.3984
 8953TIP3    H151054   1.200   0.069  11.125 -0.8758 -1.5289 -2.0365
 8953TIP3    H251055   1.233  -0.056  11.204  1.4120  0.9181  1.1581
 8954TIP3   OH251056   4.616   1.810  10.646  0.2235  0.0685  0.5411
 8954TIP3    H151057   4.542   1.816  10.707 -1.8607  0.1675 -1.8689
 8954TIP3    H251058   4.646   1.901  10.635  2.1066 -0.1327  2.9693
 8955TIP3   OH251059   6.997   7.010  12.235 -0.1370  0.2778 -0.4665
 8955TIP3    H151060   7.008   7.096  12.196 -1.0888 -0.4989 -2.5881
 8955TIP3    H251061   7.076   6.997  12.287  0.2126  2.2354 -0.4173
 8956TIP3   OH251062   6.432   2.403  12.282  0.4169 -0.7129 -0.2327
 8956TIP3    H151063   6.374   2.358  12.220 -1.6707  0.6958  0.6044
 8956TIP3    H251064   6.374   2.458  12.334  2.6368  1.5227  0.0518
 8957TIP3   OH251065   2.294   3.011  12.250 -0.0100 -0.3214 -0.0347
 8957TIP3    H151066   2.285   2.927  12.204  0.4562 -1.1745  1.3736
 8957TIP3    H251067   2.360   2.994  12.317 -2.2758  0.1722  2.4925
 8958TIP3   OH251068   4.866   6.659  11.344  0.0850  0.5732 -0.4344
 8958TIP3    H151069   4.781   6.657  11.388  0.2565 -0.8523 -0.1119
 8958TIP3    H251070   4.928   6.684  11.413  0.2656 -1.0307  0.0289
 8959TIP3   OH251071   6.243   7.676  10.460 -0.5116 -0.6061  0.2422
 8959TIP3    H151072   6.215   7.674  10.369  1.6149 -2.3764 -0.4519
 8959TIP3    H251073   6.255   7.584  10.484 -0.0299 -0.1357  1.9770
 8960TIP3   OH251074   7.003   5.491  10.989 -0.5034  0.0360  0.0273
 8960TIP3    H151075   6.955   5.443  10.921  1.1215  0.3394 -1.3851
 8960TIP3    H251076   6.963   5.578  10.989 -1.1743 -0.2621  0.1919
 8961TIP3   OH251077   2.330   3.742  13.161  0.2709  0.0712 -0.7707
 8961TIP3    H151078   2.286   3.812  13.209 -2.2115 -1.0306 -1.2764
 8961TIP3    H251079   2.309   3.662  13.209  1.1037 -0.5893 -1.4765
 8962TIP3   OH251080   2.073   4.021  10.980  0.3698 -0.2646  0.2282
 8962TIP3    H151081   2.127   4.018  11.059  0.1529 -0.0118  0.3919
 8962TIP3    H251082   2.016   3.944  10.986  1.3399 -1.0546 -0.4149
 8963TIP3   OH251083   7.076   0.007  11.284  0.0998 -0.3373  0.4516
 8963TIP3    H151084   7.112  -0.009  11.197  0.1341  1.7092  0.0382
 8963TIP3    H251085   7.014   0.079  11.272 -0.5180 -0.5582  1.9949
 8964TIP3   OH251086   0.599   2.957  12.609 -0.0869 -0.2593  0.2370
 8964TIP3    H151087   0.591   2.934  12.701  0.0531 -1.3176  0.0006
 8964TIP3    H251088   0.509   2.960  12.577 -0.1333  0.0734  0.3921
 8965TIP3   OH251089   6.670   6.612  12.162  0.1455 -0.1435 -0.2613
 8965TIP3    H151090   6.648   6.642  12.250  1.2364  1.0287 -0.3702
 8965TIP3    H251091   6.614   6.665  12.105  0.5871  0.2405 -0.3443
 8966TIP3   OH251092   8.037   1.723  11.972 -0.0713 -0.1296 -0.6289
 8966TIP3    H151093   8.040   1.705  12.066  0.1240 -0.8673 -0.7690
 8966TIP3    H251094   8.093   1.800  11.960 -1.2846  0.9077  0.0582
 8967TIP3   OH251095   8.383   6.719  11.280  0.7612 -0.0064  0.4862
 8967TIP3    H151096   8.326   6.645  11.299 -0.3282  0.9225  0.9799
 8967TIP3    H251097   8.397   6.762  11.364  0.5386  0.9153  0.0755
 8968TIP3   OH251098   6.415   5.034  10.789  0.1693 -0.0874  0.4508
 8968TIP3    H151099   6.486   5.002  10.734 -0.3790 -0.9447  0.2239
 8968TIP3    H251100   6.459   5.069  10.867  0.8185 -1.0498  0.5270
 8969TIP3   OH251101   2.430   0.663  11.847  0.2636  0.7278 -0.3834
 8969TIP3    H151102   2.443   0.758  11.855 -1.3533  0.8983  0.6334
 8969TIP3    H251103   2.349   0.655  11.796  1.9869 -0.1998 -3.1976
 8970TIP3   OH251104   8.267   6.272  11.684 -0.0192  0.2038 -0.0259
 8970TIP3    H151105   8.316   6.229  11.755  1.8383 -0.4970 -1.6311
 8970TIP3    H251106   8.308   6.358  11.676 -0.8395  0.6375  0.3276
 8971TIP3   OH251107   4.176   1.823  10.598  0.0856  0.5384 -0.4193
 8971TIP3    H151108   4.183   1.818  10.693  0.6011 -0.0384 -0.4833
 8971TIP3    H251109   4.131   1.906  10.582 -0.8624  0.1880  0.3623
 8972TIP3   OH251110   1.504   4.071  11.680  0.0298  0.5351 -0.0536
 8972TIP3    H151111   1.461   4.155  11.697 -0.8041 -0.1386  1.4216
 8972TIP3    H251112   1.567   4.062  11.751  1.2799  0.6265 -1.1218
 8973TIP3   OH251113   0.815   1.298  10.795  0.6406 -0.4761  0.2883
 8973TIP3    H151114   0.900   1.297  10.841 -0.5671 -2.0925  2.7157
 8973TIP3    H251115   0.751   1.317  10.864 -0.9538  1.5224 -1.6333
 8974TIP3   OH251116   4.947   2.983  11.870 -0.3272  0.6054 -0.3964
 8974TIP3    H151117   4.855   3.010  11.870 -1.0656 -1.6382  0.2139
 8974TIP3    H251118   4.947   2.899  11.824  1.1095 -0.3345  1.2001
 8975TIP3   OH251119   4.427   0.191  10.882 -0.1500 -0.2094  0.2306
 8975TIP3    H151120   4.472   0.254  10.938 -1.1884  1.1588 -0.4423
 8975TIP3    H251121   4.495   0.126  10.861  1.1603  1.0692  0.3305
 8976TIP3   OH251122   5.459   1.111  11.460 -0.4446 -0.3096  0.3793
 8976TIP3    H151123   5.405   1.122  11.538 -0.0337 -0.0655  0.6377
 8976TIP3    H251124   5.529   1.051  11.488  0.0951  0.3221  0.3986
 8977TIP3   OH251125   8.176   3.239  11.867  0.2817 -0.1022  0.2467
 8977TIP3    H151126   8.167   3.263  11.775 -0.1504 -0.6845  0.1315
 8977TIP3    H251127   8.251   3.291  11.898  0.8496 -0.3927 -0.6017
 8978TIP3   OH251128   5.344   3.771  12.165 -0.0602 -0.2055  0.2022
 8978TIP3    H151129   5.370   3.860  12.190  1.3826 -0.1491 -1.3280
 8978TIP3    H251130   5.359   3.719  12.244 -0.7832  0.8679  1.0749
 8979TIP3   OH251131   8.283   7.936  12.282 -0.2221  0.3590 -0.0100
 8979TIP3    H151132   8.317   7.847  12.296  1.3576  0.8723 -0.4039
 8979TIP3    H251133   8.231   7.955  12.360 -0.1646 -0.7151  0.3062
 8980TIP3   OH251134   5.586   3.658  11.762 -0.2286  0.2064  0.3059
 8980TIP3    H151135   5.617   3.747  11.744  1.3524 -0.1291  1.2473
 8980TIP3    H251136   5.515   3.670  11.826 -0.3890  0.8165  0.0221
 8981TIP3   OH251137   6.541   6.101  12.281 -0.1529  0.0035 -0.3511
 8981TIP3    H151138   6.491   6.177  12.313 -0.9013 -0.8704  0.6179
 8981TIP3    H251139   6.517   6.030  12.340  1.6995 -0.6433 -0.3058
 8982TIP3   OH251140   5.986   4.613  10.954  0.0606 -0.5071 -0.8728
 8982TIP3    H151141   6.065   4.649  10.914  1.7034 -2.1249  0.7098
 8982TIP3    H251142   5.944   4.688  10.995  1.6592  0.1766 -0.3928
 8983TIP3   OH251143   3.743   2.397  10.473 -0.2418 -0.0302  0.5832
 8983TIP3    H151144   3.671   2.460  10.459  1.0525  1.0751 -1.9311
 8983TIP3    H251145   3.700   2.312  10.473 -1.6912  0.6567  0.1359
 8984TIP3   OH251146   1.246   1.911  10.913 -0.0557 -0.0899  0.0935
 8984TIP3    H151147   1.312   1.875  10.854 -0.1843 -1.4563  0.7559
 8984TIP3    H251148   1.163   1.884  10.875 -0.1284 -1.7886  1.3332
 8985TIP3   OH251149   4.196   2.473  12.618  0.1972 -0.4636  0.5154
 8985TIP3    H151150   4.155   2.441  12.537  1.5889 -1.5659  0.2150
 8985TIP3    H251151   4.269   2.528  12.588 -0.7893  1.2166  1.0493
 8986TIP3   OH251152   5.238   0.053  11.243 -0.4397 -0.3957 -0.3030
 8986TIP3    H151153   5.202  -0.029  11.210 -2.3649  0.5293 -0.6546
 8986TIP3    H251154   5.306   0.076  11.180 -1.2827 -0.7178 -1.3677
 8987TIP3   OH251155   4.705   5.705  12.691  0.1003 -0.2526 -0.1414
 8987TIP3    H151156   4.766   5.635  12.717 -1.6921 -1.8030  0.1046
 8987TIP3    H251157   4.619   5.663  12.692 -0.9318  1.7300 -0.9876
 8988TIP3   OH251158   5.890   8.202  11.852  0.1578  1.1853 -0.4360
 8988TIP3    H151159   5.924   8.251  11.777  1.7133 -1.1664 -1.3959
 8988TIP3    H251160   5.879   8.113  11.820  1.5497 -0.1024  2.2682
 8989TIP3   OH251161   5.980   4.619  11.628 -0.2048  0.3125  0.7119
 8989TIP3    H151162   5.885   4.609  11.622 -0.6641  3.9250 -0.7310
 8989TIP3    H251163   6.012   4.595  11.541 -0.1619  1.4879  0.3827
 8990TIP3   OH251164   2.922   0.651  11.958 -0.2626 -0.3683 -0.0586
 8990TIP3    H151165   2.893   0.601  11.881 -0.5232  0.2268 -0.3587
 8990TIP3    H251166   2.998   0.701  11.927 -2.0746  2.1388 -0.8382
 8991TIP3   OH251167   6.330   5.321  10.437 -0.6476  0.2965 -0.1029
 8991TIP3    H151168   6.272   5.392  10.408 -0.7102 -0.1169 -0.9888
 8991TIP3    H251169   6.414   5.365  10.452 -0.9649  0.7506  0.4035
 8992TIP3   OH251170   2.924   1.389  11.605 -0.1286  0.4294  0.0436
 8992TIP3    H151171   2.940   1.300  11.636 -2.7902 -0.6530 -1.3576
 8992TIP3    H251172   2.902   1.379  11.512 -0.3613  2.5755 -0.1993
 8993TIP3   OH251173   1.174   6.361  11.916 -0.0719  0.2391  0.1497
 8993TIP3    H151174   1.196   6.454  11.918  1.6775 -0.1451  1.2425
 8993TIP3    H251175   1.228   6.325  11.846 -1.7173  0.2239 -1.1611
 8994TIP3   OH251176   1.490   3.068  11.795  0.1990  0.1884  0.8159
 8994TIP3    H151177   1.524   3.014  11.723  1.1098  0.8271  0.7477
 8994TIP3    H251178   1.397   3.078  11.776  0.4217  0.3352 -0.2746
 8995TIP3   OH251179   0.046   8.032  10.989  0.4273  0.7431 -0.1636
 8995TIP3    H151180   0.062   8.083  11.069  0.2191  1.5329 -0.6199
 8995TIP3    H251181   0.113   8.062  10.928  0.9756 -0.2954 -0.1127
 8996TIP3   OH251182   1.313   5.632  10.862 -0.5309 -0.0726  0.4671
 8996TIP3    H151183   1.282   5.681  10.786 -1.8877 -1.6777 -0.0684
 8996TIP3    H251184   1.409   5.640  10.859 -0.5784  0.0651 -1.2958
 8997TIP3   OH251185   1.997   8.116  11.833 -0.7901 -0.9037 -0.0031
 8997TIP3    H151186   1.981   8.180  11.764 -0.0548 -0.2677  0.3960
 8997TIP3    H251187   2.083   8.139  11.867 -1.1620 -1.1725  1.1561
 8998TIP3   OH251188   5.608   5.271  11.393  0.2300 -0.0974  0.5880
 8998TIP3    H151189   5.675   5.216  11.433  0.6096 -0.5379 -0.6147
 8998TIP3    H251190   5.581   5.223  11.315 -1.7612 -0.1043  1.2185
 8999TIP3   OH251191   5.354   0.720  11.355 -0.0493 -0.3290  0.2800
 8999TIP3    H151192   5.294   0.778  11.307  1.2322 -0.2834 -1.3737
 8999TIP3    H251193   5.305   0.638  11.365 -1.3390  0.5337  1.3328
 9000TIP3   OH251194   6.037   3.304  12.349  0.2880 -0.2615  0.0244
 9000TIP3    H151195   5.952   3.332  12.314 -0.9302 -2.4997  0.9593
 9000TIP3    H251196   6.022   3.296  12.443  1.5062 -0.8122  0.1925
 9001TIP3   OH251197   3.354   3.146  11.305  0.1843 -0.4333 -0.9947
 9001TIP3    H151198   3.337   3.069  11.251 -0.1582 -1.9354  1.1246
 9001TIP3    H251199   3.359   3.112  11.394  2.6710  1.6278 -0.2117
 9002TIP3   OH251200   1.853   7.586  11.946  0.3814 -0.0941  0.2149
 9002TIP3    H151201   1.820   7.669  11.910  0.6338  0.5115  1.3160
 9002TIP3    H251202   1.948   7.594  11.938  0.4656  0.2637  1.4289
 9003TIP3   OH251203   7.495   7.399  10.816 -0.1592  0.9671  0.1278
 9003TIP3    H151204   7.505   7.306  10.797  1.7216  0.7551  1.8587
 9003TIP3    H251205   7.426   7.403  10.882 -1.0937  0.9647 -0.8114
 9004TIP3   OH251206   3.934   6.354  10.922  0.1464  0.4245 -0.5098
 9004TIP3    H151207   4.008   6.336  10.864 -1.0131  1.9720 -2.6026
 9004TIP3    H251208   3.861   6.306  10.883 -0.3199  0.1679  0.6367
 9005TIP3   OH251209   6.946   4.261  11.637 -0.3042 -0.2782 -0.1727
 9005TIP3    H151210   6.894   4.257  11.717 -0.9027  1.4598 -0.4114
 9005TIP3    H251211   6.932   4.350  11.604  4.8360  1.3355  1.0746
 9006TIP3   OH251212   8.027   8.444  11.815 -0.0378  0.3867  0.0417
 9006TIP3    H151213   8.028   8.497  11.895 -0.1365  0.9733 -0.3376
 9006TIP3    H251214   8.082   8.369  11.836 -2.3909 -1.0099  1.6558
 9007TIP3   OH251215   3.695   1.569  12.255 -0.0426  0.1567  0.6965
 9007TIP3    H151216   3.782   1.595  12.286  0.6407 -1.7972  0.5218
 9007TIP3    H251217   3.658   1.517  12.326 -0.3579 -0.4783  0.0727
 9008TIP3   OH251218   5.517   7.802  10.248  0.2592  0.1739 -0.1506
 9008TIP3    H151219   5.435   7.760  10.271  0.1021  1.3069  1.5429
 9008TIP3    H251220   5.558   7.743  10.185 -2.2013 -0.0036 -1.6815
 9009TIP3   OH251221   2.781   6.341  10.967 -0.2464  0.0561 -0.1270
 9009TIP3    H151222   2.849   6.342  11.034 -1.2279  1.1762  0.9168
 9009TIP3    H251223   2.816   6.396  10.897  0.3570 -0.2432 -0.0614
 9010TIP3   OH251224   3.980   0.746  12.177 -0.1544  0.0521  0.1000
 9010TIP3    H151225   4.032   0.680  12.131 -1.6470 -2.3323  1.6119
 9010TIP3    H251226   3.937   0.796  12.107  0.3170 -1.1515 -1.0941
 9011TIP3   OH251227   2.957   7.873  10.533 -0.0348  0.6713  0.0392
 9011TIP3    H151228   2.989   7.813  10.600 -1.7509  0.8633  1.0815
 9011TIP3    H251229   3.013   7.951  10.541  0.2897  0.3679  0.6904
 9012TIP3   OH251230   6.664   0.595  12.845 -0.4417 -0.3332  0.0423
 9012TIP3    H151231   6.649   0.517  12.793 -1.1935 -0.0250 -0.2103
 9012TIP3    H251232   6.598   0.592  12.914 -1.1076  0.5595 -0.5308
 9013TIP3   OH251233   7.764   6.399  11.676 -0.5511  0.6975  0.4873
 9013TIP3    H151234   7.798   6.462  11.613  1.9627 -0.7598  0.2837
 9013TIP3    H251235   7.764   6.315  11.629 -3.3159  0.3651  0.9131
 9014TIP3   OH251236   1.415   5.370  11.323  0.1775 -0.0894  0.1207
 9014TIP3    H151237   1.496   5.372  11.271  0.2237  0.0291  0.1963
 9014TIP3    H251238   1.380   5.459  11.317  0.7350  0.2224  1.1554
 9015TIP3   OH251239   4.346   3.517  10.884 -0.2781 -0.1738  0.4863
 9015TIP3    H151240   4.277   3.451  10.893 -0.1330 -0.3601  0.2461
 9015TIP3    H251241   4.338   3.548  10.794  1.7388 -2.2175 -0.4761
 9016TIP3   OH251242   8.438   5.986  12.284 -0.2711  0.0044 -0.3478
 9016TIP3    H151243   8.462   6.062  12.231 -0.5507 -0.1519 -0.7030
 9016TIP3    H251244   8.437   6.018  12.374 -0.0721  0.3416 -0.4660
 9017TIP3   OH251245   4.785   3.670  11.982 -0.0444  0.2356 -0.8679
 9017TIP3    H151246   4.854   3.629  11.930  1.3413  1.0001  0.2864
 9017TIP3    H251247   4.832   3.724  12.046 -1.7405  1.5118 -0.6192
 9018TIP3   OH251248   6.089   1.204  11.336 -0.3379 -0.1322  0.2635
 9018TIP3    H151249   6.064   1.126  11.286 -0.3466 -0.7710  1.2342
 9018TIP3    H251250   6.108   1.171  11.423  0.7597  0.8028  0.4030
 9019TIP3   OH251251   0.894   5.496  11.796  0.1322  0.5620  0.0770
 9019TIP3    H151252   0.940   5.436  11.855  0.6039 -0.5414 -1.3507
 9019TIP3    H251253   0.883   5.576  11.847  0.9945 -0.1653  1.4691
 9020TIP3   OH251254   4.714   4.305  11.066 -0.2831 -0.2669  0.1965
 9020TIP3    H151255   4.750   4.235  11.012 -1.2263  0.9976 -2.2020
 9020TIP3    H251256   4.790   4.342  11.111  0.6943 -0.7625 -0.9953
 9021TIP3   OH251257   5.811   3.585  10.998 -0.7994 -0.0880  0.1193
 9021TIP3    H151258   5.887   3.641  11.010  0.2084 -1.6324  1.3580
 9021TIP3    H251259   5.821   3.549  10.910 -1.7579  2.0163 -0.9151
 9022TIP3   OH251260   0.187   6.072  10.704 -0.1889  0.2015  0.3521
 9022TIP3    H151261   0.226   6.069  10.617 -1.0309 -2.6935 -0.0192
 9022TIP3    H251262   0.184   5.981  10.732 -1.4478  0.9007  2.7487
 9023TIP3   OH251263   8.443   1.682  12.067 -0.1749  0.0967 -0.1130
 9023TIP3    H151264   8.421   1.689  12.160 -0.7057  1.3757 -0.3147
 9023TIP3    H251265   8.427   1.590  12.046  2.4001 -0.8665  1.6224
 9024TIP3   OH251266   1.679   5.569  12.510 -1.3075 -0.5007 -0.2795
 9024TIP3    H151267   1.746   5.514  12.468  0.5439  0.4802  1.1932
 9024TIP3    H251268   1.687   5.654  12.466 -1.1486 -0.2198  0.2720
 9025TIP3   OH251269   6.069   4.443  10.569 -0.3267 -0.0684  0.0340
 9025TIP3    H151270   6.049   4.380  10.499  1.1560 -1.1520  0.5217
 9025TIP3    H251271   5.997   4.433  10.631 -1.1727  0.2315 -0.8787
 9026TIP3   OH251272   0.442   6.760  11.614 -0.0540  0.2783  0.1198
 9026TIP3    H151273   0.405   6.777  11.700  0.5429  0.7424  0.2970
 9026TIP3    H251274   0.483   6.674  11.621 -0.7130 -0.0521  0.0450
 9027TIP3   OH251275   0.486   2.615  12.509 -0.8373  0.2040  0.6786
 9027TIP3    H151276   0.445   2.680  12.452  0.0756  0.8252  0.7007
 9027TIP3    H251277   0.460   2.641  12.597 -2.5062 -0.9396  0.5639
 9028TIP3   OH251278   4.291   8.004  12.095  0.0933 -0.1994  0.7384
 9028TIP3    H151279   4.265   8.011  12.003 -2.2752 -1.0162  1.2645
 9028TIP3    H251280   4.330   7.917  12.102 -2.1850 -1.2690  0.9673
 9029TIP3   OH251281   8.277   2.292  10.523 -0.0608 -0.6020 -0.2197
 9029TIP3    H151282   8.260   2.216  10.468 -0.0008 -1.0945  0.4304
 9029TIP3    H251283   8.373   2.299  10.525 -0.0851  0.2977 -1.3537
 9030TIP3   OH251284   1.510   1.909  11.138  0.1785 -0.4236  0.1368
 9030TIP3    H151285   1.539   1.897  11.229 -0.3006 -0.7788  0.2461
 9030TIP3    H251286   1.455   1.988  11.141  0.8009  0.0191  0.0053
 9031TIP3   OH251287   3.326   2.477  11.133  0.9621 -0.3489 -0.1093
 9031TIP3    H151288   3.275   2.399  11.155 -0.7011  0.6835 -0.1310
 9031TIP3    H251289   3.310   2.537  11.206  2.9392 -0.3193  0.3513
 9032TIP3   OH251290   0.329   6.115  11.874 -0.0528 -0.2419 -0.0782
 9032TIP3    H151291   0.311   6.185  11.937  0.1747  0.7739 -1.0961
 9032TIP3    H251292   0.336   6.036  11.927 -0.9409  0.3940  1.0502
 9033TIP3   OH251293   2.571   5.390  12.093  0.3390  0.2726 -0.3630
 9033TIP3    H151294   2.527   5.446  12.158  0.7410 -0.3941  0.5154
 9033TIP3    H251295   2.523   5.308  12.097  1.1983 -0.2226  0.0881
 9034TIP3   OH251296   5.128   1.400  11.264  0.0508  0.0724 -0.1190
 9034TIP3    H151297   5.151   1.472  11.205 -0.6832  0.8716  0.5465
 9034TIP3    H251298   5.173   1.421  11.346  1.5000 -1.3088 -0.5098
 9035TIP3   OH251299   5.747   2.217  11.990  0.1331 -0.2650 -0.1602
 9035TIP3    H151300   5.697   2.286  11.946  1.9253  0.0617 -1.8146
 9035TIP3    H251301   5.793   2.262  12.061 -0.5357 -0.2466  0.2750
 9036TIP3   OH251302   3.965   7.362  11.396 -0.2884  0.2686 -0.1206
 9036TIP3    H151303   3.926   7.411  11.324 -0.8805  0.5625  0.3955
 9036TIP3    H251304   3.908   7.379  11.471 -0.2071 -0.7876  0.1982
 9037TIP3   OH251305   6.926   5.062  11.653  0.1132  0.6328  0.0097
 9037TIP3    H151306   6.840   5.103  11.648  0.0360  0.3104 -2.4414
 9037TIP3    H251307   6.923   5.009  11.733 -1.8687  0.7916  0.0850
 9038TIP3   OH251308   4.553   1.955  11.955 -0.0281  0.3890  0.1473
 9038TIP3    H151309   4.578   1.966  11.863  3.3857 -1.2977  0.7048
 9038TIP3    H251310   4.497   1.877  11.956  0.2444  0.1853 -0.4436
 9039TIP3   OH251311   4.974   0.318  11.468  0.3861 -0.2611  0.1058
 9039TIP3    H151312   5.058   0.281  11.493  1.9319  1.3660 -2.2545
 9039TIP3    H251313   4.918   0.242  11.451  1.2451 -1.3611  1.9742
 9040TIP3   OH251314   7.472   6.457  12.065 -0.2343  0.4495  0.5530
 9040TIP3    H151315   7.547   6.428  12.117  0.6893  1.3887 -0.2190
 9040TIP3    H251316   7.452   6.382  12.009 -2.1973 -1.1692  3.1741
 9041TIP3   OH251317   0.864   7.401  11.165 -0.9553 -0.2532  0.0244
 9041TIP3    H151318   0.945   7.352  11.180 -2.1426 -1.7364  2.1371
 9041TIP3    H251319   0.870   7.476  11.224 -0.7080  0.1850 -0.5503
 9042TIP3   OH251320   6.889   6.081  11.235  0.0172 -0.2101  0.2254
 9042TIP3    H151321   6.930   6.010  11.285  1.0324 -0.9038 -1.5242
 9042TIP3    H251322   6.805   6.094  11.278  0.6289 -1.1019  1.8043
 9043TIP3   OH251323   6.801   2.304  10.920  0.4506 -1.0249  0.2148
 9043TIP3    H151324   6.842   2.347  10.845 -2.2356  1.6667  0.1062
 9043TIP3    H251325   6.778   2.217  10.887 -1.8201  0.4947 -2.6562
 9044TIP3   OH251326   5.012   1.459  12.612 -0.0754 -0.3707 -0.5174
 9044TIP3    H151327   5.063   1.424  12.538  0.5614 -0.2025 -0.1694
 9044TIP3    H251328   5.063   1.534  12.642 -0.9565  0.3083 -0.6743
 9045TIP3   OH251329   7.808   5.971  12.185 -0.0554  0.1699  0.6684
 9045TIP3    H151330   7.828   5.914  12.259 -1.8390  0.6316  1.5570
 9045TIP3    H251331   7.855   6.052  12.203  0.5981 -0.1821  0.5899
 9046TIP3   OH251332   0.641   2.279  11.768  0.1828 -0.5290 -0.4891
 9046TIP3    H151333   0.705   2.346  11.793 -1.3287  1.0354 -0.6363
 9046TIP3    H251334   0.639   2.282  11.673  1.2942 -1.9927 -0.5925
 9047TIP3   OH251335   5.980   4.853  10.703  0.7577 -0.0059  0.4708
 9047TIP3    H151336   5.888   4.828  10.697  0.1504  2.0727  0.4735
 9047TIP3    H251337   6.024   4.795  10.640 -1.0072  0.9911 -1.8596
 9048TIP3   OH251338   8.097   6.283  10.703 -0.5189  0.4105 -0.0828
 9048TIP3    H151339   8.180   6.242  10.678  0.3089  1.9594  0.0116
 9048TIP3    H251340   8.034   6.250  10.639  0.1590 -0.7725 -0.1747
 9049TIP3   OH251341   2.567   0.861  11.190 -0.2063  0.1401 -0.0042
 9049TIP3    H151342   2.605   0.774  11.180 -0.8321 -0.0283 -1.0760
 9049TIP3    H251343   2.528   0.861  11.277 -1.9970 -1.3838 -0.7473
 9050TIP3   OH251344   0.202   3.387  11.556 -0.0786  0.1427 -0.0182
 9050TIP3    H151345   0.190   3.475  11.520  1.2623  0.7218  0.8982
 9050TIP3    H251346   0.272   3.349  11.503  0.1430  0.0554  0.3368
 9051TIP3   OH251347   1.544   4.095  10.999 -0.6384  0.2173  0.5672
 9051TIP3    H151348   1.560   4.133  10.912  1.0244 -0.4013  0.5550
 9051TIP3    H251349   1.485   4.021  10.982 -0.0228 -0.1387 -0.1208
 9052TIP3   OH251350   0.587   4.825  11.107  0.5638  0.5589  0.1565
 9052TIP3    H151351   0.516   4.810  11.045  1.3650  4.1018 -1.9299
 9052TIP3    H251352   0.544   4.862  11.184 -0.1077 -0.4452  0.2848
 9053TIP3   OH251353   0.111   4.726  11.645  0.6794  0.2131  0.0301
 9053TIP3    H151354   0.131   4.700  11.735  0.3982  1.3350  0.4273
 9053TIP3    H251355   0.062   4.652  11.610  0.7602 -0.2263  0.8098
 9054TIP3   OH251356   7.016   0.893  11.270 -0.1547  0.4060  0.0707
 9054TIP3    H151357   7.054   0.817  11.313  0.5165  0.4079 -0.4873
 9054TIP3    H251358   6.928   0.866  11.245  0.1494 -0.2658 -0.3054
 9055TIP3   OH251359   1.513   4.611  12.525  0.0720 -0.3078  0.0720
 9055TIP3    H151360   1.426   4.612  12.486  0.4149 -0.9895 -0.7447
 9055TIP3    H251361   1.521   4.696  12.569 -1.4258 -0.6941  1.1469
 9056TIP3   OH251362   7.998   8.264  12.211  0.3174 -0.2750 -0.6475
 9056TIP3    H151363   7.988   8.294  12.301  0.7629 -2.2888  0.1299
 9056TIP3    H251364   8.086   8.227  12.209  0.3102 -0.2572 -1.9312
 9057TIP3   OH251365   4.250   5.487  11.678  0.7637  0.1386  0.2592
 9057TIP3    H151366   4.211   5.482  11.590 -0.3351  0.8857  0.6885
 9057TIP3    H251367   4.207   5.561  11.719  2.2953  0.6685  0.9603
 9058TIP3   OH251368   2.305   5.325  10.846  0.3551 -0.5750  0.1283
 9058TIP3    H151369   2.255   5.396  10.805 -0.4204 -1.8985 -1.3592
 9058TIP3    H251370   2.276   5.324  10.937  0.2779  0.9094  0.1333
 9059TIP3   OH251371   4.877   4.079  12.964  0.1614 -0.0957 -0.5636
 9059TIP3    H151372   4.839   4.091  12.877  1.3957  1.2510 -0.9801
 9059TIP3    H251373   4.967   4.111  12.954  0.0088  1.1021  1.4634
 9060TIP3   OH251374   4.230   6.742  12.445  0.7152 -0.5735  0.4675
 9060TIP3    H151375   4.269   6.821  12.482  0.7984 -1.7260  3.0754
 9060TIP3    H251376   4.138   6.745  12.472  0.6581 -1.2300  0.3792
 9061TIP3   OH251377   6.062   0.187  11.075  0.1215 -0.4598  0.0939
 9061TIP3    H151378   6.150   0.192  11.111  0.8142 -0.9958 -1.4380
 9061TIP3    H251379   6.016   0.260  11.115  0.9017 -0.8421  1.8038
 9062TIP3   OH251380   1.937   0.420  10.984  0.0033 -0.5561  1.1345
 9062TIP3    H151381   1.925   0.499  11.036 -0.6337  0.0542  0.1085
 9062TIP3    H251382   1.926   0.450  10.893 -1.7648 -2.0638  0.7905
 9063TIP3   OH251383   5.930   0.669  11.041 -0.2507  0.8207 -0.0084
 9063TIP3    H151384   5.853   0.656  11.096 -0.2927  0.5350 -0.1331
 9063TIP3    H251385   5.895   0.691  10.955 -0.2060  0.2983 -0.1670
 9064TIP3   OH251386   2.497   0.276  10.917  0.1732  0.3536 -0.1126
 9064TIP3    H151387   2.503   0.314  10.829  0.7025 -0.1743 -0.3121
 9064TIP3    H251388   2.431   0.207  10.908 -0.4754  0.9279  0.1462
 9065TIP3   OH251389   6.784   5.115  11.054  0.4424  0.1763  0.2813
 9065TIP3    H151390   6.704   5.082  11.014  0.9877 -0.5226 -0.2359
 9065TIP3    H251391   6.847   5.122  10.982  0.6686  1.3236  0.5667
 9066TIP3   OH251392   7.806   7.036  12.178 -0.3665 -0.2118 -0.4106
 9066TIP3    H151393   7.767   6.999  12.098 -0.7683 -1.0082  0.1394
 9066TIP3    H251394   7.736   7.088  12.217 -0.8017 -1.3303  0.3752
 9067TIP3   OH251395   8.071   0.327  11.983  0.0030  1.0681  0.5597
 9067TIP3    H151396   7.988   0.278  11.993  0.9958 -0.4331  2.0988
 9067TIP3    H251397   8.053   0.412  12.024 -0.4611  0.3145  2.0213
 9068TIP3   OH251398   6.777   5.828  11.799 -0.1563 -0.2523 -1.4836
 9068TIP3    H151399   6.796   5.735  11.812  0.7919  0.1367  0.3027
 9068TIP3    H251400   6.856   5.863  11.758 -0.3194 -0.1376 -1.7000
 9069TIP3   OH251401   0.948   7.302  11.744 -0.3187  0.0453  0.0568
 9069TIP3    H151402   1.000   7.354  11.804  0.3123  0.9759 -1.2480
 9069TIP3    H251403   1.007   7.283  11.671 -1.4904  0.2160 -0.9653
 9070TIP3   OH251404   4.004   8.321  11.033  0.4520 -0.2271  0.4744
 9070TIP3    H151405   3.913   8.333  11.007  0.5740 -2.4729 -1.3001
 9070TIP3    H251406   4.052   8.386  10.982  0.0472 -0.5154 -0.2808
 9071TIP3   OH251407   6.909   3.223  12.564  0.1845  0.2663 -0.2774
 9071TIP3    H151408   6.878   3.250  12.650  1.5010 -0.6425  0.5155
 9071TIP3    H251409   6.980   3.284  12.543 -0.2272  0.5788 -0.8099
 9072TIP3   OH251410   0.652   1.398  10.599 -0.3584  0.3409  1.0046
 9072TIP3    H151411   0.580   1.416  10.659 -0.1107  1.2181  1.0604
 9072TIP3    H251412   0.722   1.362  10.654  0.4295  2.5430  1.5688
 9073TIP3   OH251413   5.635   0.225  10.812  0.3858  0.3384 -0.2298
 9073TIP3    H151414   5.563   0.173  10.775  0.6430  0.8547 -1.5084
 9073TIP3    H251415   5.592   0.305  10.843  0.1491 -0.1523  0.7407
 9074TIP3   OH251416   0.245   7.655  12.331  0.3101  0.3627 -0.1621
 9074TIP3    H151417   0.327   7.698  12.352  0.4606  0.3777 -0.7657
 9074TIP3    H251418   0.258   7.620  12.242 -0.1985  0.0443 -0.1151
 9075TIP3   OH251419   2.450   8.359  11.893 -0.2177 -0.7788 -0.1552
 9075TIP3    H151420   2.495   8.419  11.833  0.7975 -0.8660  0.4927
 9075TIP3    H251421   2.378   8.323  11.841 -1.6077  1.8639 -0.2170
 9076TIP3   OH251422   0.228   5.725  12.091 -0.0342  0.2483 -0.3731
 9076TIP3    H151423   0.295   5.793  12.101 -0.2924  0.5990 -0.9449
 9076TIP3    H251424   0.153   5.771  12.054 -0.1788 -0.3736 -0.8698
 9077TIP3   OH251425   0.892   3.402  12.087 -0.1163 -0.2845  0.6929
 9077TIP3    H151426   0.817   3.448  12.125 -0.1136 -0.1340  0.5175
 9077TIP3    H251427   0.962   3.415  12.151 -0.0796  0.0666  0.5851
 9078TIP3   OH251428   7.392   1.862  10.631 -0.4500  0.5922  0.0905
 9078TIP3    H151429   7.453   1.935  10.643 -0.2303  0.2952  0.8993
 9078TIP3    H251430   7.446   1.784  10.645 -0.7411  0.2804 -0.4862
 9079TIP3   OH251431   6.814   0.498  12.128  0.2693  0.1154  0.7147
 9079TIP3    H151432   6.795   0.417  12.175  0.7998  0.0980  0.9006
 9079TIP3    H251433   6.887   0.476  12.070  0.4215  0.4590  0.7707
 9080TIP3   OH251434   7.272   2.727  11.435  0.5051  0.5688 -0.4775
 9080TIP3    H151435   7.269   2.663  11.507  2.5055  1.0367  0.0907
 9080TIP3    H251436   7.363   2.754  11.432 -0.0747  2.5666 -1.4598
 9081TIP3   OH251437   4.027   2.537  11.700 -0.6214  0.3008 -0.1928
 9081TIP3    H151438   3.999   2.624  11.671  0.0331 -0.1070 -2.1881
 9081TIP3    H251439   4.007   2.480  11.625  0.2371 -1.0117  0.5546
 9082TIP3   OH251440   6.537   1.272  10.547 -0.0153 -0.7233 -0.2987
 9082TIP3    H151441   6.570   1.333  10.612 -0.2896 -0.7476 -0.1362
 9082TIP3    H251442   6.567   1.186  10.577  0.2329 -0.6863 -0.4407
 9083TIP3   OH251443   6.361   2.058  10.962 -0.2375 -0.0117  0.1970
 9083TIP3    H151444   6.404   2.019  10.887 -2.0335  0.4747 -1.1416
 9083TIP3    H251445   6.426   2.119  10.998  0.4733  0.1257 -1.2595
 9084TIP3   OH251446   7.081   7.880  11.513  0.3587  0.0360 -0.0850
 9084TIP3    H151447   7.144   7.814  11.542 -1.6603 -1.0999  2.0543
 9084TIP3    H251448   7.026   7.833  11.450  0.4073  0.4226 -0.4199
 9085TIP3   OH251449   2.513   8.016  10.752  0.5563  0.1763 -0.0224
 9085TIP3    H151450   2.574   7.969  10.696 -1.1629 -1.1688 -0.8775
 9085TIP3    H251451   2.445   8.047  10.691 -0.5760 -0.0153  1.1110
 9086TIP3   OH251452   8.372   7.508  10.463  0.3439 -0.4605 -0.3249
 9086TIP3    H151453   8.394   7.422  10.499  0.5138 -0.3147 -0.0804
 9086TIP3    H251454   8.373   7.495  10.368  0.0133 -0.8169 -0.2846
 9087TIP3   OH251455   3.933   0.858  11.614 -0.1017 -0.0284 -0.3861
 9087TIP3    H151456   3.913   0.771  11.581 -0.8141  1.0694 -3.1358
 9087TIP3    H251457   3.854   0.885  11.661 -1.0461  0.1968 -2.0324
 9088TIP3   OH251458   6.110   7.148  12.371  0.0259 -0.0605  0.6395
 9088TIP3    H151459   6.111   7.242  12.353  1.3444  0.1030  1.4240
 9088TIP3    H251460   6.171   7.137  12.444  1.7591 -1.8050 -0.9404
 9089TIP3   OH251461   3.592   5.939  11.234  0.0932  0.0107 -0.1131
 9089TIP3    H151462   3.529   5.958  11.165 -0.3665  0.8229  0.5142
 9089TIP3    H251463   3.646   6.018  11.240 -0.3779  0.2677  0.9746
 9090TIP3   OH251464   4.824   2.194  12.128  0.4146 -0.3242 -0.9375
 9090TIP3    H151465   4.864   2.168  12.212 -1.2588 -1.4266 -0.4333
 9090TIP3    H251466   4.847   2.124  12.067 -0.8288 -1.0777 -0.5898
 9091TIP3   OH251467   0.497   7.448  12.552 -0.3430  0.4183  0.0074
 9091TIP3    H151468   0.530   7.525  12.598  0.1191 -0.1350  0.6157
 9091TIP3    H251469   0.573   7.392  12.539 -0.6466  0.1246 -0.5682
 9092TIP3   OH251470   7.893   2.517  11.552 -0.0760  0.3728 -0.4034
 9092TIP3    H151471   7.878   2.480  11.639 -0.1322 -0.3635 -0.7221
 9092TIP3    H251472   7.983   2.550  11.555  0.0714 -0.0454 -0.2025
 9093TIP3   OH251473   5.395   4.484  12.003 -0.4423  0.1685  0.5742
 9093TIP3    H151474   5.384   4.518  12.092 -1.5169  1.7444 -0.1070
 9093TIP3    H251475   5.317   4.431  11.987 -0.5114  0.3184  0.4041
 9094TIP3   OH251476   7.872   4.757  10.817 -0.1797 -0.4787  0.1566
 9094TIP3    H151477   7.837   4.757  10.906  0.7977  0.2501  0.5558
 9094TIP3    H251478   7.795   4.766  10.761 -1.1423 -3.6655  0.7476
 9095TIP3   OH251479   5.707   2.840  11.210  1.2290  0.0225  0.1791
 9095TIP3    H151480   5.769   2.903  11.247  2.0628 -0.3703 -0.5282
 9095TIP3    H251481   5.741   2.755  11.235  0.7707 -0.1916  0.0897
 9096TIP3   OH251482   3.860   4.607  11.890  0.6064  0.4970 -0.1877
 9096TIP3    H151483   3.860   4.702  11.874  0.4081  0.8153  1.4780
 9096TIP3    H251484   3.839   4.569  11.805 -1.4673  2.0522 -0.4838
 9097TIP3   OH251485   3.256   5.818  11.711 -0.7649  0.3872  0.3143
 9097TIP3    H151486   3.290   5.752  11.772 -0.4453 -1.5205 -1.8161
 9097TIP3    H251487   3.306   5.805  11.631  0.0334  3.9681  0.0628
 9098TIP3   OH251488   5.481   2.957  11.349 -0.0209  0.1378 -0.8018
 9098TIP3    H151489   5.520   2.976  11.434 -0.1964 -1.8513 -0.2059
 9098TIP3    H251490   5.541   2.893  11.309 -1.1769 -0.8245 -1.0700
 9099TIP3   OH251491   4.844   4.843  10.697 -0.4611 -0.5035  0.0373
 9099TIP3    H151492   4.920   4.805  10.654  0.6461  0.6508  0.8690
 9099TIP3    H251493   4.802   4.896  10.629  1.4201  1.5247  0.3310
 9100TIP3   OH251494   8.406   1.985  11.639  0.0016  1.0130 -0.5213
 9100TIP3    H151495   8.454   1.931  11.702 -2.6224 -1.4083 -0.4204
 9100TIP3    H251496   8.442   2.073  11.651  2.3308 -0.0946  1.5107
 9101TIP3   OH251497   1.890   5.263  10.923  0.3258 -0.1025 -0.2909
 9101TIP3    H151498   1.895   5.168  10.933  0.3287 -0.1710 -0.9174
 9101TIP3    H251499   1.936   5.282  10.841 -0.3374  0.3485 -0.5788
 9102TIP3   OH251500   5.832   5.791  11.143 -0.0983 -0.0171 -0.2373
 9102TIP3    H151501   5.803   5.787  11.234 -0.2015  1.3763 -0.1750
 9102TIP3    H251502   5.908   5.849  11.145  0.1638 -0.3286 -0.9767
 9103TIP3   OH251503   6.474   6.027  11.190 -0.4366 -0.1716 -0.0142
 9103TIP3    H151504   6.541   6.053  11.254 -0.2130  0.0833 -0.3483
 9103TIP3    H251505   6.391   6.034  11.238 -0.2296 -0.4418  0.3868
 9104TIP3   OH251506   5.253   0.881  11.618  0.3393 -0.1551 -0.2647
 9104TIP3    H151507   5.246   0.911  11.527  1.4943 -0.8414 -0.5849
 9104TIP3    H251508   5.310   0.945  11.660  0.9267 -0.6089 -0.3693
 9105TIP3   OH251509   6.426   6.990  10.804 -0.2970 -0.4267  0.0446
 9105TIP3    H151510   6.503   7.018  10.753  0.5455 -3.4261 -0.5147
 9105TIP3    H251511   6.397   7.070  10.848  2.1660  1.1725 -0.9728
 9106TIP3   OH251512   8.280   3.137  13.078 -0.2207 -0.3276 -0.0420
 9106TIP3    H151513   8.192   3.155  13.043 -0.1946 -1.6036 -0.8250
 9106TIP3    H251514   8.293   3.043  13.064  1.1852 -0.2088  0.2958
 9107TIP3   OH251515   1.504   6.794  12.432  0.2183 -0.2212 -0.0573
 9107TIP3    H151516   1.469   6.865  12.378  1.1503  0.1168 -0.2424
 9107TIP3    H251517   1.480   6.714  12.385 -0.4031 -0.0039 -0.1106
 9108TIP3   OH251518   3.433   5.463  11.025  0.3693 -0.7226 -0.2743
 9108TIP3    H151519   3.393   5.455  11.112  0.5016 -1.7020 -0.2936
 9108TIP3    H251520   3.487   5.384  11.016  3.2092  1.0312  0.1903
 9109TIP3   OH251521   7.718   6.706  10.745  0.2619 -0.0697  0.2799
 9109TIP3    H151522   7.690   6.765  10.676 -0.0526  0.9342  1.2306
 9109TIP3    H251523   7.768   6.762  10.805  1.2836 -1.0998  0.4163
 9110TIP3   OH251524   6.600   1.604  12.652  0.1539  0.1520  0.5508
 9110TIP3    H151525   6.513   1.630  12.680  0.1884  1.2249 -0.2922
 9110TIP3    H251526   6.660   1.658  12.703  0.3015  0.0479  0.4916
 9111TIP3   OH251527   6.311   7.655  12.371  0.3013 -0.2099 -0.0848
 9111TIP3    H151528   6.319   7.620  12.282  2.2705  0.7445 -0.3225
 9111TIP3    H251529   6.388   7.624  12.417  0.9597  1.8965  0.3358
 9112TIP3   OH251530   5.127   7.467  10.530 -0.2648  0.4519 -0.4011
 9112TIP3    H151531   5.090   7.394  10.481  1.2338 -0.5080 -0.1907
 9112TIP3    H251532   5.057   7.494  10.589 -1.5191  0.5106 -1.8591
 9113TIP3   OH251533   4.621   7.982  10.920 -0.3139 -0.3338  0.1588
 9113TIP3    H151534   4.577   8.050  10.972 -0.8099 -0.6729  0.1873
 9113TIP3    H251535   4.602   8.006  10.829  0.9629  0.5389  0.0927
 9114TIP3   OH251536   6.921   8.209  12.170  0.0372 -0.5071  0.1065
 9114TIP3    H151537   6.856   8.269  12.207  0.4554  0.8568 -1.2851
 9114TIP3    H251538   6.936   8.241  12.082  0.0470 -2.8688 -0.8363
 9115TIP3   OH251539   4.616   1.248  11.474  0.3267  0.0760  0.0007
 9115TIP3    H151540   4.670   1.322  11.501 -1.7453  1.2719  1.1779
 9115TIP3    H251541   4.623   1.185  11.546  0.6676 -0.0859 -0.1700
 9116TIP3   OH251542   0.696   1.638  10.980  0.3129 -0.4997  0.1062
 9116TIP3    H151543   0.719   1.546  10.997  0.9134 -0.5297 -0.7765
 9116TIP3    H251544   0.617   1.634  10.927 -0.7288 -0.4411  1.5920
 9117TIP3   OH251545   3.126   6.928  10.581 -0.1107  0.0596 -0.0287
 9117TIP3    H151546   3.189   6.955  10.649 -1.1311  1.2610  0.4767
 9117TIP3    H251547   3.067   7.003  10.572 -0.1228 -0.1480 -2.1240
 9118TIP3   OH251548   0.101   8.005  11.941  0.0500 -0.1365  0.4934
 9118TIP3    H151549   0.133   7.940  11.879 -1.2191  0.0597 -0.3966
 9118TIP3    H251550   0.179   8.056  11.965  0.7339 -0.8538 -0.1530
 9119TIP3   OH251551   7.459   5.494  10.319  0.4424 -0.3191 -0.2608
 9119TIP3    H151552   7.480   5.481  10.226 -1.9035  0.8003 -1.0405
 9119TIP3    H251553   7.544   5.506  10.361  1.7054 -2.3786 -1.9504
 9120TIP3   OH251554   7.206   3.165  12.080  0.4803 -0.8528  0.0791
 9120TIP3    H151555   7.201   3.111  12.001  0.5086 -0.6526 -0.0604
 9120TIP3    H251556   7.121   3.153  12.123  0.1306 -0.2703 -0.4365
 9121TIP3   OH251557   3.217   7.313  10.467  0.1897 -0.2295  0.1633
 9121TIP3    H151558   3.138   7.265  10.441  0.7358 -2.2616  1.9612
 9121TIP3    H251559   3.278   7.245  10.495  3.3503  1.0661 -2.8068
 9122TIP3   OH251560   8.356   0.912  11.027  0.3323  0.6316  0.2686
 9122TIP3    H151561   8.308   0.913  11.110  1.0940  0.4985  0.7190
 9122TIP3    H251562   8.417   0.839  11.036  1.2733  1.3759  0.0887
 9123TIP3   OH251563   1.024   1.738  11.566 -0.4381 -0.0657 -0.1593
 9123TIP3    H151564   0.985   1.675  11.506 -1.6071  0.3684  0.1297
 9123TIP3    H251565   1.119   1.721  11.560 -0.7281 -2.0355  0.1245
 9124TIP3   OH251566   4.351   3.815  11.990 -0.0282  0.0330  0.0354
 9124TIP3    H151567   4.443   3.827  11.967  0.1062  0.5808  0.8130
 9124TIP3    H251568   4.324   3.738  11.941  0.4479  0.6966 -1.3080
 9125TIP3   OH251569   7.649   5.511  11.709 -0.0114 -0.0921 -0.3021
 9125TIP3    H151570   7.738   5.543  11.724  0.7414 -1.5917 -1.2746
 9125TIP3    H251571   7.646   5.427  11.755 -1.0460  0.0837 -0.0167
 9126TIP3   OH251572   5.175   3.905  12.409 -0.3918  0.0710  0.2294
 9126TIP3    H151573   5.176   3.991  12.451  0.2399  1.3614 -2.2473
 9126TIP3    H251574   5.266   3.877  12.411 -0.1643  0.6469 -1.1713
 9127TIP3   OH251575   5.279   3.444  11.657  0.4442 -0.0201 -0.1531
 9127TIP3    H151576   5.227   3.366  11.678  1.1403 -0.1169  1.4192
 9127TIP3    H251577   5.369   3.411  11.651  0.5708  0.4510 -0.8907
 9128TIP3   OH251578   2.202   4.583  10.737  0.9527  0.0836 -0.1102
 9128TIP3    H151579   2.272   4.600  10.800  1.6099  0.5523 -0.9482
 9128TIP3    H251580   2.220   4.494  10.705  2.3688  0.9083 -1.7757
 9129TIP3   OH251581   7.107   6.181  11.641  0.0097  0.8736 -0.1036
 9129TIP3    H151582   7.017   6.151  11.653 -0.1118  0.5587 -1.5630
 9129TIP3    H251583   7.099   6.274  11.621  0.1050  1.0894  0.8218
 9130TIP3   OH251584   8.150   2.701  10.948  0.3622  0.1280  0.4672
 9130TIP3    H151585   8.096   2.641  11.000 -0.7793  1.3586  0.7635
 9130TIP3    H251586   8.188   2.645  10.879 -4.1624 -0.3571 -2.0656
 9131TIP3   OH251587   1.344   5.870  11.599  0.3733  0.0268 -0.1904
 9131TIP3    H151588   1.420   5.812  11.605  1.8616  1.7457 -1.5021
 9131TIP3    H251589   1.324   5.893  11.690 -1.8402 -4.2803  0.7101
 9132TIP3   OH251590   3.530   3.496  11.284 -0.0033 -0.5125 -0.4438
 9132TIP3    H151591   3.500   3.586  11.298 -1.4047 -1.2006  1.5450
 9132TIP3    H251592   3.452   3.450  11.251 -0.3060 -1.6458  1.6940
 9133TIP3   OH251593   8.348   2.890  10.726 -0.1096 -0.0007  0.5301
 9133TIP3    H151594   8.342   2.911  10.633  0.8703 -1.3800  0.1196
 9133TIP3    H251595   8.257   2.871  10.752 -0.2325 -0.8886 -0.4840
 9134TIP3   OH251596   7.842   5.941  10.495  0.0289 -0.3725 -0.2490
 9134TIP3    H151597   7.904   6.013  10.505 -1.6293  1.2294 -0.8542
 9134TIP3    H251598   7.895   5.867  10.465  1.6516  0.8813 -0.6180
 9135TIP3   OH251599   3.245   4.854  10.977 -0.0817  0.1076 -0.3205
 9135TIP3    H151600   3.241   4.949  10.976 -0.3810  0.1191  0.7998
 9135TIP3    H251601   3.195   4.828  11.054 -0.8949 -1.0124 -1.1836
 9136TIP3   OH251602   5.878   1.732  10.936 -0.6662  0.3016 -0.2148
 9136TIP3    H151603   5.873   1.794  11.009 -1.4854  1.5606 -1.2829
 9136TIP3    H251604   5.901   1.786  10.860 -1.5085 -0.6701 -1.1985
 9137TIP3   OH251605   6.120   3.164  11.365  0.6423  0.5113 -0.1758
 9137TIP3    H151606   6.159   3.170  11.452  0.3603 -1.2230  0.1118
 9137TIP3    H251607   6.188   3.197  11.306  2.1298 -1.2233  0.4389
 9138TIP3   OH251608   1.227   3.726  12.589 -0.3782  0.1789  0.2085
 9138TIP3    H151609   1.317   3.714  12.620  0.3278  0.9940 -1.3620
 9138TIP3    H251610   1.182   3.646  12.614  0.8759 -0.3903  0.7402
 9139TIP3   OH251611   3.513   0.193  11.396 -0.5468 -0.2237  0.6101
 9139TIP3    H151612   3.507   0.144  11.314  0.2847  0.4674  0.1236
 9139TIP3    H251613   3.601   0.175  11.429  0.4733  2.2794 -0.4794
 9140TIP3   OH251614   6.195   5.046  10.326 -0.3983  0.0244  0.1556
 9140TIP3    H151615   6.105   5.018  10.344 -0.2377  0.3656  1.5852
 9140TIP3    H251616   6.192   5.141  10.331 -0.0447  0.0666 -0.3196
 9141TIP3   OH251617   2.257   0.995  11.257 -0.1935 -0.2215  0.1312
 9141TIP3    H151618   2.191   0.936  11.223 -0.5888 -0.3024  1.0094
 9141TIP3    H251619   2.305   0.943  11.322 -0.2523  0.2788  0.5854
 9142TIP3   OH251620   2.108   3.646  12.257  0.4113 -0.6898  0.0909
 9142TIP3    H151621   2.039   3.681  12.314 -0.0333 -2.2714  0.6065
 9142TIP3    H251622   2.073   3.655  12.168 -0.6761 -1.7926  0.3661
 9143TIP3   OH251623   3.399   5.752  11.469 -0.1384  0.7641 -0.4604
 9143TIP3    H151624   3.480   5.767  11.518 -0.6502  0.6995  0.4229
 9143TIP3    H251625   3.407   5.662  11.436  0.9878  1.3877 -2.0350
 9144TIP3   OH251626   2.196   7.343  12.301 -0.4084 -0.1264 -0.3716
 9144TIP3    H151627   2.246   7.403  12.245 -0.0701  1.0999  1.1553
 9144TIP3    H251628   2.105   7.370  12.290 -0.5525 -1.1073 -1.7080
 9145TIP3   OH251629   1.109   2.091  10.602 -0.7365 -0.1507 -0.1557
 9145TIP3    H151630   1.108   2.183  10.625 -2.6141  0.3103 -1.8014
 9145TIP3    H251631   1.199   2.062  10.620  0.3273  2.3545 -1.0370
 9146TIP3   OH251632   4.489   2.943  10.859  0.8348  0.3776  0.6814
 9146TIP3    H151633   4.570   2.894  10.849  0.5479  0.3380 -2.2497
 9146TIP3    H251634   4.501   3.021  10.805 -0.1694  1.6748  2.2255
 9147TIP3   OH251635   6.670   7.901  11.914 -0.1417  0.1154  0.6686
 9147TIP3    H151636   6.713   7.934  11.993 -0.9765  0.0705  1.1504
 9147TIP3    H251637   6.696   7.809  11.909  0.9581  0.4289  0.1593
 9148TIP3   OH251638   3.550   3.176  12.303  0.2864  0.4939 -0.1810
 9148TIP3    H151639   3.580   3.086  12.291 -1.3696 -0.0789 -0.3709
 9148TIP3    H251640   3.621   3.219  12.349  1.0345 -0.9668  0.1072
 9149TIP3   OH251641   8.060   1.718  12.565 -0.1216 -0.0126 -0.3874
 9149TIP3    H151642   8.126   1.669  12.516  0.5762  1.0565 -0.5523
 9149TIP3    H251643   8.106   1.796  12.596 -0.8636 -0.0888  0.9756
 9150TIP3   OH251644   1.518   4.453  12.221 -0.6522  0.2868  0.2103
 9150TIP3    H151645   1.590   4.451  12.284  0.0130  0.9621 -0.5083
 9150TIP3    H251646   1.441   4.424  12.271  0.4879 -2.6848  0.4840
 9151TIP3   OH251647   6.397   4.250  12.368  0.1933  0.0620  0.1802
 9151TIP3    H151648   6.312   4.286  12.345  0.8379  0.5603 -1.5978
 9151TIP3    H251649   6.412   4.277  12.459 -0.9990  1.0040  0.1101
 9152TIP3   OH251650   8.405   7.482  12.688 -0.0073 -0.0372 -0.0340
 9152TIP3    H151651   8.478   7.477  12.625 -0.0863  3.1179 -0.4994
 9152TIP3    H251652   8.327   7.472  12.634 -0.0181  0.5674 -0.1335
 9153TIP3   OH251653   7.797   2.947  10.779 -0.3529 -0.5105  1.0265
 9153TIP3    H151654   7.761   3.034  10.764 -1.7137 -1.2146  0.0507
 9153TIP3    H251655   7.783   2.900  10.697  2.1789 -1.0775  0.8205
 9154TIP3   OH251656   3.362   0.168  12.387  1.2935  0.2606 -0.6214
 9154TIP3    H151657   3.299   0.152  12.317  0.1418  0.3075  0.3671
 9154TIP3    H251658   3.404   0.250  12.363 -0.5196  1.3460 -0.2990
 9155TIP3   OH251659   4.742   7.365  11.566  0.3420  0.5081  0.1803
 9155TIP3    H151660   4.811   7.372  11.631 -0.2849 -0.6882  1.0136
 9155TIP3    H251661   4.780   7.400  11.485  0.9976  2.4020  1.2591
 9156TIP3   OH251662   1.213   5.926  12.226 -0.0586  0.7080 -0.5094
 9156TIP3    H151663   1.141   5.875  12.263  0.8943 -0.6391 -0.4756
 9156TIP3    H251664   1.182   5.951  12.139 -0.4440 -0.1229 -0.6144
 9157TIP3   OH251665   0.085   0.525  11.613 -0.0371  0.5327 -0.7397
 9157TIP3    H151666   0.059   0.433  11.602  0.0063  0.6999 -2.5927
 9157TIP3    H251667   0.004   0.569  11.638  0.2441 -0.1880  1.7987
 9158TIP3   OH251668   7.373   6.346  11.500  0.2466 -0.3872 -0.2902
 9158TIP3    H151669   7.399   6.266  11.546 -2.1559 -0.3550  1.2710
 9158TIP3    H251670   7.443   6.408  11.521  0.4349 -1.0962  1.3539
 9159TIP3   OH251671   8.164   6.968  12.059 -0.1209 -0.9040  0.0441
 9159TIP3    H151672   8.199   7.056  12.049 -0.0937 -0.9594 -0.3619
 9159TIP3    H251673   8.158   6.955  12.154  0.2564 -0.6182  0.1098
 9160TIP3   OH251674   8.206   3.203  11.382  0.2339 -0.5006  0.3608
 9160TIP3    H151675   8.197   3.204  11.287  2.0173 -0.4529  0.1618
 9160TIP3    H251676   8.280   3.145  11.399  0.0871 -0.3292  1.7173
 9161TIP3   OH251677   8.156   8.189  11.894 -0.6819 -0.0938  0.7305
 9161TIP3    H151678   8.189   8.138  11.821  1.8653 -0.2974  1.9079
 9161TIP3    H251679   8.099   8.129  11.943 -0.8603 -0.5465 -0.0274
 9162TIP3   OH251680   6.261   0.944  13.222  0.9783  0.0333 -0.5701
 9162TIP3    H151681   6.328   0.989  13.170  0.4151  0.3748 -1.0108
 9162TIP3    H251682   6.202   0.906  13.157 -0.2817  1.2829 -0.2027
 9163TIP3   OH251683   2.330   8.384  11.169  0.5537  0.1499  0.6699
 9163TIP3    H151684   2.396   8.333  11.216  0.8201 -0.2378 -0.1098
 9163TIP3    H251685   2.376   8.464  11.142  0.5591  0.1150  0.5762
 9164TIP3   OH251686   5.572   5.644  11.785  0.6519 -0.5866 -0.0610
 9164TIP3    H151687   5.516   5.669  11.858  0.3362 -1.8212  0.1486
 9164TIP3    H251688   5.572   5.720  11.727  1.6542  0.7840  1.6289
 9165TIP3   OH251689   4.139   0.110  10.932 -0.3260 -0.0404  0.2021
 9165TIP3    H151690   4.230   0.136  10.927  0.6323 -3.0479 -0.0885
 9165TIP3    H251691   4.090   0.183  10.895  1.8366  2.0249  1.1870
 9166TIP3   OH251692   6.807   1.428  12.757 -0.1310 -0.4082  0.2699
 9166TIP3    H151693   6.892   1.460  12.730 -0.0875 -1.0714 -0.4310
 9166TIP3    H251694   6.744   1.480  12.707 -0.0983 -0.6171  0.0092
 9167TIP3   OH251695   2.108   7.388  11.774 -0.1779  0.0443 -0.1187
 9167TIP3    H151696   2.030   7.374  11.721 -0.5196  0.1655  0.3455
 9167TIP3    H251697   2.087   7.465  11.827 -0.1388 -0.5307  0.7377
 9168TIP3   OH251698   2.061   5.172  12.208  0.4343  0.3673  0.2742
 9168TIP3    H151699   2.095   5.261  12.213  1.2568  0.0735  0.1278
 9168TIP3    H251700   2.026   5.155  12.296  0.4057  0.7808  0.3446
 9169TIP3   OH251701   0.336   0.091  12.386 -0.1636 -0.0452 -0.3404
 9169TIP3    H151702   0.281   0.068  12.461  1.6611 -1.4163  0.6299
 9169TIP3    H251703   0.306   0.033  12.316 -0.8212  0.1516 -0.2340
 9170TIP3   OH251704   1.250   2.176  11.956  0.4155  0.0499 -0.8576
 9170TIP3    H151705   1.158   2.200  11.946  0.0955 -0.1120  1.1712
 9170TIP3    H251706   1.251   2.081  11.940 -0.2312 -0.3747  1.2765
 9171TIP3   OH251707   6.492   3.344  10.755  0.2912 -0.0872 -0.0587
 9171TIP3    H151708   6.587   3.335  10.762  0.1922 -1.0564  0.2320
 9171TIP3    H251709   6.458   3.289  10.826 -0.4717  1.0182  0.4512
 9172TIP3   OH251710   5.961   5.671  12.809  0.0425 -0.5234  0.3864
 9172TIP3    H151711   6.044   5.634  12.778 -0.9483 -1.4741 -1.3029
 9172TIP3    H251712   5.941   5.622  12.888 -0.1842 -2.1892 -0.6521
 9173TIP3   OH251713   4.089   5.452  10.919 -0.1390  0.6355  0.8377
 9173TIP3    H151714   4.118   5.371  10.877  1.0271  1.2323  0.4279
 9173TIP3    H251715   3.996   5.438  10.937 -0.1036 -0.5505  0.2203
 9174TIP3   OH251716   5.717   3.243  11.311  0.0914 -0.1562  0.1156
 9174TIP3    H151717   5.774   3.182  11.358 -0.4929 -1.5381 -0.8949
 9174TIP3    H251718   5.642   3.254  11.369  0.1319 -0.5272  0.2458
 9175TIP3   OH251719   1.339   4.896  11.089  0.3461  0.3321  0.1912
 9175TIP3    H151720   1.328   4.965  11.153  1.3044 -0.1299  0.8860
 9175TIP3    H251721   1.275   4.829  11.113  1.7660 -0.5655  1.7204
 9176TIP3   OH251722   7.464   1.019  11.882  0.2646 -0.2978 -0.5819
 9176TIP3    H151723   7.485   1.050  11.969 -0.2991 -1.1499 -0.1248
 9176TIP3    H251724   7.479   1.094  11.825  0.5049  0.3085  0.2641
 9177TIP3   OH251725   5.104   0.266  11.942  0.0118  0.8459  0.0089
 9177TIP3    H151726   5.039   0.336  11.939  1.4687  2.2603  0.6128
 9177TIP3    H251727   5.172   0.294  11.882  0.3221 -0.3955 -0.2495
 9178TIP3   OH251728   3.576   5.846  10.721  0.1595 -0.9817  0.4168
 9178TIP3    H151729   3.537   5.761  10.742 -0.6951 -0.4233  1.1549
 9178TIP3    H251730   3.504   5.897  10.684 -0.1976  0.4733  2.9357
 9179TIP3   OH251731   2.551   1.009  12.621  0.2217  0.8172 -0.4428
 9179TIP3    H151732   2.637   0.974  12.645 -0.7514  0.4344  3.0774
 9179TIP3    H251733   2.561   1.103  12.630  0.3725  0.7926 -0.3322
 9180TIP3   OH251734   4.005   3.093  11.648 -0.3912 -0.3784 -0.3342
 9180TIP3    H151735   4.008   3.017  11.591  1.1406 -0.2146 -0.5258
 9180TIP3    H251736   4.091   3.095  11.690 -0.0202  1.7646 -1.0641
 9181TIP3   OH251737   0.649   0.322  12.167  0.2327  0.4237 -0.6249
 9181TIP3    H151738   0.646   0.235  12.207  1.9828  0.0497 -1.2194
 9181TIP3    H251739   0.561   0.336  12.132 -0.4319 -0.5582  0.5704
 9182TIP3   OH251740   2.869   1.127  10.745  0.2836  0.2022 -0.9906
 9182TIP3    H151741   2.789   1.091  10.705 -1.0040  0.1775  1.3813
 9182TIP3    H251742   2.921   1.050  10.768 -0.7668 -0.0604  0.7331
 9183TIP3   OH251743   4.527   0.203  12.448 -0.4116 -0.0296  0.0416
 9183TIP3    H151744   4.435   0.226  12.458 -0.8464 -1.2954 -0.8128
 9183TIP3    H251745   4.534   0.167  12.360  0.9129  0.0741  0.0751
 9184TIP3   OH251746   3.847   6.409  11.935  0.3794 -0.1665  0.6171
 9184TIP3    H151747   3.756   6.397  11.961  0.1647  1.2296  0.5889
 9184TIP3    H251748   3.863   6.341  11.870 -0.5278 -0.6547  0.8964
 9185TIP3   OH251749   5.941   2.944  12.614  0.1078 -0.7520  0.7178
 9185TIP3    H151750   5.847   2.923  12.620  0.0703 -0.5373  0.8779
 9185TIP3    H251751   5.984   2.872  12.660  0.1076 -1.5419 -0.4788
 9186TIP3   OH251752   7.159   0.325  11.316 -0.2350  0.2354 -0.5194
 9186TIP3    H151753   7.202   0.403  11.351 -0.3354 -0.1165  0.4309
 9186TIP3    H251754   7.223   0.288  11.255  1.0788 -0.5321  1.2059
 9187TIP3   OH251755   2.278   3.433  11.928  0.4032 -0.4538  0.1815
 9187TIP3    H151756   2.256   3.349  11.970  0.6168  0.0915  1.4187
 9187TIP3    H251757   2.323   3.483  11.996  3.1252 -0.4903 -1.4287
 9188TIP3   OH251758   7.432   2.597  12.097 -0.0633  0.2829  0.0317
 9188TIP3    H151759   7.414   2.560  12.010 -0.3648 -0.0724  0.2391
 9188TIP3    H251760   7.364   2.559  12.153  1.5288 -1.3794  0.9397
 9189TIP3   OH251761   1.281   1.848  11.944  0.4324 -0.0551  0.3596
 9189TIP3    H151762   1.199   1.801  11.925 -0.1266  0.3781  1.5988
 9189TIP3    H251763   1.301   1.826  12.035  0.5671  1.4958  0.7278
 9190TIP3   OH251764   3.474   0.423  12.341 -0.5318 -0.2586 -0.1632
 9190TIP3    H151765   3.423   0.444  12.263  1.4533  0.8591 -1.2360
 9190TIP3    H251766   3.563   0.447  12.319  0.3181 -1.1033  2.0312
 9191TIP3   OH251767   5.354   6.168  11.970  0.0548  0.3251 -0.3399
 9191TIP3    H151768   5.289   6.127  11.912 -0.9600 -1.4679  1.8921
 9191TIP3    H251769   5.304   6.191  12.048  1.8110  0.3029  0.8343
 9192TIP3   OH251770   1.452   6.146  10.917 -0.1584 -0.2770 -0.1287
 9192TIP3    H151771   1.388   6.163  10.987 -1.3770 -0.7938 -1.0626
 9192TIP3    H251772   1.400   6.102  10.849  1.3638 -1.3824 -0.6242
 9193TIP3   OH251773   3.080   0.735  12.601 -0.1556  0.3033 -0.0036
 9193TIP3    H151774   3.099   0.747  12.694 -0.2464  0.5138 -0.0106
 9193TIP3    H251775   3.089   0.641  12.586  2.6949  0.5652 -0.4109
 9194TIP3   OH251776   5.312   7.266  11.761 -0.3305 -0.1064 -0.1550
 9194TIP3    H151777   5.344   7.211  11.690  0.4008  0.4383 -0.2507
 9194TIP3    H251778   5.251   7.210  11.809 -0.5089 -0.6083 -0.9607
 9195TIP3   OH251779   8.434   7.696  12.382 -0.1676  0.0999 -0.0710
 9195TIP3    H151780   8.434   7.606  12.414  0.4158  0.3114  0.5511
 9195TIP3    H251781   8.526   7.716  12.367 -0.0782  1.2448  1.7092
 9196TIP3   OH251782   4.745   4.010  12.112 -0.3836 -0.2150  0.6112
 9196TIP3    H151783   4.685   3.941  12.084 -0.6704  0.6112 -0.9168
 9196TIP3    H251784   4.792   4.035  12.033  1.2917 -0.1443  1.5758
 9197TIP3   OH251785   3.205   7.782  10.948 -0.5734  0.2161 -0.4269
 9197TIP3    H151786   3.206   7.872  10.981  0.6427 -0.0462  0.3079
 9197TIP3    H251787   3.208   7.728  11.027  0.7451 -0.4375 -0.9024
 9198TIP3   OH251788   6.666   1.780  12.157  0.2518 -0.2224 -0.9653
 9198TIP3    H151789   6.700   1.731  12.082  2.8606 -1.2080  0.7125
 9198TIP3    H251790   6.667   1.716  12.229 -0.9141  1.0264  0.2076
 9199TIP3   OH251791   2.685   1.915  10.938 -0.3311 -0.5018  0.3874
 9199TIP3    H151792   2.602   1.915  10.985 -1.8567 -2.4953 -2.0453
 9199TIP3    H251793   2.712   1.823  10.937  1.7531  0.0670  0.8038
 9200TIP3   OH251794   2.803   3.663  11.079 -0.5049  0.1636 -0.2877
 9200TIP3    H151795   2.869   3.732  11.087  0.8690 -1.2693  1.2964
 9200TIP3    H251796   2.763   3.657  11.165 -1.3967 -0.2963 -0.7165
 9201TIP3   OH251797   3.074   5.595  11.257 -0.1110 -0.1215 -0.0625
 9201TIP3    H151798   3.071   5.601  11.353 -1.4196  1.8828 -0.1594
 9201TIP3    H251799   3.161   5.559  11.238  0.9123  1.1294  1.8609
 9202TIP3   OH251800   3.909   8.265  11.278 -0.4754 -0.0164  0.2407
 9202TIP3    H151801   3.965   8.304  11.345 -0.5241  0.8472 -0.1998
 9202TIP3    H251802   3.956   8.280  11.196 -0.0773 -1.6994  0.1338
 9203TIP3   OH251803   2.396   1.200  12.390  0.8909  0.7191 -0.5692
 9203TIP3    H151804   2.312   1.170  12.354  0.3725  0.3296  0.9193
 9203TIP3    H251805   2.462   1.150  12.341  0.1485 -0.9205  0.0456
 9204TIP3   OH251806   6.855   3.848  11.951  0.1462  0.3256  0.0705
 9204TIP3    H151807   6.854   3.942  11.932  1.4249  0.5339  0.9080
 9204TIP3    H251808   6.777   3.834  12.003 -2.0016  0.2183 -2.9206
 9205TIP3   OH251809   2.047   4.284  10.944  0.5674  0.3313 -0.0681
 9205TIP3    H151810   2.027   4.192  10.928  0.6750  0.1953  0.5708
 9205TIP3    H251811   2.095   4.311  10.866 -0.8863  0.3003 -1.0196
 9206TIP3   OH251812   7.013   7.091  11.546 -0.5449  0.4627  0.0420
 9206TIP3    H151813   6.979   7.008  11.511 -1.0251 -0.3100  2.1475
 9206TIP3    H251814   6.934   7.144  11.562 -0.3791  0.6389  0.2815
 9207TIP3   OH251815   5.528   4.717  10.759 -0.2853 -0.2047  0.1262
 9207TIP3    H151816   5.535   4.694  10.666 -2.5278 -0.7565  0.0334
 9207TIP3    H251817   5.490   4.804  10.760 -1.9533 -0.9019  0.4874
 9208TIP3   OH251818   5.839   7.511  10.339 -0.0295  0.4361 -0.1707
 9208TIP3    H151819   5.873   7.595  10.372  1.8331  0.4688 -1.9580
 9208TIP3    H251820   5.887   7.445  10.388 -0.5219  0.4109  0.2887
 9209TIP3   OH251821   1.347   1.782  12.191  0.0485 -0.1992 -0.0118
 9209TIP3    H151822   1.343   1.738  12.276 -0.3092 -1.1833 -0.5110
 9209TIP3    H251823   1.430   1.753  12.153 -0.2762 -0.6220 -0.4233
 9210TIP3   OH251824   7.994   4.099  11.977  0.5181  0.3366  0.0784
 9210TIP3    H151825   8.062   4.140  11.923  2.0553 -1.2497  0.7128
 9210TIP3    H251826   8.017   4.124  12.067  0.2620 -0.2086  0.3021
 9211TIP3   OH251827   0.874   4.710  11.033 -0.3495 -0.3300 -0.0825
 9211TIP3    H151828   0.785   4.718  11.069 -0.0668 -1.5922  0.9808
 9211TIP3    H251829   0.862   4.663  10.950 -0.6823 -0.5202  0.0712
 9212TIP3   OH251830   7.199   4.373  12.297 -0.3326 -0.7428 -0.0703
 9212TIP3    H151831   7.175   4.291  12.341  1.5265 -0.0173  2.5923
 9212TIP3    H251832   7.282   4.353  12.254 -0.0672 -0.3719  0.2654
 9213TIP3   OH251833   6.104   5.233  11.745 -0.6418  0.4317  0.3951
 9213TIP3    H151834   6.126   5.205  11.834 -1.0238  0.9082  0.6470
 9213TIP3    H251835   6.187   5.261  11.707 -0.2717 -0.8641  0.1881
 9214TIP3   OH251836   6.648   1.668  11.421 -0.4959 -0.6290 -0.0170
 9214TIP3    H151837   6.621   1.697  11.508 -0.5315  0.8390 -0.4980
 9214TIP3    H251838   6.584   1.707  11.361 -1.4652 -2.9354 -0.6319
 9215TIP3   OH251839   0.537   7.857  11.704 -0.7023 -0.3008  0.1804
 9215TIP3    H151840   0.517   7.924  11.640 -0.6925  1.9451  2.3599
 9215TIP3    H251841   0.567   7.782  11.652 -1.2912  1.1340 -2.4031
 9216TIP3   OH251842   0.518   0.152  12.585  0.0787 -0.2246  0.1927
 9216TIP3    H151843   0.457   0.149  12.511 -1.0028 -1.2865  1.0973
 9216TIP3    H251844   0.502   0.070  12.632  2.2121 -0.5429  0.4626
 9217TIP3   OH251845   5.790   3.420  12.593  0.0760  0.0899 -0.6517
 9217TIP3    H151846   5.706   3.436  12.635  0.6017  0.9873  0.1055
 9217TIP3    H251847   5.773   3.429  12.500 -0.6904  0.1004 -0.5163
 9218TIP3   OH251848   5.582   0.176  11.712 -0.3039 -0.7214  0.2443
 9218TIP3    H151849   5.674   0.163  11.687 -0.1491 -0.6305  0.7529
 9218TIP3    H251850   5.549   0.088  11.730 -0.4090 -0.7847 -0.2477
 9219TIP3   OH251851   8.138   1.519  11.624 -0.2366 -0.6545 -0.5852
 9219TIP3    H151852   8.224   1.515  11.666 -0.3907 -0.2088 -0.2270
 9219TIP3    H251853   8.123   1.612  11.608 -1.3105 -0.5794  0.7130
 9220TIP3   OH251854   1.249   3.371  11.189 -0.2052 -0.0698 -0.6042
 9220TIP3    H151855   1.313   3.305  11.216 -0.0328 -0.1554 -1.1889
 9220TIP3    H251856   1.280   3.453  11.229 -0.3646 -0.3201  0.0413
 9221TIP3   OH251857   6.503   5.736  11.194  0.4191 -0.3163  0.6558
 9221TIP3    H151858   6.471   5.826  11.195  0.3756 -0.3098 -0.4119
 9221TIP3    H251859   6.527   5.718  11.285 -1.0630  0.2343  1.1813
 9222TIP3   OH251860   6.100   6.496  11.563  0.2206  0.1679 -0.6351
 9222TIP3    H151861   6.179   6.448  11.538  1.2728 -0.0365  2.5804
 9222TIP3    H251862   6.029   6.433  11.551  1.4936 -2.2175  2.8578
 9223TIP3   OH251863   6.002   3.150  12.915 -0.6292 -0.0285 -0.0578
 9223TIP3    H151864   6.021   3.063  12.950  0.9656  0.4800  0.4360
 9223TIP3    H251865   6.046   3.210  12.975  0.8743  0.9608 -2.0350
 9224TIP3   OH251866   1.148   5.007  12.018  0.0357  0.1148 -0.1638
 9224TIP3    H151867   1.196   5.038  11.942  1.3488 -1.1730  0.0893
 9224TIP3    H251868   1.216   4.982  12.081 -0.9019 -2.5395 -0.0920
 9225TIP3   OH251869   1.323   4.251  10.447  0.0740 -0.3026 -0.0001
 9225TIP3    H151870   1.246   4.193  10.451  1.5309 -2.3131  1.1109
 9225TIP3    H251871   1.311   4.301  10.367 -2.9645  0.3408  0.7293
 9226TIP3   OH251872   4.494   7.366  11.692  0.4537  0.3283  0.0754
 9226TIP3    H151873   4.574   7.375  11.640 -0.6855  0.2762 -1.7382
 9226TIP3    H251874   4.478   7.272  11.696 -0.0328  0.3930 -0.3648
 9227TIP3   OH251875   3.157   0.915  10.853 -0.0204  0.5641  0.1703
 9227TIP3    H151876   3.208   0.837  10.831  1.4543  1.3611  0.6273
 9227TIP3    H251877   3.067   0.883  10.864  0.3208 -0.8489 -0.8675
 9228TIP3   OH251878   2.957   6.242  11.611  0.0474  0.1891  0.0966
 9228TIP3    H151879   3.050   6.223  11.599 -0.0698  0.3791 -1.2954
 9228TIP3    H251880   2.921   6.161  11.646  0.9753  0.5919  2.1543
 9229TIP3   OH251881   5.271   0.318  12.632 -0.0575  0.0815 -0.3767
 9229TIP3    H151882   5.289   0.412  12.642 -0.4378  0.1808 -0.5857
 9229TIP3    H251883   5.356   0.279  12.616 -0.1429  0.7559 -2.9414
 9230TIP3   OH251884   6.486   0.873  12.217  0.1343 -0.5286  0.4417
 9230TIP3    H151885   6.501   0.875  12.311  2.1460  0.0907  0.1739
 9230TIP3    H251886   6.533   0.794  12.187 -0.0640 -0.4497 -0.0873
 9231TIP3   OH251887   7.675   3.651  12.556 -0.2078  0.5587  0.3808
 9231TIP3    H151888   7.723   3.574  12.525  0.2208 -0.3404  3.0628
 9231TIP3    H251889   7.736   3.724  12.544  0.6285 -0.0563  0.7977
 9232TIP3   OH251890   4.085   2.144  11.344  0.0314  0.1912 -0.2865
 9232TIP3    H151891   4.174   2.155  11.310 -0.9693  0.4075 -3.0154
 9232TIP3    H251892   4.028   2.183  11.279 -2.0918  0.7093  1.7341
 9233TIP3   OH251893   3.842   8.064  11.826 -0.2755  0.0334  0.3347
 9233TIP3    H151894   3.826   8.076  11.920 -1.1277 -2.4127  0.5460
 9233TIP3    H251895   3.819   8.149  11.787 -0.4480  0.9177  2.2407
 9234TIP3   OH251896   3.396   1.253  11.652  0.4781 -0.2382  0.0893
 9234TIP3    H151897   3.340   1.315  11.607  1.2562  0.9535  0.7047
 9234TIP3    H251898   3.463   1.307  11.694  1.9029 -1.5793 -0.3515
 9235TIP3   OH251899   0.543   3.029  12.891  0.0593 -0.0054 -0.1960
 9235TIP3    H151900   0.453   3.024  12.923 -0.3538 -0.4641 -1.3695
 9235TIP3    H251901   0.556   3.122  12.871 -1.2957 -0.3235 -3.0309
 9236TIP3   OH251902   1.513   7.199  11.451 -0.2304  0.5077  0.0626
 9236TIP3    H151903   1.430   7.186  11.498 -0.7788 -0.7100 -1.1586
 9236TIP3    H251904   1.501   7.152  11.369  1.0583  1.7610 -0.8892
 9237TIP3   OH251905   0.551   1.897  10.862  0.3967 -0.0622 -0.5054
 9237TIP3    H151906   0.612   1.861  10.797  0.5399 -0.3336 -0.2233
 9237TIP3    H251907   0.499   1.961  10.813  1.7665  1.1228 -0.4712
 9238TIP3   OH251908   1.550   3.875  11.273  0.1025  0.2502 -0.0021
 9238TIP3    H151909   1.564   3.952  11.329  1.6826 -0.5870  0.8222
 9238TIP3    H251910   1.517   3.808  11.332  0.5131 -0.2501 -0.3356
 9239TIP3   OH251911   8.238   2.458  11.883  0.0041 -0.2779 -0.2641
 9239TIP3    H151912   8.149   2.446  11.916  0.1087 -0.7458 -0.1499
 9239TIP3    H251913   8.288   2.491  11.958  0.3993 -1.9825  0.2718
 9240TIP3   OH251914   4.367   2.972  11.110 -0.1907  0.5570 -0.0415
 9240TIP3    H151915   4.299   3.039  11.115 -0.6819  0.0396  0.5973
 9240TIP3    H251916   4.404   2.980  11.022 -2.8423 -0.8018 -1.4126
 9241TIP3   OH251917   8.246   1.608  10.811 -0.2414 -0.4313  0.5508
 9241TIP3    H151918   8.270   1.529  10.763 -0.6485 -1.6939  2.3292
 9241TIP3    H251919   8.164   1.637  10.771 -0.2146 -1.0564  0.0328
 9242TIP3   OH251920   8.019   5.043  10.728 -0.1350 -0.5259 -0.1090
 9242TIP3    H151921   7.968   5.024  10.806 -0.9300 -1.8407 -0.9018
 9242TIP3    H251922   7.962   5.017  10.655  1.1494 -0.7589 -1.0744
 9243TIP3   OH251923   4.412   3.447  12.465 -0.1359 -0.1241 -0.8755
 9243TIP3    H151924   4.325   3.414  12.488  0.8909 -1.6386  1.0709
 9243TIP3    H251925   4.412   3.538  12.495 -1.4479  0.3273 -2.1066
 9244TIP3   OH251926   3.756   1.289  12.312 -0.3583 -0.5949  0.0825
 9244TIP3    H151927   3.674   1.270  12.358  0.2208 -1.2419  0.8886
 9244TIP3    H251928   3.740   1.372  12.268 -1.0526 -0.1070  1.2076
 9245TIP3   OH251929   7.270   8.379  12.682 -0.1470  0.0176  0.5645
 9245TIP3    H151930   7.290   8.472  12.676  0.3057 -0.1264 -0.2759
 9245TIP3    H251931   7.317   8.349  12.760 -0.4374  0.5224  0.9379
 9246TIP3   OH251932   4.547   4.422  11.667  0.3675  0.4387  0.6561
 9246TIP3    H151933   4.613   4.370  11.621 -0.9679 -0.1889 -0.6487
 9246TIP3    H251934   4.542   4.383  11.754  1.1071 -0.0610  0.4822
 9247TIP3   OH251935   1.232   5.038  10.836  0.4798 -0.1938  0.0882
 9247TIP3    H151936   1.233   5.132  10.853 -1.0923  0.1855 -1.5822
 9247TIP3    H251937   1.315   5.006  10.871  1.3345  1.9153  0.1212
 9248TIP3   OH251938   7.076   3.459  11.190 -0.1852  0.0847 -0.2670
 9248TIP3    H151939   7.159   3.442  11.234  0.5982  0.0865 -1.6883
 9248TIP3    H251940   7.075   3.554  11.176 -0.9013  0.2220  0.6201
 9249TIP3   OH251941   7.620   1.939  11.071 -0.6098 -0.5905  0.2869
 9249TIP3    H151942   7.690   1.877  11.046 -0.4367 -0.3707  0.2236
 9249TIP3    H251943   7.629   2.011  11.008 -0.7353 -0.4455  0.4371
 9250TIP3   OH251944   2.619   4.342  11.329 -0.2608 -0.5095 -0.2386
 9250TIP3    H151945   2.691   4.397  11.361  0.0589 -0.4589 -1.0423
 9250TIP3    H251946   2.651   4.252  11.340  0.4012 -0.4718 -1.6485
 9251TIP3   OH251947   4.561   5.943  12.636 -0.0744 -0.9361  0.3055
 9251TIP3    H151948   4.476   5.900  12.630 -0.8752  0.5525  0.4098
 9251TIP3    H251949   4.619   5.876  12.672 -0.9465 -2.2999 -0.6986
 9252TIP3   OH251950   1.480   6.519  12.302  0.2047 -0.2153 -0.4030
 9252TIP3    H151951   1.540   6.445  12.291 -0.1043 -0.4821 -0.3021
 9252TIP3    H251952   1.393   6.480  12.304  0.0322  0.1613 -0.4446
 9253TIP3   OH251953   4.615   2.081  10.694 -0.3026 -0.1926  0.2076
 9253TIP3    H151954   4.544   2.098  10.631 -0.6647 -0.5093  0.5268
 9253TIP3    H251955   4.630   2.165  10.736 -0.8955 -0.2542  0.5533
 9254TIP3   OH251956   2.640   5.948  11.767  0.2093  0.0188  0.0461
 9254TIP3    H151957   2.613   6.031  11.729  2.0830  0.8398  0.4074
 9254TIP3    H251958   2.627   5.884  11.696  1.9359  1.2148 -1.4265
 9255TIP3   OH251959   2.830   4.094  12.870 -0.5753 -0.1452  0.3679
 9255TIP3    H151960   2.781   4.013  12.855  0.6219 -1.2035  1.8373
 9255TIP3    H251961   2.881   4.106  12.790 -1.2227 -0.4864 -0.1092
 9256TIP3   OH251962   6.308   8.303  11.696 -0.3800 -0.1526  0.8688
 9256TIP3    H151963   6.355   8.337  11.773  0.3002 -0.8044  0.7513
 9256TIP3    H251964   6.290   8.380  11.643 -1.2062  0.3624  1.8632
 9257TIP3   OH251965   4.595   0.369  11.047  0.0284  0.0641  0.1912
 9257TIP3    H151966   4.541   0.333  11.117 -0.3680 -0.0239 -0.1628
 9257TIP3    H251967   4.601   0.462  11.067 -0.6222  0.1497 -0.0188
 9258TIP3   OH251968   5.564   1.091  12.072  0.0132  0.6787 -0.4704
 9258TIP3    H151969   5.500   1.027  12.103  2.2441 -1.3491  0.1626
 9258TIP3    H251970   5.516   1.175  12.074 -2.0706 -0.4513  1.6360
 9259TIP3   OH251971   3.554   7.204  11.885 -0.4699 -0.1650  0.5001
 9259TIP3    H151972   3.586   7.295  11.880  0.6799 -0.5464  0.6332
 9259TIP3    H251973   3.587   7.172  11.969 -2.8112 -0.0129  1.5505
 9260TIP3   OH251974   4.833   6.215  11.105  0.2188 -0.0939  0.1160
 9260TIP3    H151975   4.862   6.127  11.082 -2.0161 -0.4659 -1.6505
 9260TIP3    H251976   4.749   6.202  11.149  0.0581  1.1408  0.2233
 9261TIP3   OH251977   6.645   2.991  12.181 -0.2954  0.2789  0.1672
 9261TIP3    H151978   6.595   3.040  12.116 -1.2548 -1.2256 -0.2792
 9261TIP3    H251979   6.620   2.900  12.167  1.9612 -0.4379  0.5167
 9262TIP3   OH251980   5.152   5.799  11.418  0.1474 -0.0200  0.2463
 9262TIP3    H151981   5.203   5.763  11.490  1.3410 -0.1220 -0.6214
 9262TIP3    H251982   5.136   5.724  11.360  0.5528  0.3531 -0.3635
 9263TIP3   OH251983   0.159   1.925  10.692 -0.8589  0.6060  0.2194
 9263TIP3    H151984   0.209   1.863  10.745 -0.6777  0.3648 -0.2264
 9263TIP3    H251985   0.219   2.000  10.681 -0.7821  0.5285  0.1041
 9264TIP3   OH251986   7.802   2.177  11.184  0.2919 -0.1585  0.0667
 9264TIP3    H151987   7.856   2.249  11.219  1.1563 -0.9249  0.3590
 9264TIP3    H251988   7.835   2.164  11.095 -0.2484  0.1750 -0.1841
 9265TIP3   OH251989   3.491   4.495  10.780 -0.7950 -0.1739  0.3845
 9265TIP3    H151990   3.503   4.506  10.686 -0.2668  0.2938  0.5030
 9265TIP3    H251991   3.418   4.434  10.788 -0.9104 -0.1318 -0.3265
 9266TIP3   OH251992   1.327   0.604  10.510  0.1734 -0.4885  0.4778
 9266TIP3    H151993   1.376   0.613  10.429  1.6897 -0.9877  1.2979
 9266TIP3    H251994   1.236   0.614  10.484  0.5106 -1.9746 -1.4987
 9267TIP3   OH251995   5.145   3.344  10.749  0.3433 -0.2117 -0.2191
 9267TIP3    H151996   5.185   3.261  10.775  0.7653  0.0046 -0.1587
 9267TIP3    H251997   5.107   3.379  10.830  1.2153  0.2208  0.0209
 9268TIP3   OH251998   4.617   0.954  10.649  0.0249 -0.0815 -0.2621
 9268TIP3    H151999   4.536   0.936  10.697 -0.9272 -1.0345 -2.1115
 9268TIP3    H252000   4.590   1.016  10.581  1.3559  1.3129  0.4241
 9269TIP3   OH252001   2.405   4.408  10.538 -0.1216  0.5781  0.3704
 9269TIP3    H152002   2.479   4.402  10.598 -1.2197  1.4325  1.8800
 9269TIP3    H252003   2.413   4.495  10.499  0.9392 -0.1988 -1.2847
 9270TIP3   OH252004   6.404   3.158  10.935  0.6082 -0.0001 -0.2151
 9270TIP3    H152005   6.386   3.092  11.002  1.9224 -0.8769 -0.6770
 9270TIP3    H252006   6.357   3.127  10.858 -0.9290  1.0244  0.2650
 9271TIP3   OH252007   3.236   7.573  11.728  0.5024  0.0652  0.8694
 9271TIP3    H152008   3.281   7.492  11.750  0.1277 -0.1468  0.8731
 9271TIP3    H252009   3.306   7.633  11.701  0.7388 -0.4354  0.3283
 9272TIP3   OH252010   4.938   2.680  11.852 -0.0253  0.1793 -0.0153
 9272TIP3    H152011   5.011   2.693  11.913  1.1528 -0.4017 -1.2535
 9272TIP3    H252012   4.860   2.684  11.907  1.0002 -0.5085  1.5643
 9273TIP3   OH252013   4.556   3.589  11.323  0.0128 -0.1773  0.3518
 9273TIP3    H152014   4.557   3.548  11.236 -1.5300 -1.1772  0.7652
 9273TIP3    H252015   4.582   3.519  11.383  1.0160  0.4911  0.7112
 9274TIP3   OH252016   7.466   1.826  12.283 -0.2670 -0.1173  0.0400
 9274TIP3    H152017   7.512   1.829  12.366  0.5275 -1.9104 -0.2927
 9274TIP3    H252018   7.419   1.909  12.278  1.5797  1.0464  1.1711
 9275TIP3   OH252019   0.703   6.526  11.427 -0.1486 -0.3913 -0.0694
 9275TIP3    H152020   0.744   6.607  11.459  0.9323 -0.5863 -0.9131
 9275TIP3    H252021   0.672   6.548  11.339  1.0161 -1.1408 -0.6937
 9276TIP3   OH252022   3.777   2.324  10.770  1.0961 -0.0807  0.1220
 9276TIP3    H152023   3.741   2.323  10.681 -0.1637  0.7218  0.5967
 9276TIP3    H252024   3.715   2.271  10.821  2.4246 -1.5216  0.3385
 9277TIP3   OH252025   2.159   6.600  10.948  0.0766 -0.2819 -0.3875
 9277TIP3    H152026   2.214   6.643  11.013  0.6260 -0.2706 -0.8438
 9277TIP3    H252027   2.144   6.667  10.881 -1.1177 -0.0558  0.0880
 9278TIP3   OH252028   0.440   7.077  11.011 -0.0838  0.2419 -0.0441
 9278TIP3    H152029   0.415   7.076  10.919 -0.7262  1.5297  0.1022
 9278TIP3    H252030   0.510   7.142  11.017  0.8498 -0.7439  0.1785
 9279TIP3   OH252031   2.297   7.323  10.753  0.2184 -0.1084  0.0065
 9279TIP3    H152032   2.304   7.272  10.672 -0.4775  0.6279 -0.5394
 9279TIP3    H252033   2.203   7.325  10.772  0.3454  0.0204  0.6341
 9280TIP3   OH252034   5.385   0.132  12.346 -0.4275 -0.1167  0.5495
 9280TIP3    H152035   5.306   0.082  12.323  0.4399 -1.1150 -0.3809
 9280TIP3    H252036   5.402   0.108  12.437 -1.6199  0.7110  1.0068
 9281TIP3   OH252037   6.297   4.522  11.423 -0.0250  0.3004 -0.2436
 9281TIP3    H152038   6.284   4.569  11.506 -0.1420  0.4383 -0.3396
 9281TIP3    H252039   6.209   4.514  11.386  0.2871  3.1000 -1.9220
 9282TIP3   OH252040   5.791   1.851  11.241 -0.2503 -0.1216  0.2584
 9282TIP3    H152041   5.765   1.760  11.229 -0.7630 -0.2107  1.7939
 9282TIP3    H252042   5.727   1.886  11.304  0.8976  0.8416  0.9290
 9283TIP3   OH252043   5.351   3.391  12.468 -0.3580 -0.0857  0.5576
 9283TIP3    H152044   5.327   3.381  12.376 -0.2308 -0.3755  0.5564
 9283TIP3    H252045   5.376   3.303  12.496 -1.1235 -0.1437  1.0748
 9284TIP3   OH252046   1.404   2.236  10.662  0.4834 -0.4320 -0.4720
 9284TIP3    H152047   1.489   2.270  10.690  0.1518 -0.3971  0.5330
 9284TIP3    H252048   1.417   2.141  10.658  0.1033 -0.6137  1.4811
 9285TIP3   OH252049   1.407   4.619  11.101 -0.0906 -0.1718 -0.2883
 9285TIP3    H152050   1.370   4.615  11.189  1.3837 -2.4471  0.3235
 9285TIP3    H252051   1.406   4.712  11.078 -1.3521  0.3687  1.7338
 9286TIP3   OH252052   5.211   4.310  11.589  0.0633  0.1879 -0.0710
 9286TIP3    H152053   5.160   4.391  11.587  0.9967  0.8107  0.7063
 9286TIP3    H252054   5.173   4.256  11.520 -1.1181  0.9553 -0.0407
 9287TIP3   OH252055   1.618   4.182  10.755 -0.1071 -0.1500 -0.3918
 9287TIP3    H152056   1.578   4.147  10.675 -0.3078  2.5240 -1.6009
 9287TIP3    H252057   1.708   4.152  10.752 -0.5900 -1.6629 -0.5747
 9288TIP3   OH252058   1.791   8.303  12.078 -0.4357 -0.1839  0.2428
 9288TIP3    H152059   1.738   8.227  12.103 -0.8031 -0.4214 -1.1782
 9288TIP3    H252060   1.865   8.301  12.138 -0.6230 -1.4652  0.4612
 9289TIP3   OH252061   2.033   7.071  10.708  0.1552 -0.4234 -0.1098
 9289TIP3    H152062   2.023   7.132  10.782  2.3472 -0.7616  0.5499
 9289TIP3    H252063   1.962   7.094  10.648  1.0111  2.9888 -0.0248
 9290TIP3   OH252064   7.662   0.450  11.417  0.4998 -0.4037 -0.0259
 9290TIP3    H152065   7.621   0.366  11.439  1.5842 -0.8475  0.3327
 9290TIP3    H252066   7.692   0.440  11.327  0.2035 -0.2272 -0.1455
 9291TIP3   OH252067   5.087   4.570  11.585 -0.3194  0.2174 -0.4304
 9291TIP3    H152068   5.123   4.633  11.647 -0.1830 -1.1350  0.9186
 9291TIP3    H252069   5.008   4.536  11.628  0.3385 -1.5039 -0.5013
 9292TIP3   OH252070   1.617   6.143  11.147 -0.0931  0.5824  0.3764
 9292TIP3    H152071   1.574   6.164  11.064 -2.1484  1.4905  1.5981
 9292TIP3    H252072   1.550   6.099  11.199  1.3886 -0.7176  1.3016
 9293TIP3   OH252073   4.413   0.794  11.682 -0.1089 -0.2827  0.3656
 9293TIP3    H152074   4.344   0.777  11.747  0.8817  0.6581  1.7278
 9293TIP3    H252075   4.472   0.855  11.726  1.1219 -0.3640 -1.1037
 9294TIP3   OH252076   5.938   2.620  10.459  0.4069  0.1227  0.0822
 9294TIP3    H152077   5.992   2.577  10.525 -1.0767  0.6076  1.7031
 9294TIP3    H252078   5.889   2.549  10.418  0.8667 -0.1231 -0.0445
 9295TIP3   OH252079   0.775   4.527  11.690 -0.2412 -1.1396 -0.9685
 9295TIP3    H152080   0.840   4.529  11.620 -0.7187 -2.1376 -1.4689
 9295TIP3    H252081   0.819   4.565  11.766  0.7090 -1.2041 -1.4778
 9296TIP3   OH252082   3.214   3.747  10.846  0.0867  0.0246 -0.5428
 9296TIP3    H152083   3.206   3.774  10.755 -0.4239 -0.3944 -0.6309
 9296TIP3    H252084   3.303   3.713  10.854  0.1418  0.0932 -0.8780
 9297TIP3   OH252085   1.373   7.994  10.685 -0.0152  0.2365  0.2775
 9297TIP3    H152086   1.284   7.960  10.689 -0.2111  0.7080 -0.0340
 9297TIP3    H252087   1.366   8.084  10.718  0.3199  0.3250  0.1104
 9298TIP3   OH252088   7.997   2.876  13.146  0.3085 -0.3497  0.1915
 9298TIP3    H152089   8.054   2.860  13.221  1.0216  0.0414 -0.2555
 9298TIP3    H252090   7.954   2.959  13.166  0.2185 -0.4307  0.3347
 9299TIP3   OH252091   7.707   2.129  10.352  0.3192  0.3247  0.3238
 9299TIP3    H152092   7.791   2.128  10.307  0.8320  2.0729  1.1589
 9299TIP3    H252093   7.678   2.220  10.346 -0.6393  0.1302  1.6238
 9300TIP3   OH252094   0.248   6.399  11.560  0.1556 -0.2326  0.2516
 9300TIP3    H152095   0.268   6.485  11.597  0.0093 -0.2923  0.4738
 9300TIP3    H252096   0.326   6.346  11.579 -0.5910 -0.7665  2.0608
 9301TIP3   OH252097   5.220   7.730  11.015 -0.3629 -0.2059 -0.3598
 9301TIP3    H152098   5.234   7.756  11.106  2.1653 -0.6642 -0.5379
 9301TIP3    H252099   5.143   7.673  11.018  0.4740 -1.3616  1.7663
 9302TIP3   OH252100   3.894   2.121  12.168 -0.0655  0.6388 -0.3335
 9302TIP3    H152101   3.904   2.034  12.208 -0.6100  0.0742 -1.3730
 9302TIP3    H252102   3.800   2.138  12.172  0.1930  1.8818  1.2341
 9303TIP3   OH252103   6.720   1.342  11.234 -0.1487  0.4126  0.2254
 9303TIP3    H152104   6.816   1.333  11.230 -0.2713 -1.0165  0.1426
 9303TIP3    H252105   6.693   1.352  11.143 -0.1484 -0.0854  0.1674
 9304TIP3   OH252106   4.106   5.064  12.293  0.6172 -0.4345 -0.1284
 9304TIP3    H152107   4.117   5.050  12.199 -0.3638 -0.9979 -0.1747
 9304TIP3    H252108   4.093   5.158  12.302 -0.3552 -0.5007 -0.6891
 9305TIP3   OH252109   0.876   6.976  11.405  0.5500 -0.0914 -0.0993
 9305TIP3    H152110   0.885   6.999  11.312 -0.8628  1.1359  0.0389
 9305TIP3    H252111   0.784   6.951  11.415  1.2144 -2.6550  0.5027
 9306TIP3   OH252112   7.472   0.868  10.876  0.3876 -0.1564 -0.6738
 9306TIP3    H152113   7.393   0.915  10.902  0.3305  0.3318 -1.6898
 9306TIP3    H252114   7.511   0.839  10.958 -0.5844  0.0259 -0.1392
 9307TIP3   OH252115   2.417   4.682  10.485 -0.0228 -0.2145  0.0254
 9307TIP3    H152116   2.331   4.673  10.526 -0.5539 -0.5896 -1.1212
 9307TIP3    H252117   2.424   4.775  10.465 -0.4703 -0.2936 -0.5123
 9308TIP3   OH252118   2.209   3.220  12.079 -0.0297 -0.1589 -0.4658
 9308TIP3    H152119   2.249   3.157  12.139 -2.1987 -0.3682  0.9108
 9308TIP3    H252120   2.131   3.175  12.047 -0.5486  1.0905 -1.0223
 9309TIP3   OH252121   5.930   2.028  10.878 -0.6746  0.2975 -0.2543
 9309TIP3    H152122   5.848   2.040  10.926 -0.6537 -0.9684  0.1219
 9309TIP3    H252123   5.994   2.082  10.925 -0.3500 -1.8704  1.9786
 9310TIP3   OH252124   0.591   5.054  11.581 -0.5831 -0.0464  0.3376
 9310TIP3    H152125   0.666   5.106  11.610  0.6089 -1.8458  0.6849
 9310TIP3    H252126   0.593   4.977  11.638 -2.0202 -0.6767 -0.4279
 9311TIP3   OH252127   8.102   8.012  11.229 -0.3404  0.1829 -0.4935
 9311TIP3    H152128   8.088   7.920  11.254  0.6425 -0.7013 -2.9324
 9311TIP3    H252129   8.189   8.034  11.263  0.8608 -0.9121 -2.6863
 9312TIP3   OH252130   7.500   6.559  11.659 -0.6409  0.0185 -0.5928
 9312TIP3    H152131   7.584   6.515  11.673 -0.3092  1.0634  0.8978
 9312TIP3    H252132   7.510   6.602  11.574  1.5118  2.5539  0.7970
 9313TIP3   OH252133   5.398   4.563  11.366  0.2673  0.6434 -0.3092
 9313TIP3    H152134   5.390   4.619  11.289 -1.1562  0.3947 -0.3732
 9313TIP3    H252135   5.354   4.612  11.436 -1.6053 -0.6122 -0.5262
 9314TIP3   OH252136   0.364   5.606  12.730  0.1994 -0.0769 -0.0020
 9314TIP3    H152137   0.327   5.524  12.763  0.9247  0.3307  1.9478
 9314TIP3    H252138   0.300   5.637  12.666 -1.0687 -1.1572  0.6892
 9315TIP3   OH252139   3.143   7.731  10.677  1.0351 -0.3115  0.1755
 9315TIP3    H152140   3.161   7.768  10.763 -1.2718 -0.2036  0.6766
 9315TIP3    H252141   3.159   7.637  10.689  1.4981 -0.2003  0.4837
 9316TIP3   OH252142   7.733   4.483  12.540  0.2616  0.1620 -0.1501
 9316TIP3    H152143   7.719   4.438  12.624  1.0818  1.0150  0.4677
 9316TIP3    H252144   7.687   4.566  12.548  0.9404  0.5580 -0.2596
 9317TIP3   OH252145   8.393   0.083  11.116  0.0880 -0.5308  0.1668
 9317TIP3    H152146   8.305   0.074  11.153  0.9844 -1.6277  2.2233
 9317TIP3    H252147   8.435   0.149  11.171  0.5836 -0.0761 -0.7473
 9318TIP3   OH252148   4.717   2.563  10.747  0.1153 -0.6452 -0.1485
 9318TIP3    H152149   4.812   2.556  10.756  0.2874 -2.1961 -2.3602
 9318TIP3    H252150   4.693   2.640  10.799  2.5489 -0.2388  0.4746
 9319TIP3   OH252151   3.807   3.461  10.579  0.8097  0.1110  0.2794
 9319TIP3    H152152   3.870   3.399  10.544  0.0501 -0.0480 -0.8403
 9319TIP3    H252153   3.860   3.535  10.609  1.8238 -1.4084  2.5344
 9320TIP3   OH252154   6.064   0.961  12.679 -0.4003 -0.3518  0.0698
 9320TIP3    H152155   6.055   1.054  12.656 -0.4187 -0.5661 -0.8130
 9320TIP3    H252156   6.157   0.951  12.701 -0.0823 -0.3980 -1.1765
 9321TIP3   OH252157   1.175   4.733  11.608 -0.5181  0.0705  0.4329
 9321TIP3    H152158   1.099   4.792  11.606 -0.4501  0.1781  0.7905
 9321TIP3    H252159   1.173   4.687  11.525 -0.5446  0.6247  0.1233
 9322TIP3   OH252160   7.635   1.354  11.198  0.4693  0.0492 -0.0976
 9322TIP3    H152161   7.562   1.380  11.143  1.1939 -1.3073 -1.8334
 9322TIP3    H252162   7.607   1.272  11.238  0.4798  0.2918  0.4031
 9323TIP3   OH252163   6.052   7.972  11.062  0.4022  0.6044  0.6039
 9323TIP3    H152164   6.097   8.001  10.983  0.7716 -0.3595  0.4350
 9323TIP3    H252165   6.120   7.973  11.130  0.0509  1.5695  0.9496
 9324TIP3   OH252166   8.135   0.161  11.174  0.0990 -0.2601 -0.0860
 9324TIP3    H152167   8.151   0.242  11.126  0.3734  1.1615  2.2677
 9324TIP3    H252168   8.068   0.183  11.238  0.6169 -1.7232  1.0249
 9325TIP3   OH252169   4.096   3.993  11.886  0.4229 -0.4425  0.3330
 9325TIP3    H152170   4.079   4.073  11.836 -0.0464  0.0111  1.2029
 9325TIP3    H252171   4.109   3.926  11.819  0.1109  0.2133 -0.4023
 9326TIP3   OH252172   3.364   2.480  10.773  0.4793 -0.7674  0.8020
 9326TIP3    H152173   3.402   2.548  10.828  0.7627  0.2964 -0.6381
 9326TIP3    H252174   3.277   2.464  10.811  0.9599 -0.6331  1.9881
 9327TIP3   OH252175   1.223   4.139  11.777  0.7396 -0.2287 -0.5803
 9327TIP3    H152176   1.234   4.044  11.768  1.8385 -0.1632 -0.0367
 9327TIP3    H252177   1.306   4.169  11.813  1.2651  1.2429 -2.8177
 9328TIP3   OH252178   2.312   7.141  12.575  0.0291 -0.2491  0.0241
 9328TIP3    H152179   2.221   7.161  12.596 -0.0317 -1.8027  1.3946
 9328TIP3    H252180   2.361   7.217  12.606 -0.6007 -0.3179  1.2420
 9329TIP3   OH252181   2.915   2.884  11.395 -0.2203 -0.2740  0.0871
 9329TIP3    H152182   2.871   2.882  11.310 -0.6649 -0.0572  0.3130
 9329TIP3    H252183   2.853   2.928  11.454  0.6661  0.8945  0.1920
 9330TIP3   OH252184   1.551   1.560  10.732  0.1124 -0.2173 -0.1469
 9330TIP3    H152185   1.555   1.643  10.779  0.7953  1.6283 -3.1957
 9330TIP3    H252186   1.640   1.545  10.700 -0.4619 -0.8900 -1.5541
 9331TIP3   OH252187   5.717   6.075  12.672  0.6391 -0.0711 -0.0321
 9331TIP3    H152188   5.650   6.037  12.729 -0.5117  0.7176 -0.8200
 9331TIP3    H252189   5.792   6.090  12.730  1.1550 -3.3519  0.3822
 9332TIP3   OH252190   5.611   5.686  10.708  0.2182  0.7053  0.0311
 9332TIP3    H152191   5.580   5.775  10.689  3.4345  1.5845 -2.1326
 9332TIP3    H252192   5.586   5.635  10.631 -0.1399  0.1762  0.4939
 9333TIP3   OH252193   7.218   8.299  12.418 -0.4666 -0.1157  0.0242
 9333TIP3    H152194   7.220   8.309  12.514  1.8571  1.5470 -0.1027
 9333TIP3    H252195   7.274   8.223  12.401 -0.1233  0.1505 -0.0454
 9334TIP3   OH252196   5.813   0.106  11.581 -0.0104  0.5419  0.8878
 9334TIP3    H152197   5.879   0.149  11.526  1.7416 -1.2352  1.5086
 9334TIP3    H252198   5.770   0.044  11.523 -0.4689  0.9975  0.7324
 9335TIP3   OH252199   2.054   4.975  12.829 -0.0048 -0.1472 -0.1023
 9335TIP3    H152200   2.136   4.931  12.806 -1.3916 -1.6502 -2.5689
 9335TIP3    H252201   2.012   4.914  12.891 -0.1359 -0.3611 -0.3986
 9336TIP3   OH252202   6.375   2.750  11.252  0.1220 -0.2669  0.7102
 9336TIP3    H152203   6.323   2.708  11.184  1.7947  1.6677 -1.9688
 9336TIP3    H252204   6.319   2.818  11.288 -0.6254 -1.0056  0.9675
 9337TIP3   OH252205   2.216   0.036  12.511 -0.9474 -0.1244 -0.5118
 9337TIP3    H152206   2.215   0.129  12.489 -1.8236  0.4372  1.6072
 9337TIP3    H252207   2.124   0.014  12.526 -0.7925 -1.4674 -1.4156
 9338TIP3   OH252208   0.633   5.656  11.935 -0.4860 -0.2285  0.0614
 9338TIP3    H152209   0.611   5.578  11.985  0.1103 -0.1559  0.4352
 9338TIP3    H252210   0.722   5.678  11.961 -0.5788  0.4685 -0.1815
 9339TIP3   OH252211   3.097   3.118  13.417  0.2883  0.0633  0.4137
 9339TIP3    H152212   3.126   3.036  13.377  0.6637 -0.0568  0.9211
 9339TIP3    H252213   3.130   3.186  13.358 -0.0398 -0.1478 -0.0176
 9340TIP3   OH252214   6.716   8.027  12.153  0.5262 -0.2631  0.0759
 9340TIP3    H152215   6.799   8.075  12.147  0.9538 -1.0225 -0.2232
 9340TIP3    H252216   6.707   8.008  12.246 -0.5678  1.9529  0.4757
 9341TIP3   OH252217   3.955   6.494  11.543 -0.1890  0.1023 -0.2756
 9341TIP3    H152218   4.015   6.424  11.566  0.3538  0.7862  0.4162
 9341TIP3    H252219   3.873   6.449  11.520  0.2811 -0.7718 -0.2628
 9342TIP3   OH252220   7.014   4.102  11.440 -0.1451  0.1738 -0.2225
 9342TIP3    H152221   7.053   4.029  11.489 -0.0748 -0.0430 -0.5943
 9342TIP3    H252222   6.975   4.158  11.507 -0.4723 -0.3697  0.0516
 9343TIP3   OH252223   7.575   1.329  12.901 -0.1888 -0.0915  0.3909
 9343TIP3    H152224   7.511   1.364  12.963 -0.4222 -0.2896  0.2657
 9343TIP3    H252225   7.660   1.340  12.945 -0.0908  1.8527 -0.1956
 9344TIP3   OH252226   0.071   0.478  11.953 -0.2612 -0.1156  0.0602
 9344TIP3    H152227   0.041   0.543  12.017  0.6235  0.0862  0.2869
 9344TIP3    H252228   0.144   0.521  11.908 -1.3533  0.0404 -1.6480
 9345TIP3   OH252229   7.563   3.849  12.363 -0.4510  0.0840 -0.6032
 9345TIP3    H152230   7.616   3.865  12.441  1.5925 -1.0022 -1.6884
 9345TIP3    H252231   7.491   3.794  12.393 -2.6126  3.6261  1.4295
 9346TIP3   OH252232   0.604   4.890  11.801  0.6514  0.0033  0.1040
 9346TIP3    H152233   0.603   4.966  11.860 -0.7060 -0.2124  0.3908
 9346TIP3    H252234   0.568   4.818  11.853  3.3207 -1.2829  0.3384
 9347TIP3   OH252235   5.177   8.218  10.780  0.2485 -0.0415  0.2322
 9347TIP3    H152236   5.201   8.135  10.820 -1.0302 -0.8947 -0.7125
 9347TIP3    H252237   5.248   8.235  10.717  0.8123 -0.1098  0.8396
 9348TIP3   OH252238   2.935   7.003  11.076  0.0889 -0.0123  0.4059
 9348TIP3    H152239   2.840   7.003  11.086 -0.1870 -1.6984 -1.4956
 9348TIP3    H252240   2.961   6.912  11.093  1.1222  0.0099 -0.9016
 9349TIP3   OH252241   3.800   5.599  10.526  0.5807  0.8059 -0.5356
 9349TIP3    H152242   3.877   5.574  10.577  1.1258  1.2951 -1.0982
 9349TIP3    H252243   3.823   5.685  10.489  0.0051  0.6849 -1.1963
 9350TIP3   OH252244   6.895   0.363  11.356  0.6651  0.2040  0.0512
 9350TIP3    H152245   6.890   0.361  11.451  0.4854  0.2672  0.0440
 9350TIP3    H252246   6.989   0.370  11.337  0.6078  1.7793  0.2566
 9351TIP3   OH252247   4.159   4.482  12.682  0.2985 -0.0117  0.4863
 9351TIP3    H152248   4.155   4.491  12.777 -1.5814 -0.1984  0.4620
 9351TIP3    H252249   4.214   4.555  12.654  0.2260  0.5239  1.6658
 9352TIP3   OH252250   5.435   2.467  11.335  0.2065 -0.0058  0.5456
 9352TIP3    H152251   5.346   2.438  11.354  0.3789 -1.8183 -1.0655
 9352TIP3    H252252   5.435   2.486  11.242  1.9646 -2.2385 -0.0212
 9353TIP3   OH252253   5.883   7.902  11.306  0.6433  0.3715 -0.0880
 9353TIP3    H152254   5.923   7.970  11.361  0.0577 -0.9513  2.0811
 9353TIP3    H252255   5.924   7.820  11.334 -1.1794 -0.6036 -0.1439
 9354TIP3   OH252256   4.946   0.727  11.226 -0.2323  0.3461  0.3280
 9354TIP3    H152257   5.019   0.670  11.249  0.5841  1.1498 -0.1939
 9354TIP3    H252258   4.970   0.764  11.140 -1.2463  0.6293  0.1469
 9355TIP3   OH252259   4.140   0.518  11.752 -0.2053  0.1077 -0.0783
 9355TIP3    H152260   4.166   0.610  11.753 -3.9838  1.3361 -1.0036
 9355TIP3    H252261   4.083   0.508  11.828 -1.3038 -0.9397 -0.9933
 9356TIP3   OH252262   0.669   2.267  10.780  0.3222 -0.4178  0.4193
 9356TIP3    H152263   0.736   2.218  10.828 -0.0506 -0.8231  0.5215
 9356TIP3    H252264   0.719   2.314  10.712  1.1514  1.7366  2.3814
 9357TIP3   OH252265   3.318   5.212  11.465  0.2808 -0.0424 -0.1016
 9357TIP3    H152266   3.371   5.156  11.409 -1.2506 -1.1454 -0.5371
 9357TIP3    H252267   3.347   5.191  11.554  1.0396 -0.1047 -0.3590
 9358TIP3   OH252268   6.178   3.568  11.818 -0.3070 -0.0212 -0.2782
 9358TIP3    H152269   6.196   3.662  11.809 -1.8470  0.3013 -0.1274
 9358TIP3    H252270   6.093   3.556  11.776 -0.4746 -1.2180  0.3920
 9359TIP3   OH252271   3.359   0.468  12.580  0.2461  0.1093  0.4005
 9359TIP3    H152272   3.395   0.429  12.500  1.3062  0.0297  0.8960
 9359TIP3    H252273   3.265   0.464  12.569  0.3507 -1.5010 -0.0853
 9360TIP3   OH252274   5.527   3.613  12.047  0.1148  0.3286  0.5510
 9360TIP3    H152275   5.476   3.532  12.049 -0.3672  0.5694 -0.9154
 9360TIP3    H252276   5.465   3.681  12.075  0.0924  0.3982  0.3326
 9361TIP3   OH252277   2.989   3.390  11.068 -0.1292 -0.1392 -0.5632
 9361TIP3    H152278   3.077   3.411  11.099 -0.4774  2.5321 -1.1117
 9361TIP3    H252279   2.966   3.463  11.010 -2.1744 -1.4748 -1.5609
 9362TIP3   OH252280   3.552   5.765  11.707  0.1682  0.3414  0.3940
 9362TIP3    H152281   3.541   5.853  11.744 -0.4028  0.5106 -0.1510
 9362TIP3    H252282   3.625   5.727  11.756  0.0264  0.8946  1.0520
 9363TIP3   OH252283   1.601   4.734  10.830  0.2533  0.0338 -0.4344
 9363TIP3    H152284   1.671   4.723  10.766 -0.7786 -1.7165 -1.3261
 9363TIP3    H252285   1.520   4.721  10.781 -0.5869 -0.9697  1.1177
 9364TIP3   OH252286   2.307   2.608  10.895 -0.3178 -0.0693 -0.0309
 9364TIP3    H152287   2.225   2.640  10.858 -1.6411 -1.6930  1.3090
 9364TIP3    H252288   2.307   2.642  10.985  0.9444  0.6735 -0.3011
 9365TIP3   OH252289   1.090   0.649  11.995 -0.0143  0.5622  0.8422
 9365TIP3    H152290   1.186   0.649  11.997  0.0718 -1.0998 -0.6091
 9365TIP3    H252291   1.065   0.566  12.035 -0.6992 -0.2207 -1.0947
 9366TIP3   OH252292   0.781   1.646  10.510 -0.5875  0.4003  0.1048
 9366TIP3    H152293   0.835   1.576  10.548 -1.0463  0.2828  0.5521
 9366TIP3    H252294   0.703   1.601  10.479 -0.1525  0.4715 -1.1367
 9367TIP3   OH252295   1.877   5.568  11.309 -0.2461  0.5170 -0.0261
 9367TIP3    H152296   1.958   5.557  11.359 -0.7094 -1.3585  0.4095
 9367TIP3    H252297   1.877   5.494  11.248 -0.6434  1.6764 -1.4733
 9368TIP3   OH252298   0.574   7.715  12.602  0.0709 -0.4961 -0.2576
 9368TIP3    H152299   0.623   7.786  12.560  0.2965  0.4907  1.5573
 9368TIP3    H252300   0.483   7.742  12.594  0.1530  0.0128  0.3981
 9369TIP3   OH252301   0.264   6.457  10.543 -0.2864  0.3104  0.5910
 9369TIP3    H152302   0.270   6.380  10.599 -1.8694 -1.6819 -1.7766
 9369TIP3    H252303   0.173   6.485  10.550  0.0855  1.5405  0.8235
 9370TIP3   OH252304   6.222   2.613  11.509 -0.7174  0.1853  0.0029
 9370TIP3    H152305   6.195   2.639  11.597 -0.6928  1.0981 -0.2525
 9370TIP3    H252306   6.238   2.695  11.463 -0.2042 -0.2896 -0.6965
 9371TIP3   OH252307   5.995   1.819  10.713  0.0607  0.7416 -0.2153
 9371TIP3    H152308   5.966   1.907  10.736  0.3979  0.5700  0.9280
 9371TIP3    H252309   6.051   1.831  10.637  0.6296  1.5962  0.3294
 9372TIP3   OH252310   4.082   1.769  12.789  0.2704  0.0311  0.2231
 9372TIP3    H152311   4.041   1.693  12.748 -3.1557  1.6395  0.3849
 9372TIP3    H252312   4.100   1.742  12.879 -2.7180 -0.1035  0.8608
 9373TIP3   OH252313   6.335   0.941  12.672 -0.3526 -0.1416  0.5181
 9373TIP3    H152314   6.336   1.008  12.603 -0.8488  0.9014  1.4959
 9373TIP3    H252315   6.400   0.971  12.735 -1.5938  0.2163  1.6772
 9374TIP3   OH252316   7.409   5.959  12.455  0.3812  0.2264  0.2132
 9374TIP3    H152317   7.369   6.035  12.412 -1.0043 -0.7053 -0.1780
 9374TIP3    H252318   7.424   5.896  12.385  0.3731 -0.3567  0.7276
 9375TIP3   OH252319   5.877   7.344  11.970 -0.1419 -0.0278 -0.3523
 9375TIP3    H152320   5.879   7.385  11.884 -0.3341 -1.4473 -1.0635
 9375TIP3    H252321   5.927   7.404  12.026 -0.2395  1.0516 -1.3736
 9376TIP3   OH252322   0.246   0.983  10.806  0.2647 -0.1559  0.0929
 9376TIP3    H152323   0.169   1.035  10.780 -0.6222 -1.9370 -1.0526
 9376TIP3    H252324   0.213   0.894  10.814  1.9320 -0.7274  1.1121
 9377TIP3   OH252325   4.109   7.588  11.780  0.3796  0.4654 -0.4867
 9377TIP3    H152326   4.197   7.623  11.764  0.4091  1.3642  1.3666
 9377TIP3    H252327   4.054   7.665  11.792 -0.5996 -0.0934 -1.2677
 9378TIP3   OH252328   6.237   0.048  11.531 -0.4106 -0.5598 -0.2197
 9378TIP3    H152329   6.169   0.111  11.509  1.3583  2.3473  1.9350
 9378TIP3    H252330   6.312   0.072  11.476  0.7878  0.3440  1.7003
 9379TIP3   OH252331   0.624   0.058  12.216  0.3807 -0.5495  0.5896
 9379TIP3    H152332   0.535   0.083  12.241 -0.5256 -3.0634  0.2149
 9379TIP3    H252333   0.650  -0.006  12.282  2.3239  0.8134  1.2177
 9380TIP3   OH252334   6.882   0.284  11.076  0.0687 -0.2003 -0.1687
 9380TIP3    H152335   6.850   0.196  11.095 -2.3389  0.1226 -2.1796
 9380TIP3    H252336   6.872   0.332  11.159 -1.4747 -1.0665  0.1848
 9381TIP3   OH252337   2.148   6.561  11.251  0.2278 -0.0990 -0.2264
 9381TIP3    H152338   2.128   6.598  11.338 -1.6127  1.8631 -1.3611
 9381TIP3    H252339   2.080   6.496  11.237  1.0873 -1.1005  0.1450
 9382TIP3   OH252340   2.197   1.906  12.842 -0.0642  0.3830  0.2636
 9382TIP3    H152341   2.219   1.854  12.919  0.2324 -1.9301 -1.2557
 9382TIP3    H252342   2.276   1.957  12.824  0.7739 -0.9326  0.0999
 9383TIP3   OH252343   5.579   7.558  11.468 -0.3843 -0.2651  0.0256
 9383TIP3    H152344   5.581   7.548  11.563 -1.0205 -0.8682 -0.0162
 9383TIP3    H252345   5.493   7.525  11.442  0.1719 -1.0756 -0.8672
 9384TIP3   OH252346   5.160   7.429  10.863 -0.1188  0.6991  0.7615
 9384TIP3    H152347   5.108   7.495  10.817  1.1900  1.2745  0.0513
 9384TIP3    H252348   5.126   7.345  10.832  0.4373  1.0686 -0.9755
 9385TIP3   OH252349   7.175   2.336  11.417 -0.3400  0.0752  0.4164
 9385TIP3    H152350   7.104   2.314  11.356 -0.1087 -1.0698  0.5211
 9385TIP3    H252351   7.245   2.368  11.360 -0.2915 -0.5477  0.1126
 9386TIP3   OH252352   4.493   4.815  10.984  0.3862 -0.3463 -0.2495
 9386TIP3    H152353   4.470   4.801  11.076 -0.7769  0.1168 -0.4535
 9386TIP3    H252354   4.493   4.728  10.945 -0.1311 -0.4494 -0.0265
 9387TIP3   OH252355   2.170   7.368  11.366 -0.1501  0.4996 -0.3409
 9387TIP3    H152356   2.228   7.302  11.403 -0.7481  1.1330  1.8870
 9387TIP3    H252357   2.140   7.330  11.283  1.6939 -0.7602 -0.4957
 9388TIP3   OH252358   5.093   0.392  11.137 -0.3053 -0.2447  0.4807
 9388TIP3    H152359   5.075   0.305  11.173 -2.6256  0.8358  2.2081
 9388TIP3    H252360   5.041   0.395  11.057 -1.0143 -0.1470  0.9314
 9389TIP3   OH252361   7.515   7.222  11.938  0.3503 -0.0529 -0.5634
 9389TIP3    H152362   7.560   7.189  11.860  1.3821  1.4924 -0.6685
 9389TIP3    H252363   7.550   7.168  12.009  0.4794 -0.5197 -0.9672
 9390TIP3   OH252364   7.760   2.884  11.748 -0.1376 -0.0090  0.0906
 9390TIP3    H152365   7.809   2.875  11.666  0.5353  0.1941  0.4590
 9390TIP3    H252366   7.721   2.798  11.762  1.2393 -0.6129  0.4703
 9391TIP3   OH252367   0.842   3.800  10.714  0.2838  0.2216 -0.1936
 9391TIP3    H152368   0.778   3.777  10.781  0.3867  1.3930  0.3279
 9391TIP3    H252369   0.796   3.862  10.658  1.1310  1.5883  0.5674
 9392TIP3   OH252370   1.545   5.050  11.969  0.0250 -0.6829  0.6991
 9392TIP3    H152371   1.474   5.081  12.026 -0.3164 -0.0364 -0.0537
 9392TIP3    H252372   1.512   4.968  11.931 -0.0616 -0.7114  0.8365
 9393TIP3   OH252373   6.905   7.326  12.791  0.4979  0.0916  0.3578
 9393TIP3    H152374   6.985   7.375  12.806  1.1381 -0.4856 -0.9993
 9393TIP3    H252375   6.934   7.241  12.758 -0.6285 -0.8144  1.5854
 9394TIP3   OH252376   2.628   2.085  11.394 -0.0766 -0.1604 -0.2762
 9394TIP3    H152377   2.570   2.134  11.335 -1.3132 -1.3946 -0.1456
 9394TIP3    H252378   2.601   2.112  11.482 -0.4225 -0.6976 -0.2150
 9395TIP3   OH252379   8.002   2.736  12.188 -0.6691 -0.4261  0.3883
 9395TIP3    H152380   8.070   2.723  12.255 -1.9296  0.2941  1.8823
 9395TIP3    H252381   7.935   2.671  12.209 -0.4600 -1.1555 -1.0926
 9396TIP3   OH252382   5.863   7.046  11.649  0.0172 -0.1037 -0.0038
 9396TIP3    H152383   5.894   6.956  11.645  0.2474 -0.0583  0.6434
 9396TIP3    H252384   5.841   7.060  11.741 -1.0421  0.1622 -0.2870
 9397TIP3   OH252385   2.434   7.416  10.991 -0.6259  0.5024 -0.1506
 9397TIP3    H152386   2.382   7.418  10.910 -1.4326 -1.5253  0.2737
 9397TIP3    H252387   2.451   7.509  11.010 -0.3159  1.0282 -2.6786
 9398TIP3   OH252388   2.101   4.652  11.825  0.0350 -0.2173  0.3197
 9398TIP3    H152389   2.012   4.668  11.794 -0.0728 -0.6943  0.3738
 9398TIP3    H252390   2.107   4.557  11.833 -0.7188 -0.1080  3.9354
 9399TIP3   OH252391   2.965   3.276  11.373  0.2009  0.0599  0.7213
 9399TIP3    H152392   2.956   3.367  11.400 -0.5773 -0.1783  1.2984
 9399TIP3    H252393   2.965   3.279  11.277  0.7907  0.7075  0.7288
 9400TIP3   OH252394   5.748   0.788  11.635 -0.8181  0.2888  0.3561
 9400TIP3    H152395   5.720   0.705  11.674  0.1630 -1.0332 -1.6078
 9400TIP3    H252396   5.672   0.818  11.586 -0.4399 -0.7696 -0.9448
 9401TIP3   OH252397   7.183   3.537  12.050 -0.4157  0.1982  0.3276
 9401TIP3    H152398   7.110   3.518  11.990 -1.2068 -1.7659  1.7799
 9401TIP3    H252399   7.181   3.632  12.062  0.1997  0.7814 -3.1887
 9402TIP3   OH252400   6.869   1.082  11.107 -0.4314  0.1121 -0.6464
 9402TIP3    H152401   6.808   1.115  11.173 -0.3778  0.8769 -0.9647
 9402TIP3    H252402   6.944   1.049  11.157 -0.7976 -0.1885 -0.2867
 9403TIP3   OH252403   8.145   7.030  10.718  0.4244 -0.0144 -0.1038
 9403TIP3    H152404   8.197   7.026  10.799 -1.1973 -0.2549  0.9633
 9403TIP3    H252405   8.200   6.987  10.653  1.6825 -0.0190  0.9155
 9404TIP3   OH252406   7.067   6.939  10.721  0.9258  0.4467 -0.4048
 9404TIP3    H152407   7.160   6.950  10.738  0.9558 -0.0293 -0.2505
 9404TIP3    H252408   7.032   7.028  10.718  1.3528  0.6170 -0.2811
 9405TIP3   OH252409   7.760   3.158  11.245 -0.5624  0.3643 -0.3493
 9405TIP3    H152410   7.696   3.088  11.236 -0.1398  0.0784 -1.3165
 9405TIP3    H252411   7.831   3.133  11.185 -0.2027  1.3869 -0.3661
 9406TIP3   OH252412   1.377   4.729  10.645 -0.4434  0.0913 -0.1600
 9406TIP3    H152413   1.285   4.726  10.621 -1.1084  0.5966  2.0670
 9406TIP3    H252414   1.415   4.794  10.586 -1.5716  0.1063 -0.9024
 9407TIP3   OH252415   8.231   5.954  11.713  0.8975 -0.2173  0.3346
 9407TIP3    H152416   8.160   6.012  11.687  0.3654 -1.6984 -1.7364
 9407TIP3    H252417   8.264   5.992  11.795 -0.3342  2.1461 -0.1776
 9408TIP3   OH252418   7.021   0.093  10.763  0.2623 -0.3704  0.5829
 9408TIP3    H152419   7.056   0.145  10.835 -0.0103 -0.5316  0.8305
 9408TIP3    H252420   6.972   0.155  10.709  0.6606 -0.2058  0.4086
 9409TIP3   OH252421   2.861   5.367  10.918  0.2086 -0.0650  0.1987
 9409TIP3    H152422   2.854   5.452  10.961 -1.3733 -0.0490 -0.0361
 9409TIP3    H252423   2.952   5.362  10.888  1.1026  0.3249  2.6805
 9410TIP3   OH252424   1.915   4.581  12.055  0.4323  0.9127 -0.1195
 9410TIP3    H152425   1.977   4.532  12.001 -0.1460  0.6052 -0.5079
 9410TIP3    H252426   1.970   4.642  12.104  1.1784 -0.1547  0.4217
 9411TIP3   OH252427   5.113   3.973  11.058  1.1229 -0.0774  0.6260
 9411TIP3    H152428   5.150   4.060  11.042  0.7616 -0.1117 -0.5123
 9411TIP3    H252429   5.177   3.913  11.020  0.2509 -0.1667 -0.7797
 9412TIP3   OH252430   7.347   5.439  11.203 -0.5418  0.2927 -0.7470
 9412TIP3    H152431   7.424   5.485  11.170 -0.0869  0.8832  1.0402
 9412TIP3    H252432   7.277   5.504  11.199  0.1828  1.4368  2.1379
 9413TIP3   OH252433   4.640   6.704  12.027  0.0920  0.4163  0.2082
 9413TIP3    H152434   4.674   6.787  12.062  1.4991 -0.4354  0.9444
 9413TIP3    H252435   4.614   6.654  12.103 -0.8966  0.2145 -0.2458
 9414TIP3   OH252436   5.338   4.907  10.708  0.9732  0.5457 -0.4704
 9414TIP3    H152437   5.272   4.917  10.777  1.0711  1.9758 -0.5567
 9414TIP3    H252438   5.377   4.994  10.699  1.3266  0.2629 -1.9662
 9415TIP3   OH252439   3.459   0.996  11.582  0.0636 -0.4178  0.4683
 9415TIP3    H152440   3.372   0.955  11.575  0.3952 -0.9069 -4.1886
 9415TIP3    H252441   3.441   1.086  11.608 -2.1655 -0.0644 -1.8333
 9416TIP3   OH252442   6.203   2.287  12.155  1.0079 -0.1467  0.3047
 9416TIP3    H152443   6.152   2.319  12.229  1.2825  0.6169  0.1653
 9416TIP3    H252444   6.176   2.195  12.146  1.1590 -0.3367  1.5170
 9417TIP3   OH252445   0.517   4.511  12.729  0.0519 -0.4135 -0.3199
 9417TIP3    H152446   0.539   4.419  12.718  0.5216 -0.5816  1.7271
 9417TIP3    H252447   0.431   4.520  12.687 -0.2645 -1.9022 -0.0249
 9418TIP3   OH252448   4.806   6.023  11.908  0.1894  0.1781 -0.1558
 9418TIP3    H152449   4.847   6.092  11.961  0.0079 -0.5442  0.9580
 9418TIP3    H252450   4.772   5.961  11.972  0.1312 -0.8288 -1.1337
 9419TIP3   OH252451   1.129   5.950  11.140  0.0461  0.1461  0.6029
 9419TIP3    H152452   1.049   5.975  11.187 -0.0944  0.3316  0.2704
 9419TIP3    H252453   1.118   5.987  11.052  0.9075  0.9587  0.8218
 9420TIP3   OH252454   2.311   5.272  11.328  0.2405 -0.1618  0.1037
 9420TIP3    H152455   2.359   5.296  11.248  0.1919  0.3383  0.2206
 9420TIP3    H252456   2.239   5.216  11.297  2.6148 -3.5821  0.2069
 9421TIP3   OH252457   6.951   6.507  11.611 -0.3693  0.1446  0.2177
 9421TIP3    H152458   6.912   6.469  11.532 -0.3995  0.6835 -0.0320
 9421TIP3    H252459   6.878   6.546  11.657 -0.2429  0.4818  0.1362
 9422TIP3   OH252460   3.463   0.010  11.185 -0.8363 -0.0669  0.6609
 9422TIP3    H152461   3.378  -0.009  11.144  0.7608 -0.1192 -2.9754
 9422TIP3    H252462   3.505  -0.076  11.192  0.2333  0.2711 -0.9789
 9423TIP3   OH252463   2.068   6.299  11.001 -0.0720  0.5197  0.0524
 9423TIP3    H152464   2.015   6.315  11.080  0.8053  0.2981  0.7016
 9423TIP3    H252465   2.076   6.386  10.961 -1.2874  0.4868 -0.3050
 9424TIP3   OH252466   5.116   6.308  10.841 -0.1405  0.5421 -0.8994
 9424TIP3    H152467   5.101   6.279  10.931  2.0621  0.1500 -0.5921
 9424TIP3    H252468   5.092   6.400  10.841 -2.3439  0.0300 -0.5481
 9425TIP3   OH252469   1.583   2.911  10.800  0.1243 -0.0906 -0.0468
 9425TIP3    H152470   1.523   2.981  10.827  0.2077 -0.0740  0.0965
 9425TIP3    H252471   1.529   2.832  10.798  0.3382 -0.2776  1.1385
 9426TIP3   OH252472   8.188   0.709  11.965 -0.1516  0.0540 -0.0665
 9426TIP3    H152473   8.114   0.684  12.022 -0.7085 -2.3094 -1.6719
 9426TIP3    H252474   8.264   0.667  12.006 -0.1547  0.2651  0.1575
 9427TIP3   OH252475   1.213   1.518  10.453  0.4515  0.3017  0.5301
 9427TIP3    H152476   1.118   1.522  10.470  0.6902  0.4954  1.9600
 9427TIP3    H252477   1.246   1.456  10.518  1.2978  0.1422 -0.0394
 9428TIP3   OH252478   3.050   4.298  11.396  0.1730  0.3039 -0.4701
 9428TIP3    H152479   3.020   4.338  11.314  0.7425  2.4525  0.3006
 9428TIP3    H252480   3.071   4.373  11.452  1.7617 -1.1246  0.9212
 9429TIP3   OH252481   0.844   6.305  11.455  0.0116 -0.6035 -0.4159
 9429TIP3    H152482   0.793   6.225  11.447  0.0340 -0.5903 -0.7039
 9429TIP3    H252483   0.779   6.375  11.448  0.1377 -0.5744 -1.3848
 9430TIP3   OH252484   1.725   7.959  12.115  0.4881 -0.0608  0.2811
 9430TIP3    H152485   1.654   7.999  12.065 -0.2276  0.0903  1.3995
 9430TIP3    H252486   1.689   7.875  12.145  1.2646 -0.6181 -0.2946
 9431TIP3   OH252487   3.007   5.590  11.827  0.6596 -0.2907  0.2432
 9431TIP3    H152488   2.924   5.559  11.863  0.4254 -0.2283 -0.2313
 9431TIP3    H252489   3.053   5.629  11.901 -0.8129  1.9712  0.0274
 9432TIP3   OH252490   7.270   7.670  11.568  0.8780 -0.2456 -0.1996
 9432TIP3    H152491   7.238   7.702  11.653 -1.4045  1.5336 -1.6011
 9432TIP3    H252492   7.358   7.705  11.562 -0.0280  2.3561  0.1841
 9433TIP3   OH252493   2.681   5.107  12.722 -1.0857  0.3109  0.1080
 9433TIP3    H152494   2.618   5.158  12.773 -1.9884  1.0304 -1.6181
 9433TIP3    H252495   2.635   5.026  12.700 -1.0999  0.4529 -0.4124
 9434TIP3   OH252496   8.359   2.756  11.457 -0.1855  0.1392 -0.2325
 9434TIP3    H152497   8.324   2.682  11.408 -1.6261 -0.2542  1.3118
 9434TIP3    H252498   8.322   2.747  11.545  1.2875  1.5256  0.5844
 9435TIP3   OH252499   5.196   0.682  12.150  0.2317 -0.0846  0.4761
 9435TIP3    H152500   5.223   0.595  12.179 -0.8159 -0.5435  0.1500
 9435TIP3    H252501   5.143   0.665  12.072 -0.9065  0.7437  1.0443
 9436TIP3   OH252502   8.393   0.556  10.704  0.2222  0.3476  0.2961
 9436TIP3    H152503   8.325   0.623  10.708  1.6519  2.1266 -2.3405
 9436TIP3    H252504   8.350   0.477  10.736 -2.5309  1.7782  0.4485
 9437TIP3   OH252505   6.120   3.443  11.543  0.4458  0.3714  0.2488
 9437TIP3    H152506   6.121   3.350  11.564  0.5502  0.4541  0.6158
 9437TIP3    H252507   6.206   3.461  11.505  0.6699  0.4553  0.7897
 9438TIP3   OH252508   3.664   6.120  10.856 -0.1623  0.1804  0.0498
 9438TIP3    H152509   3.658   6.028  10.831  0.1266  0.4150 -0.9465
 9438TIP3    H252510   3.587   6.135  10.911 -0.9866 -0.3210 -0.9330
 9439TIP3   OH252511   6.955   6.012  10.367 -0.4505 -0.2214 -0.2914
 9439TIP3    H152512   7.033   5.973  10.328  0.6198  0.8498  0.6833
 9439TIP3    H252513   6.968   6.005  10.461 -1.9878 -0.8555 -0.0968
 9440TIP3   OH252514   6.899   5.339  10.771  0.5104 -0.3443 -0.2204
 9440TIP3    H152515   6.937   5.256  10.799  1.0845 -0.6508 -1.7835
 9440TIP3    H252516   6.913   5.341  10.676  1.9779  2.2606 -0.0415
 9441TIP3   OH252517   6.389   1.648  10.495 -0.1052  0.3712 -0.3459
 9441TIP3    H152518   6.446   1.622  10.567 -0.0502 -0.6406 -0.7452
 9441TIP3    H252519   6.442   1.635  10.416 -1.2399 -1.7319 -0.8270
 9442TIP3   OH252520   1.070   1.657  11.859  0.7110 -0.2647 -0.1235
 9442TIP3    H152521   1.052   1.670  11.766 -0.9757  1.7337  0.4016
 9442TIP3    H252522   0.984   1.649  11.899  1.3992 -0.8046  1.3202
 9443TIP3   OH252523   5.421   5.794  12.008 -0.3396  0.6103 -0.3284
 9443TIP3    H152524   5.391   5.708  12.038 -0.9689  0.0838 -2.3450
 9443TIP3    H252525   5.410   5.851  12.084  2.7496 -1.5759  2.0118
 9444TIP3   OH252526   7.408   6.502  11.071 -0.1587 -0.3177  0.3927
 9444TIP3    H152527   7.333   6.532  11.122 -1.4608  1.0606 -2.1431
 9444TIP3    H252528   7.381   6.417  11.037 -0.8477  0.3776 -0.8929
 9445TIP3   OH252529   6.647   5.843  10.969  0.1456 -0.1009  0.4179
 9445TIP3    H152530   6.584   5.798  11.025 -0.2594 -1.4388 -1.0480
 9445TIP3    H252531   6.634   5.936  10.988 -1.9521 -0.3758  0.5079
 9446TIP3   OH252532   4.143   5.487  12.150 -0.2181 -0.0740  0.0682
 9446TIP3    H152533   4.100   5.418  12.099 -0.5335  0.7413 -0.7994
 9446TIP3    H252534   4.168   5.444  12.231 -0.5006 -1.1873 -0.4092
 9447TIP3   OH252535   6.035   0.602  12.204  0.0113 -0.6664  0.1166
 9447TIP3    H152536   6.019   0.553  12.285  1.6387 -0.8067  0.3874
 9447TIP3    H252537   6.100   0.668  12.228  0.6190 -0.7958 -1.0816
 9448TIP3   OH252538   7.334   1.930  11.403 -0.1539 -0.6178 -0.3535
 9448TIP3    H152539   7.313   1.839  11.426 -0.2263 -0.0678  2.0462
 9448TIP3    H252540   7.298   1.981  11.476 -0.3079  1.3730 -1.7740
 9449TIP3   OH252541   0.968   3.588  10.983  0.8427  0.8590  0.3777
 9449TIP3    H152542   0.980   3.493  10.976  1.5220  0.7937  1.9352
 9449TIP3    H252543   1.043   3.618  11.035  0.1090  2.0953  0.7859
 9450TIP3   OH252544   4.173   4.473  10.829 -0.3792  0.2521 -0.7142
 9450TIP3    H152545   4.113   4.520  10.887  0.4488  0.5788 -0.0797
 9450TIP3    H252546   4.139   4.384  10.825 -1.5421  0.7172 -1.3045
 9451TIP3   OH252547   6.673   6.419  11.299  0.6236  0.2725  0.3805
 9451TIP3    H152548   6.705   6.505  11.269  1.5856 -0.4978 -0.9719
 9451TIP3    H252549   6.750   6.378  11.339  1.0052 -1.0029 -1.4998
 9452TIP3   OH252550   6.730   4.509  11.816 -0.7527  0.8407  0.0546
 9452TIP3    H152551   6.710   4.548  11.731 -2.3300 -0.7953 -0.3830
 9452TIP3    H252552   6.650   4.521  11.868  0.1336  1.6867  1.2919
 9453TIP3   OH252553   6.787   0.848  12.834 -0.0304  0.8423  0.0752
 9453TIP3    H152554   6.812   0.831  12.743  1.6020 -1.9708  0.9113
 9453TIP3    H252555   6.750   0.765  12.864  2.3880  0.5804  2.7858
 9454TIP3   OH252556   7.553   4.845  11.702 -0.2468 -0.5668  0.4220
 9454TIP3    H152557   7.499   4.843  11.781 -1.1800  0.5394 -0.1584
 9454TIP3    H252558   7.505   4.901  11.642  1.2440 -0.0636 -0.3488
 9455TIP3   OH252559   7.988   2.251  10.993 -0.1956 -0.0829  0.1969
 9455TIP3    H152560   8.035   2.320  11.041  0.7187 -1.3009  1.1561
 9455TIP3    H252561   7.984   2.283  10.903  0.9410  0.8643  0.4452
 9456TIP3   OH252562   6.231   4.490  11.936  0.3954 -0.4074  0.2413
 9456TIP3    H152563   6.178   4.431  11.883 -1.1442 -0.2143  1.4720
 9456TIP3    H252564   6.168   4.533  11.994  1.8574  0.1720  1.4791
 9457TIP3   OH252565   4.527   6.790  11.300  0.2654 -0.2145  0.2181
 9457TIP3    H152566   4.561   6.746  11.378 -0.6498 -0.3391  0.5462
 9457TIP3    H252567   4.447   6.833  11.328  0.4153  0.5310 -0.4328
 9458TIP3   OH252568   4.732   2.775  12.010  0.4431 -0.2917 -0.2504
 9458TIP3    H152569   4.664   2.802  12.072  1.9231 -0.1565  1.3905
 9458TIP3    H252570   4.706   2.815  11.927 -0.7351  0.9108  0.6498
 9459TIP3   OH252571   6.821   0.283  11.829 -0.4398 -0.6122 -0.1693
 9459TIP3    H152572   6.769   0.202  11.833 -1.0361 -0.2207  0.3061
 9459TIP3    H252573   6.756   0.353  11.834 -0.0477 -0.0721 -2.0735
 9460TIP3   OH252574   7.789   1.666  12.494 -0.2461  0.3283  0.2351
 9460TIP3    H152575   7.882   1.679  12.512 -0.3570  0.2217  0.9236
 9460TIP3    H252576   7.781   1.572  12.475 -0.2560  0.2770  0.4839
 9461TIP3   OH252577   7.103   6.444  10.868 -0.0257 -0.0289 -0.0557
 9461TIP3    H152578   7.067   6.520  10.822 -0.0338 -0.3147 -0.5230
 9461TIP3    H252579   7.118   6.379  10.800 -0.3169 -0.5661  0.3780
 9462TIP3   OH252580   2.937   2.703  11.622 -0.1943 -0.3870  0.1453
 9462TIP3    H152581   2.953   2.758  11.545  0.2123 -1.0364 -0.2341
 9462TIP3    H252582   2.875   2.637  11.593  1.0347 -1.4880 -0.0201
 9463TIP3   OH252583   1.274   7.249  10.865 -0.2267 -0.8084 -0.5777
 9463TIP3    H152584   1.279   7.157  10.892 -0.8290 -0.4328  0.9065
 9463TIP3    H252585   1.188   7.258  10.825  0.5864 -1.3157 -2.5640
 9464TIP3   OH252586   7.362   0.557  10.529 -0.0070 -0.1402  0.7347
 9464TIP3    H152587   7.304   0.633  10.515  1.3268  1.0089  1.2139
 9464TIP3    H252588   7.309   0.496  10.580 -1.0462  0.5681  0.5433
 9465TIP3   OH252589   3.338   2.671  12.701  0.0226  0.0074  0.4563
 9465TIP3    H152590   3.388   2.713  12.632 -1.3883  0.6018 -0.2483
 9465TIP3    H252591   3.361   2.578  12.695  1.5117  0.3474  0.6053
 9466TIP3   OH252592   1.620   8.068  11.001 -0.8075  0.3253  0.6664
 9466TIP3    H152593   1.648   7.988  10.957 -0.4166  0.3648  0.8373
 9466TIP3    H252594   1.658   8.139  10.948 -0.4652  0.3760  0.9778
 9467TIP3   OH252595   6.431   5.616  10.781 -0.0275 -0.1088  0.0662
 9467TIP3    H152596   6.503   5.611  10.844  1.3137 -0.4025 -1.4220
 9467TIP3    H252597   6.456   5.555  10.712 -0.7274  1.2483 -1.4347
 9468TIP3   OH252598   3.081   6.833  12.382 -0.3859  0.0456 -0.4364
 9468TIP3    H152599   3.133   6.914  12.383 -0.6864  0.2425 -0.8286
 9468TIP3    H252600   3.043   6.829  12.470 -0.1819  0.2077 -0.3377
 9469TIP3   OH252601   2.368   6.875  10.911  0.5107  0.0618 -0.2743
 9469TIP3    H152602   2.369   6.967  10.937 -0.8668  0.3574 -1.1386
 9469TIP3    H252603   2.344   6.828  10.990 -3.5438  0.9252 -0.8032
 9470TIP3   OH252604   7.708   7.384  11.549 -0.0866 -0.3907 -0.8375
 9470TIP3    H152605   7.753   7.312  11.593 -2.1422  0.6224  3.4730
 9470TIP3    H252606   7.617   7.356  11.542 -0.7314  1.3178  0.0169
 9471TIP3   OH252607   4.023   8.159  10.579 -0.5098  0.5047  0.3122
 9471TIP3    H152608   4.071   8.154  10.496 -2.4259 -0.8095 -0.7760
 9471TIP3    H252609   4.035   8.073  10.619 -0.9078  0.5926  0.6256
 9472TIP3   OH252610   2.566   4.298  12.902  0.1290 -0.3687  0.1366
 9472TIP3    H152611   2.578   4.229  12.967  2.5646 -1.6327 -1.5146
 9472TIP3    H252612   2.479   4.280  12.865 -0.1341 -1.2928  1.1396
 9473TIP3   OH252613   3.813   2.511  11.240 -0.0310 -0.2948 -0.6648
 9473TIP3    H152614   3.875   2.453  11.196 -0.4100 -1.0155 -0.2751
 9473TIP3    H252615   3.730   2.464  11.236  0.0845 -0.8101  1.5724
 9474TIP3   OH252616   6.737   4.692  10.504 -0.3016 -0.1922 -0.6166
 9474TIP3    H152617   6.795   4.622  10.535 -0.1011  0.7458  1.2914
 9474TIP3    H252618   6.650   4.664  10.530 -0.2649  0.0760 -0.1955
 9475TIP3   OH252619   4.503   3.141  11.915 -0.0890  0.0681  0.4893
 9475TIP3    H152620   4.424   3.147  11.861 -0.0706 -0.6206  0.3761
 9475TIP3    H252621   4.554   3.218  11.892  0.1538 -0.4764 -0.8569
 9476TIP3   OH252622   4.801   1.493  11.412 -0.3566 -0.0470 -0.3373
 9476TIP3    H152623   4.729   1.542  11.452 -0.7012 -0.3397 -0.6031
 9476TIP3    H252624   4.853   1.560  11.367  1.7088  0.8098  2.9681
 9477TIP3   OH252625   2.417   4.418  11.698 -0.6147 -0.0525 -0.3669
 9477TIP3    H152626   2.413   4.399  11.792  1.0283  0.9116 -0.0687
 9477TIP3    H252627   2.408   4.332  11.656 -1.6481 -0.4630  0.6430
 9478TIP3   OH252628   2.207   1.412  11.131  0.1247 -0.0431  0.0596
 9478TIP3    H152629   2.199   1.324  11.095  1.1229 -0.4303  0.7539
 9478TIP3    H252630   2.301   1.431  11.129 -0.1091  1.2051 -0.5179
 9479TIP3   OH252631   0.176   5.874  11.451 -0.0807 -0.1132 -0.1640
 9479TIP3    H152632   0.160   5.864  11.545 -0.4032 -2.2664 -0.3776
 9479TIP3    H252633   0.089   5.891  11.413 -0.2233 -0.8637 -0.2032
 9480TIP3   OH252634   6.035   0.272  11.472 -0.3344  0.2567  0.2631
 9480TIP3    H152635   5.985   0.326  11.410  1.8595  0.7003 -1.2050
 9480TIP3    H252636   6.072   0.336  11.534 -1.5692 -0.0815  1.4098
 9481TIP3   OH252637   8.140   0.927  12.162 -0.1802 -0.3915 -0.6917
 9481TIP3    H152638   8.072   0.964  12.107 -0.9495 -1.2321 -0.3254
 9481TIP3    H252639   8.171   0.850  12.115  2.8692  1.7138 -2.4673
 9482TIP3   OH252640   8.310   1.196  12.067 -0.6130  0.5593 -0.4168
 9482TIP3    H152641   8.315   1.101  12.058  0.2595  0.4922  0.5829
 9482TIP3    H252642   8.217   1.213  12.084 -1.1358  0.1064 -2.5393
 9483TIP3   OH252643   2.879   2.795  10.637 -0.2233  0.3070 -0.0130
 9483TIP3    H152644   2.890   2.878  10.591 -1.4007  0.8891  0.7184
 9483TIP3    H252645   2.876   2.730  10.566 -0.6427  1.0359 -0.6884
 9484TIP3   OH252646   7.466   8.397  11.934  0.5257 -0.0622 -0.1865
 9484TIP3    H152647   7.546   8.400  11.880  1.0616 -1.2042  0.5196
 9484TIP3    H252648   7.448   8.489  11.953  2.3494  0.1949  0.5756
 9485TIP3   OH252649   0.028   2.995  11.790 -0.0478 -0.8295  0.3457
 9485TIP3    H152650   0.098   2.940  11.756  1.3556  0.3331  1.2360
 9485TIP3    H252651  -0.041   2.933  11.817 -0.2101 -1.8854 -2.2735
 9486TIP3   OH252652   5.623   4.171  12.216 -0.0041  0.2908 -0.3578
 9486TIP3    H152653   5.707   4.197  12.253  0.6684 -0.7558 -1.0936
 9486TIP3    H252654   5.611   4.229  12.140  1.0087 -0.8286 -1.4053
 9487TIP3   OH252655   8.233   1.230  11.133 -0.2613  0.3051 -0.2344
 9487TIP3    H152656   8.193   1.199  11.051 -1.1348  1.2817 -0.2067
 9487TIP3    H252657   8.268   1.316  11.110  0.3525  0.1626  0.1771
 9488TIP3   OH252658   4.085   5.649  10.688  0.4642 -0.4855  0.5585
 9488TIP3    H152659   4.058   5.613  10.772 -0.0990 -3.3759 -0.7472
 9488TIP3    H252660   4.168   5.606  10.668  0.3886 -0.1675 -0.5437
 9489TIP3   OH252661   7.086   6.717  10.392  0.4331  0.5680  0.0476
 9489TIP3    H152662   7.161   6.668  10.426 -0.3177 -1.0259 -0.4902
 9489TIP3    H252663   7.108   6.735  10.301  1.6223  3.1820  0.7565
 9490TIP3   OH252664   1.472   4.938  10.495  0.1479 -0.0001 -0.2506
 9490TIP3    H152665   1.420   5.010  10.460  0.6871 -0.3584 -1.8994
 9490TIP3    H252666   1.537   4.981  10.551  0.7760  0.8836 -1.5987
 9491TIP3   OH252667   0.125   1.110  11.091  0.5811 -0.2262  0.3368
 9491TIP3    H152668   0.116   1.076  11.180  1.4938 -0.9832  0.1514
 9491TIP3    H252669   0.083   1.044  11.036  1.6701 -0.6796  0.0428
 9492TIP3   OH252670   0.876   1.029  10.839  0.6673  0.3199  0.4773
 9492TIP3    H152671   0.794   1.043  10.791 -0.5470 -1.6148  1.8187
 9492TIP3    H252672   0.872   1.090  10.912  0.2309 -0.0011  0.7278
 9493TIP3   OH252673   3.464   4.914  13.047 -0.4001 -0.1066  0.2780
 9493TIP3    H152674   3.490   4.822  13.042  0.4853  0.1513 -0.1870
 9493TIP3    H252675   3.391   4.922  12.986  0.2636 -0.2662 -0.5514
 9494TIP3   OH252676   6.916   1.290  10.802  0.1490 -0.0543 -0.1150
 9494TIP3    H152677   6.958   1.205  10.817  0.1990  0.4598  3.7574
 9494TIP3    H252678   6.824   1.274  10.821  0.0280  0.5818 -0.1724
 9495TIP3   OH252679   1.821   6.211  11.992  0.2131 -0.2154 -0.2408
 9495TIP3    H152680   1.852   6.298  11.967  0.3524 -0.0552  0.4797
 9495TIP3    H252681   1.726   6.216  11.982  0.2659 -0.1556 -0.7317
 9496TIP3   OH252682   1.212   2.763  11.741  1.2086  0.2435  0.3253
 9496TIP3    H152683   1.307   2.754  11.735  1.5076  2.8618 -0.1993
 9496TIP3    H252684   1.182   2.770  11.651  0.8607  1.7061  0.5195
 9497TIP3   OH252685   3.916   4.850  12.159 -0.2290 -0.1064 -0.1873
 9497TIP3    H152686   3.873   4.765  12.175 -0.0756 -0.7236 -2.6771
 9497TIP3    H252687   4.008   4.828  12.148  0.1359  0.6899  1.1376
 9498TIP3   OH252688   4.599   5.332  11.941 -0.0315 -0.7713  0.4992
 9498TIP3    H152689   4.534   5.312  11.874  0.6396 -2.5767  0.3445
 9498TIP3    H252690   4.567   5.413  11.982 -2.0094 -1.2563  0.0128
 9499TIP3   OH252691   1.870   3.307  11.874 -1.1649  0.8881 -0.1056
 9499TIP3    H152692   1.803   3.367  11.907 -0.9018  1.4037 -0.4978
 9499TIP3    H252693   1.936   3.364  11.834  0.0633  0.4775  1.2372
 9500TIP3   OH252694   7.511   0.034  11.157 -0.1838  0.4917 -0.1169
 9500TIP3    H152695   7.593   0.010  11.200 -0.9210 -0.2387  0.9333
 9500TIP3    H252696   7.489  -0.042  11.103 -1.1982 -0.2134  1.2144
 9501TIP3   OH252697   7.511   7.090  12.825  0.3213 -0.7722 -0.3769
 9501TIP3    H152698   7.541   7.132  12.906 -1.9470 -1.7031  1.0612
 9501TIP3    H252699   7.560   7.133  12.756  1.5607  0.8464  1.4047
 9502TIP3   OH252700   3.574   8.324  11.824  0.1256  0.1492 -0.1721
 9502TIP3    H152701   3.534   8.411  11.829  0.9815  0.6033 -1.1037
 9502TIP3    H252702   3.649   8.334  11.765  0.5672 -1.0955  0.1365
 9503TIP3   OH252703   5.093   4.203  10.727  0.3855 -0.2341 -0.5852
 9503TIP3    H152704   4.998   4.192  10.734  0.4473 -0.6171 -0.3480
 9503TIP3    H252705   5.103   4.284  10.677 -0.0673  0.1981  0.0069
 9504TIP3   OH252706   7.235   2.124  12.832 -0.1674 -0.0258  0.0353
 9504TIP3    H152707   7.163   2.184  12.849 -1.3584 -1.8353  1.8023
 9504TIP3    H252708   7.222   2.096  12.741  0.0906  1.8845 -0.6355
 9505TIP3   OH252709   2.240   4.575  12.783 -0.1536 -0.3955 -0.2478
 9505TIP3    H152710   2.326   4.558  12.821  0.1800 -1.7166 -1.5024
 9505TIP3    H252711   2.216   4.493  12.739 -1.2809  0.4958 -1.3769
 9506TIP3   OH252712   6.615   2.498  11.531  0.2976  0.0698 -0.0310
 9506TIP3    H152713   6.600   2.591  11.547  0.7503  0.1856 -0.2523
 9506TIP3    H252714   6.599   2.456  11.616 -1.1973  0.1792 -0.2438
 9507TIP3   OH252715   4.819   5.547  11.353 -0.8559 -0.3006  0.1545
 9507TIP3    H152716   4.815   5.565  11.259 -1.0961  0.9290  0.3813
 9507TIP3    H252717   4.727   5.537  11.379 -0.8773  0.6343  0.4743
 9508TIP3   OH252718   0.491   7.795  12.322 -0.1094 -0.0663 -0.1116
 9508TIP3    H152719   0.559   7.828  12.381 -0.1637 -0.2149  0.0367
 9508TIP3    H252720   0.511   7.836  12.238 -0.3758  0.5949  0.1455
 9509TIP3   OH252721   0.898   5.036  10.404 -0.5121 -0.2397 -0.4149
 9509TIP3    H152722   0.882   4.968  10.339 -1.0066 -1.5815  1.0594
 9509TIP3    H252723   0.837   5.017  10.475  0.6297  0.6496  0.8585
 9510TIP3   OH252724   4.338   7.728  11.508 -0.0604  0.3886 -0.3240
 9510TIP3    H152725   4.288   7.759  11.432  0.6269  1.6532 -0.2910
 9510TIP3    H252726   4.421   7.775  11.502  0.4014 -0.2688  0.6662
 9511TIP3   OH252727   8.389   3.378  13.018 -0.7259 -0.4544 -0.4586
 9511TIP3    H152728   8.340   3.298  13.038 -0.5794 -0.7760 -1.3573
 9511TIP3    H252729   8.481   3.353  13.031 -0.6961 -0.3503 -0.4706
 9512TIP3   OH252730   7.494   6.138  11.671  0.0536  0.2261  0.1438
 9512TIP3    H152731   7.554   6.082  11.621 -1.3987 -1.0656 -0.2491
 9512TIP3    H252732   7.541   6.157  11.752  1.9149  1.2342 -1.0819
 9513TIP3   OH252733   2.093   6.478  11.626  0.8699 -0.0300 -0.0584
 9513TIP3    H152734   2.106   6.572  11.616 -1.5464  0.5437  1.4611
 9513TIP3    H252735   2.006   6.462  11.588  0.7292 -1.4324  0.7899
 9514TIP3   OH252736   3.424   0.186  12.033 -0.4172 -0.2468 -0.5964
 9514TIP3    H152737   3.357   0.148  12.089  0.9728 -0.7872  0.7640
 9514TIP3    H252738   3.408   0.280  12.036 -0.1248 -0.2195  1.0827
 9515TIP3   OH252739   5.266   1.990  10.726 -0.1029 -0.2074  0.0171
 9515TIP3    H152740   5.215   1.910  10.732  0.0952 -0.2984  0.5660
 9515TIP3    H252741   5.233   2.034  10.647 -0.2943 -0.7653 -0.2156
 9516TIP3   OH252742   1.652   1.280  11.989  0.1118  0.2214  0.4565
 9516TIP3    H152743   1.568   1.314  12.020 -1.1735 -0.3282 -2.1153
 9516TIP3    H252744   1.700   1.257  12.068 -0.9582  3.2495  2.1276
 9517TIP3   OH252745   2.903   6.825  12.171  0.1964  0.5876 -0.3529
 9517TIP3    H152746   2.978   6.837  12.230 -1.1496  1.7816  1.1864
 9517TIP3    H252747   2.909   6.898  12.110  0.3112  0.6616 -0.2538
 9518TIP3   OH252748   8.379   7.585  11.555 -0.0014 -0.6082  0.5791
 9518TIP3    H152749   8.381   7.560  11.647 -0.4929 -0.7421  0.5532
 9518TIP3    H252750   8.359   7.505  11.508 -0.7719 -0.3458  0.4385
 9519TIP3   OH252751   2.722   7.666  11.266 -0.1173 -0.1647  0.4574
 9519TIP3    H152752   2.695   7.747  11.223 -1.6720 -0.7111  0.3204
 9519TIP3    H252753   2.816   7.675  11.279  0.1148  0.7587 -1.5072
 9520TIP3   OH252754   1.829   0.170  11.007 -0.2665  0.0953 -0.1510
 9520TIP3    H152755   1.896   0.238  11.007 -1.2073  1.0361  0.3542
 9520TIP3    H252756   1.853   0.114  11.082  0.4038 -0.0418 -0.4593
 9521TIP3   OH252757   3.056   3.529  10.823 -0.1086 -0.0253 -0.4060
 9521TIP3    H152758   3.114   3.605  10.830  2.0572 -1.4825 -1.3877
 9521TIP3    H252759   2.981   3.561  10.774 -1.1444  2.4149  2.4547
 9522TIP3   OH252760   5.358   1.872  12.783  0.5164  0.4152  0.2693
 9522TIP3    H152761   5.332   1.948  12.732  0.1644 -0.9820 -1.7734
 9522TIP3    H252762   5.284   1.856  12.842 -1.9804 -1.3916 -2.9842
 9523TIP3   OH252763   3.572   7.903  12.529  0.1301 -0.1436  0.1318
 9523TIP3    H152764   3.510   7.841  12.568 -0.9885  0.7705 -0.1288
 9523TIP3    H252765   3.653   7.853  12.521 -1.2101 -2.2272 -1.8946
 9524TIP3   OH252766   6.728   3.621  11.277  0.2271  0.7048  0.0767
 9524TIP3    H152767   6.666   3.673  11.328 -0.3504  0.2584 -0.1592
 9524TIP3    H252768   6.814   3.651  11.305 -0.0147 -0.7809  2.6817
 9525TIP3   OH252769   7.634   8.314  11.573  0.1247 -0.0538  0.3820
 9525TIP3    H152770   7.598   8.234  11.611  1.2032  0.2358  2.0980
 9525TIP3    H252771   7.603   8.384  11.630 -3.0093  1.2233 -2.5110
 9526TIP3   OH252772   7.006   4.512  11.883  0.3394 -0.0167  0.1444
 9526TIP3    H152773   7.037   4.478  11.799  0.8991 -0.3204  0.4663
 9526TIP3    H252774   6.910   4.512  11.875  0.4147  1.3193 -1.0198
 9527TIP3   OH252775   8.048   3.784  10.973 -0.4545 -0.3967 -0.3757
 9527TIP3    H152776   8.056   3.767  11.067 -0.7501 -1.6479 -0.5624
 9527TIP3    H252777   8.134   3.818  10.948  0.3199 -2.0135 -0.0273
 9528TIP3   OH252778   2.942   1.545  11.135  0.1949  0.0079 -0.9293
 9528TIP3    H152779   3.033   1.567  11.157  0.2408 -2.0359  1.3822
 9528TIP3    H252780   2.946   1.453  11.109 -1.5423 -1.2926  2.7121
 9529TIP3   OH252781   4.717   4.621  12.625  0.3215  0.0129 -1.4612
 9529TIP3    H152782   4.635   4.573  12.610 -0.0288  0.4953 -1.1538
 9529TIP3    H252783   4.688   4.705  12.661  0.9804  0.0186 -0.9363
 9530TIP3   OH252784   5.516   0.744  10.985  0.1056 -0.2416  0.1519
 9530TIP3    H152785   5.542   0.720  10.896 -0.8407  0.3277 -0.2968
 9530TIP3    H252786   5.563   0.825  11.003  2.1003 -1.5410  1.0796
 9531TIP3   OH252787   2.755   2.325  11.687  0.0196 -0.3370  0.2513
 9531TIP3    H152788   2.752   2.375  11.768  0.4547  0.2824 -0.1087
 9531TIP3    H252789   2.844   2.290  11.684 -0.0249 -0.4354  0.0788
 9532TIP3   OH252790   2.168   7.649  10.803  0.5969  0.0673  0.3612
 9532TIP3    H152791   2.241   7.704  10.832 -0.2766  1.6278 -0.2938
 9532TIP3    H252792   2.186   7.632  10.711  0.9771 -0.9910  0.6093
 9533TIP3   OH252793   5.645   6.199  11.536 -0.3190 -0.0136 -0.1166
 9533TIP3    H152794   5.577   6.256  11.499 -1.0732  0.1799  1.5012
 9533TIP3    H252795   5.668   6.141  11.463 -2.1181  0.0150 -0.7762
 9534TIP3   OH252796   6.162   3.361  12.119  0.1252  0.4234 -0.5420
 9534TIP3    H152797   6.145   3.453  12.100 -1.6226  0.1101 -0.6161
 9534TIP3    H252798   6.117   3.345  12.202  1.6624 -0.0240  0.2575
 9535TIP3   OH252799   6.755   3.249  10.738 -0.4541  0.2242 -0.7232
 9535TIP3    H152800   6.750   3.170  10.684 -0.2924 -0.8667  0.7714
 9535TIP3    H252801   6.846   3.251  10.768 -0.2646  1.4059 -1.3155
 9536TIP3   OH252802   0.708   5.209  11.862 -0.1283  0.1344 -0.1523
 9536TIP3    H152803   0.637   5.165  11.910  0.4557 -0.5215  0.1301
 9536TIP3    H252804   0.676   5.297  11.847 -1.7199 -0.6175 -1.4959
 9537TIP3   OH252805   6.644   4.466  12.734  0.6249 -0.1223  0.3006
 9537TIP3    H152806   6.651   4.416  12.815  1.9880 -4.2323 -2.0446
 9537TIP3    H252807   6.718   4.528  12.738  0.3662  0.1337  2.3154
 9538TIP3   OH252808   2.598   0.054  11.702 -0.8883 -0.5569  0.4004
 9538TIP3    H152809   2.589   0.148  11.715  0.4074 -0.2661 -0.6997
 9538TIP3    H252810   2.592   0.041  11.607 -2.3276 -1.7488  0.5996
 9539TIP3   OH252811   2.651   0.089  11.426  0.2495  0.5544  0.9014
 9539TIP3    H152812   2.558   0.112  11.419 -0.2832 -1.8023 -2.1277
 9539TIP3    H252813   2.697   0.162  11.386 -0.4983  0.8648  0.5791
 9540TIP3   OH252814   0.361   8.124  11.626  0.1909 -0.4729 -0.2453
 9540TIP3    H152815   0.314   8.184  11.683 -0.5217 -0.3691 -0.9200
 9540TIP3    H252816   0.296   8.058  11.602  0.8429 -1.2572  0.1236
 9541TIP3   OH252817   4.899   2.455  11.217 -0.1951  0.2047  0.5125
 9541TIP3    H152818   4.947   2.477  11.296 -1.7758  1.0990  1.2788
 9541TIP3    H252819   4.867   2.539  11.184 -1.4600 -0.3534  0.2282
 9542TIP3   OH252820   6.840   0.065  12.083 -0.2880  0.2157  0.1521
 9542TIP3    H152821   6.799  -0.004  12.135  0.1767  0.6096  1.0634
 9542TIP3    H252822   6.778   0.081  12.011 -0.7759 -0.5764  0.3801
 9543TIP3   OH252823   3.389   2.994  11.849 -0.5576  0.1527 -0.2329
 9543TIP3    H152824   3.418   2.905  11.867  0.1272  0.1192 -1.4378
 9543TIP3    H252825   3.430   3.046  11.919 -1.4387 -0.5293  0.8279
 9544TIP3   OH252826   0.314   2.199  11.042  0.2175  0.1984  0.0856
 9544TIP3    H152827   0.276   2.280  11.077 -0.7056 -0.2318  0.1181
 9544TIP3    H252828   0.313   2.211  10.947 -1.3408 -0.3524 -0.0018
 9545TIP3   OH252829   6.041   5.783  10.820  0.1887 -0.1375  0.1284
 9545TIP3    H152830   5.960   5.834  10.823  1.4169  2.1087 -1.6848
 9545TIP3    H252831   6.032   5.727  10.743  0.1982 -0.1921  0.1670
 9546TIP3   OH252832   1.069   3.143  12.547  0.4177  0.2543 -0.6999
 9546TIP3    H152833   1.006   3.073  12.560  0.9226 -0.3087 -1.1811
 9546TIP3    H252834   1.085   3.179  12.634  0.0185 -0.1121 -0.4750
 9547TIP3   OH252835   1.797   5.389  11.136 -0.5881 -0.2103 -0.0494
 9547TIP3    H152836   1.831   5.363  11.051  0.8472  0.1044  0.3943
 9547TIP3    H252837   1.750   5.312  11.168  2.3728 -1.9020  0.6294
 9548TIP3   OH252838   2.370   7.015  12.160 -0.1719 -0.2228 -0.2851
 9548TIP3    H152839   2.289   7.041  12.203 -0.6718 -0.7572 -0.8966
 9548TIP3    H252840   2.387   6.926  12.191 -1.1087 -1.0254 -1.9838
 9549TIP3   OH252841   5.603   0.535  11.378  0.3914  0.2637 -0.6198
 9549TIP3    H152842   5.563   0.449  11.390 -1.4861  0.5143 -3.9038
 9549TIP3    H252843   5.553   0.592  11.436  0.0612 -0.4443 -0.1916
 9550TIP3   OH252844   2.434   7.591  11.239  0.4770 -0.1944  0.0253
 9550TIP3    H152845   2.521   7.624  11.260 -0.1561  1.8520 -0.3957
 9550TIP3    H252846   2.449   7.501  11.210  2.3529 -0.1052  0.6138
 9551TIP3   OH252847   0.999   4.797  12.091 -0.6128 -0.0639 -0.0403
 9551TIP3    H152848   1.032   4.884  12.068  0.7919 -0.4840  0.3024
 9551TIP3    H252849   0.977   4.804  12.184  1.5388 -0.6412  0.5495
 9552TIP3   OH252850   6.122   5.668  11.979  0.1159 -0.3331  0.5420
 9552TIP3    H152851   6.028   5.653  11.965  0.5201 -3.9357  0.7386
 9552TIP3    H252852   6.130   5.683  12.073 -0.5448  4.6482  0.1076
 9553TIP3   OH252853   6.113   7.144  12.951  0.0385  0.3645  0.1128
 9553TIP3    H152854   6.191   7.168  13.001  1.2510 -2.0888 -0.4232
 9553TIP3    H252855   6.141   7.068  12.898 -1.9421  1.0985 -2.1887
 9554TIP3   OH252856   7.837   2.418  12.485 -0.0117 -0.1073 -0.3196
 9554TIP3    H152857   7.926   2.406  12.453  0.2630  1.5927 -0.3311
 9554TIP3    H252858   7.782   2.411  12.407  0.0984 -1.2064 -0.3055
 9555TIP3   OH252859   3.591   7.138  12.149  0.1125  0.2410 -0.1693
 9555TIP3    H152860   3.592   7.112  12.241  1.1770  0.5621 -0.0808
 9555TIP3    H252861   3.681   7.128  12.120  0.1373  1.7711 -0.7094
 9556TIP3   OH252862   4.653   4.132  12.759 -0.4178  0.5635  0.3366
 9556TIP3    H152863   4.606   4.051  12.782 -2.5226  0.3192 -3.7508
 9556TIP3    H252864   4.585   4.189  12.723  1.7688  1.9648 -1.9008
 9557TIP3   OH252865   1.201   7.108  12.030  0.2176 -0.1758 -0.0429
 9557TIP3    H152866   1.217   7.072  11.943 -0.0931  0.6011 -0.4352
 9557TIP3    H252867   1.287   7.141  12.058  0.5328 -1.3186  0.3796
 9558TIP3   OH252868   6.985   1.750  12.249  0.2231  0.1969 -0.3873
 9558TIP3    H152869   6.992   1.781  12.339  1.4436  2.0713 -1.0645
 9558TIP3    H252870   6.911   1.690  12.250 -0.2962  0.7889  1.6852
 9559TIP3   OH252871   4.990   1.144  10.562  0.1285 -0.2619 -0.3957
 9559TIP3    H152872   4.897   1.166  10.566  0.3484  0.5838  0.1810
 9559TIP3    H252873   5.032   1.223  10.529  0.7517 -0.3028  0.2726
 9560TIP3   OH252874   5.734   6.715  12.186  0.1341 -0.6299 -0.4742
 9560TIP3    H152875   5.697   6.717  12.274  2.1631  0.4273  0.4206
 9560TIP3    H252876   5.828   6.703  12.199  0.5756  0.1827 -2.4729
 9561TIP3   OH252877   1.490   6.167  12.391  0.3053 -0.2905  0.1014
 9561TIP3    H152878   1.498   6.220  12.312  1.0710  0.3381  0.5897
 9561TIP3    H252879   1.565   6.192  12.445 -1.0160  0.4564  1.7116
 9562TIP3   OH252880   5.463   0.068  11.047  0.0667  0.3734  0.0806
 9562TIP3    H152881   5.418   0.112  10.975 -2.4514  2.6992  2.8306
 9562TIP3    H252882   5.524   0.133  11.080 -0.3349  0.1441  1.3120
 9563TIP3   OH252883   6.889   4.994  11.922  0.3701 -0.2933  0.3607
 9563TIP3    H152884   6.938   5.048  11.985  3.4991  1.1243 -2.9357
 9563TIP3    H252885   6.917   4.904  11.942 -0.5064 -0.1895  2.3367
 9564TIP3   OH252886   3.613   7.470  11.972  0.4472 -0.4787 -0.3943
 9564TIP3    H152887   3.677   7.495  12.039  0.5299  0.2225 -0.7279
 9564TIP3    H252888   3.613   7.544  11.910  0.0338 -0.9108 -0.9188
 9565TIP3   OH252889   7.297   5.907  11.697 -0.1865  0.1691 -0.0088
 9565TIP3    H152890   7.326   5.998  11.688 -1.4472  0.8918  2.4710
 9565TIP3    H252891   7.375   5.860  11.728  0.3081  0.4825 -0.7378
 9566TIP3   OH252892   3.496   3.197  12.023 -0.0012  0.1172  0.5846
 9566TIP3    H152893   3.512   3.232  12.110  0.5326  0.9610  0.1573
 9566TIP3    H252894   3.577   3.150  12.001 -0.6148 -1.2181  1.0520
 9567TIP3   OH252895   3.980   4.289  11.197 -0.3477  0.3394 -0.6984
 9567TIP3    H152896   4.075   4.289  11.204 -0.4133 -0.6341  0.7951
 9567TIP3    H252897   3.960   4.220  11.134 -0.1146 -2.9721  2.5000
 9568TIP3   OH252898   0.178   5.447  11.650 -0.5049  0.1661  0.3701
 9568TIP3    H152899   0.122   5.424  11.575 -1.1180  1.8649  0.2613
 9568TIP3    H252900   0.266   5.452  11.614 -1.0005  2.7328 -0.7449
 9569TIP3   OH252901   4.342   7.518  12.319 -0.0092 -0.4580 -0.0540
 9569TIP3    H152902   4.277   7.521  12.250 -0.6278  0.4582  0.5550
 9569TIP3    H252903   4.358   7.609  12.342  0.8320 -0.7104  0.4191
 9570TIP3   OH252904   4.943   7.598  11.042  0.1784 -0.1457  0.1025
 9570TIP3    H152905   4.917   7.512  11.077  1.2808 -0.2717  0.6705
 9570TIP3    H252906   4.892   7.607  10.962 -0.2370 -1.1686  0.2251
 9571TIP3   OH252907   6.050   0.199  12.764 -0.1205  0.1203 -0.0084
 9571TIP3    H152908   6.095   0.279  12.791  0.6836 -0.1902 -0.3963
 9571TIP3    H252909   5.991   0.227  12.694 -1.1333  0.6671  1.0301
 9572TIP3   OH252910   2.400   5.546  11.747 -0.2779 -0.3398 -0.0935
 9572TIP3    H152911   2.309   5.570  11.734  0.1616  0.7936 -1.3407
 9572TIP3    H252912   2.439   5.550  11.659  1.3353  0.8747  0.6195
 9573TIP3   OH252913   1.826   4.224  10.530 -0.6835  0.0927 -0.0022
 9573TIP3    H152914   1.772   4.150  10.505 -0.6718  0.1843 -0.3079
 9573TIP3    H252915   1.898   4.186  10.580  0.0363 -0.2649 -1.2627
 9574TIP3   OH252916   5.415   4.034  12.304  0.3073  0.0007  0.2526
 9574TIP3    H152917   5.459   4.017  12.387 -0.2617 -0.0894  0.5456
 9574TIP3    H252918   5.470   4.098  12.260  0.3815  0.3962  0.9062
 9575TIP3   OH252919   0.299   0.672  12.090  0.7467 -0.1240 -0.2887
 9575TIP3    H152920   0.263   0.628  12.167  3.1400 -0.3023  0.8159
 9575TIP3    H252921   0.388   0.695  12.115  1.5731 -0.0535 -2.9661
 9576TIP3   OH252922   1.635   4.562  12.005 -0.0836  0.1407 -0.2032
 9576TIP3    H152923   1.725   4.585  12.029  0.5311 -0.8830 -1.4694
 9576TIP3    H252924   1.602   4.515  12.082  0.7718 -0.2999 -0.0934
 9577TIP3   OH252925   5.254   3.325  12.213 -0.5103  0.5720  0.3390
 9577TIP3    H152926   5.207   3.246  12.186 -0.5811  0.4663  0.7687
 9577TIP3    H252927   5.312   3.345  12.139  2.1681 -1.9133  1.6035
 9578TIP3   OH252928   4.127   4.054  12.309  0.2477 -0.0103 -0.3857
 9578TIP3    H152929   4.047   4.040  12.361 -0.5818  1.7471 -1.1196
 9578TIP3    H252930   4.170   4.129  12.350  1.9352 -1.3346  0.4051
 9579TIP3   OH252931   5.008   2.198  11.576  0.3040 -0.8171  0.0013
 9579TIP3    H152932   4.993   2.192  11.671  0.8795 -1.0534  0.0831
 9579TIP3    H252933   4.933   2.153  11.537 -1.2164  1.3621  0.2398
 9580TIP3   OH252934   6.880   5.331  11.933 -0.5266  0.0402  0.4698
 9580TIP3    H152935   6.806   5.315  11.993 -1.1576 -3.7789 -1.0445
 9580TIP3    H252936   6.953   5.284  11.973 -0.5138 -1.1121 -0.8594
 9581TIP3   OH252937   0.482   1.567  11.200 -0.3014 -0.3222  0.6624
 9581TIP3    H152938   0.550   1.611  11.251 -0.5465  0.9825 -0.0991
 9581TIP3    H252939   0.530   1.507  11.142 -0.0153 -1.7471  2.2872
 9582TIP3   OH252940   2.265   3.392  12.459  0.0323  0.1130  0.2926
 9582TIP3    H152941   2.188   3.361  12.412 -0.1232  0.1466  0.5230
 9582TIP3    H252942   2.295   3.467  12.408 -0.1844  0.2005  0.2909
 9583TIP3   OH252943   7.868   5.839  12.399  0.1917  0.7331 -0.4689
 9583TIP3    H152944   7.862   5.916  12.456  2.9237 -0.3292  1.5022
 9583TIP3    H252945   7.959   5.809  12.409 -0.9944 -3.4625 -0.0481
 9584TIP3   OH252946   7.119   3.600  11.621 -0.7181 -0.1672  0.5344
 9584TIP3    H152947   7.062   3.603  11.698  0.3605  0.7779  1.3190
 9584TIP3    H252948   7.204   3.572  11.654  0.0488  1.3010 -0.1094
 9585TIP3   OH252949   2.156   6.084  12.774  0.6464  0.0277 -0.3122
 9585TIP3    H152950   2.214   6.160  12.774  1.1557 -0.3496  0.1393
 9585TIP3    H252951   2.090   6.103  12.840  0.6203  0.1902 -0.3857
 9586TIP3   OH252952   0.968   0.540  11.764  0.4943 -0.8526  0.1336
 9586TIP3    H152953   0.979   0.571  11.854  0.6029  0.9348 -0.4528
 9586TIP3    H252954   0.879   0.504  11.761 -0.0666  0.4364  0.6068
 9587TIP3   OH252955   5.505   6.143  10.691 -0.6246 -0.0526 -0.2198
 9587TIP3    H152956   5.463   6.215  10.738  0.3088  1.7572 -2.0178
 9587TIP3    H252957   5.597   6.149  10.716 -0.6729 -1.2765  0.3503
 9588TIP3   OH252958   0.215   3.065  11.040 -0.4908  0.0954 -0.2623
 9588TIP3    H152959   0.159   3.033  10.970  2.1304 -1.5841 -1.7867
 9588TIP3    H252960   0.281   3.118  10.995  2.4322 -2.5954  0.4578
 9589TIP3   OH252961   5.757   3.616  11.265  0.2881 -0.3041  0.1045
 9589TIP3    H152962   5.731   3.525  11.281  0.9657 -0.8263 -1.5549
 9589TIP3    H252963   5.771   3.621  11.170 -0.4188  1.7254  0.0582
 9590TIP3   OH252964   6.724   1.966  11.148 -0.4836 -0.3341  0.3647
 9590TIP3    H152965   6.723   1.921  11.233  0.2727 -0.5563  0.2633
 9590TIP3    H252966   6.784   1.914  11.094  0.0183  0.5057  0.0940
 9591TIP3   OH252967   7.126   5.478  10.598 -0.0402 -0.3159 -0.1368
 9591TIP3    H152968   7.162   5.566  10.608  1.3458 -0.6945 -1.4950
 9591TIP3    H252969   7.086   5.459  10.684  1.7367  0.7009  0.9752
 9592TIP3   OH252970   0.114   4.228  11.428  0.7740 -0.1472 -0.3408
 9592TIP3    H152971   0.087   4.297  11.367  1.3809  0.0123 -0.4411
 9592TIP3    H252972   0.118   4.149  11.375  4.3423  0.5196 -1.3540
 9593TIP3   OH252973   7.090   0.652  12.342  1.0409  0.0332 -0.3961
 9593TIP3    H152974   7.164   0.709  12.320  2.2516 -0.8429  1.2244
 9593TIP3    H252975   7.126   0.587  12.402 -1.0381 -0.4664  0.4165
 9594TIP3   OH252976   6.496   2.888  10.698  0.4088 -0.0630 -0.1564
 9594TIP3    H152977   6.483   2.794  10.683 -0.6635 -0.2306  1.5500
 9594TIP3    H252978   6.476   2.900  10.791 -2.9114  2.3664 -0.9891
 9595TIP3   OH252979   4.111   3.071  11.069  0.5810  0.4799 -0.1511
 9595TIP3    H152980   4.044   3.005  11.085  1.5476 -0.7051 -0.8400
 9595TIP3    H252981   4.109   3.126  11.147 -1.5651  0.8390 -0.3883
 9596TIP3   OH252982   1.830   5.416  12.071 -1.0112  0.3129 -0.1177
 9596TIP3    H152983   1.861   5.384  11.987  2.1684  0.6572  0.7873
 9596TIP3    H252984   1.765   5.352  12.099  2.0143 -3.2204 -0.2899
 9597TIP3   OH252985   1.652   5.274  11.831  0.0158 -0.0487  0.1926
 9597TIP3    H152986   1.579   5.320  11.790 -0.3514 -0.5524  0.2839
 9597TIP3    H252987   1.611   5.208  11.886  0.4339  1.3566  2.3292
 9598TIP3   OH252988   5.769   6.275  12.504  0.2510 -0.5710  1.0546
 9598TIP3    H152989   5.715   6.229  12.440  1.0064 -1.0625  0.7571
 9598TIP3    H252990   5.752   6.229  12.587 -2.8870  1.7483  1.9356
 9599TIP3   OH252991   2.166   1.161  12.216  0.4700  0.1854  0.6881
 9599TIP3    H152992   2.131   1.075  12.240  1.9481  0.1984  3.1796
 9599TIP3    H252993   2.106   1.224  12.256 -1.5267  0.4610 -2.4611
 9600TIP3   OH252994   2.405   4.913  12.241  0.0181 -0.6148 -0.3158
 9600TIP3    H152995   2.385   4.837  12.295  0.6401 -0.7084 -0.2077
 9600TIP3    H252996   2.359   4.897  12.159  0.6260 -1.4080 -0.5160
 9601TIP3   OH252997   8.199   4.184  11.825  0.4961 -0.1401  0.1268
 9601TIP3    H152998   8.177   4.277  11.822  0.8740  0.0835  2.3766
 9601TIP3    H252999   8.292   4.181  11.799  0.3198  0.0283 -0.5383
 9602TIP3   OH253000   6.399   1.224  12.528  0.4420  0.0504  0.2695
 9602TIP3    H153001   6.444   1.239  12.612  3.4569  0.7305 -1.3210
 9602TIP3    H253002   6.410   1.305  12.480 -0.8115 -0.4916 -0.9968
 9603TIP3   OH253003   1.645   6.844  12.115 -0.0874  0.7338 -0.1433
 9603TIP3    H153004   1.572   6.782  12.112  0.2409  0.2904  0.7297
 9603TIP3    H253005   1.720   6.795  12.080  0.5097  0.1240  1.8609
 9604TIP3   OH253006   6.560   5.777  11.939 -0.7241  0.3353 -0.4942
 9604TIP3    H153007   6.556   5.682  11.936 -0.4014  0.3329 -0.8213
 9604TIP3    H253008   6.641   5.800  11.894 -0.8354  0.7697 -0.4815
 9605TIP3   OH253009   0.934   4.988  11.293  0.3658  0.1330 -0.0397
 9605TIP3    H153010   0.936   4.986  11.197 -0.9547  2.4574 -0.2231
 9605TIP3    H253011   0.951   5.080  11.315 -0.8898 -0.0182  1.8487
 9606TIP3   OH253012   6.646   0.025  11.541  0.3862 -0.5158 -0.5203
 9606TIP3    H153013   6.603   0.098  11.584 -1.9094 -1.8625 -0.3452
 9606TIP3    H253014   6.737   0.051  11.534  0.4612  0.7465  3.0615
 9607TIP3   OH253015   1.628   5.129  12.523  0.1864  0.4500  0.0783
 9607TIP3    H153016   1.707   5.156  12.571  0.4212  0.0420 -0.0766
 9607TIP3    H253017   1.636   5.034  12.515 -0.3804  0.3916  0.1634
 9608TIP3   OH253018   5.119   4.432  10.591 -0.1083  0.0836  0.0878
 9608TIP3    H153019   5.034   4.465  10.621 -0.0996  0.7364 -0.5856
 9608TIP3    H253020   5.149   4.498  10.529  1.0046 -0.0343  0.4923
 9609TIP3   OH253021   0.328   3.499  12.811 -0.0910  0.3712  0.2761
 9609TIP3    H153022   0.346   3.546  12.729 -1.4664 -0.5339 -0.5813
 9609TIP3    H253023   0.281   3.563  12.865  0.9859  1.0355  0.4544
 9610TIP3   OH253024   1.901   0.650  10.713 -0.1995 -0.6703  0.0745
 9610TIP3    H153025   1.864   0.561  10.709 -3.7667  0.5818  1.2992
 9610TIP3    H253026   1.830   0.704  10.748  2.4780  2.3643  1.3345
 9611TIP3   OH253027   0.034   0.769  11.412 -0.2161  0.7062 -0.0649
 9611TIP3    H153028   0.118   0.807  11.387  0.1903 -0.0116  0.1713
 9611TIP3    H253029   0.020   0.800  11.501 -0.1286  0.7017 -0.0489
 9612TIP3   OH253030   5.607   2.041  12.184 -0.1267  0.3283 -0.3091
 9612TIP3    H153031   5.636   1.950  12.174 -0.3238  0.3346 -0.9414
 9612TIP3    H253032   5.664   2.091  12.126  1.5213  0.9390  1.6993
 9613TIP3   OH253033   3.298   6.350  12.607  1.3031  0.3731  0.1741
 9613TIP3    H153034   3.242   6.423  12.579 -1.8404 -1.3260  1.4617
 9613TIP3    H253035   3.313   6.366  12.700  0.8401 -0.4342  0.3953
 9614TIP3   OH253036   6.447   3.364  10.479  0.0592 -0.0487  0.1203
 9614TIP3    H153037   6.459   3.359  10.574  1.3823  0.6012 -0.0062
 9614TIP3    H253038   6.535   3.365  10.443 -0.3919 -2.3335 -1.2643
 9615TIP3   OH253039   5.820   6.385  12.188  0.4688  0.0464 -0.3962
 9615TIP3    H153040   5.731   6.350  12.183  0.4912 -0.2896  1.1786
 9615TIP3    H253041   5.807   6.480  12.195  0.1809 -0.0559  0.6345
 9616TIP3   OH253042   8.210   0.478  11.023  0.0453 -0.7761 -0.4877
 9616TIP3    H153043   8.140   0.502  11.084 -1.0014 -2.2235 -1.0533
 9616TIP3    H253044   8.166   0.460  10.941  1.2352 -0.5982 -1.1887
 9617TIP3   OH253045   7.606   2.600  12.748  0.8555 -0.9448  0.2811
 9617TIP3    H153046   7.607   2.526  12.809  1.4659 -0.3205  1.0506
 9617TIP3    H253047   7.638   2.674  12.799 -0.5117  0.0489 -0.2465
 9618TIP3   OH253048   4.997   7.910  12.489 -0.1172  0.3724 -0.2416
 9618TIP3    H153049   4.933   7.935  12.556 -0.0605 -0.2398  0.0482
 9618TIP3    H253050   4.970   7.822  12.462  0.1962  0.3892 -0.6103
 9619TIP3   OH253051   7.313   2.693  10.849  0.2620 -0.0327 -0.6897
 9619TIP3    H153052   7.310   2.781  10.813  0.0106  0.5807  0.7603
 9619TIP3    H253053   7.381   2.696  10.916 -0.1715 -0.7611 -0.1935
 9620TIP3   OH253054   7.442   3.527  10.721  0.3749  0.2643 -0.4465
 9620TIP3    H153055   7.405   3.513  10.808 -1.3935  0.4597 -1.1209
 9620TIP3    H253056   7.429   3.444  10.675  0.4510  0.4483 -0.8092
 9621TIP3   OH253057   3.951   0.388  11.547  0.2608  0.2776  0.7537
 9621TIP3    H153058   4.026   0.378  11.606 -0.6154  0.9535  2.0299
 9621TIP3    H253059   3.874   0.384  11.604 -0.5679  2.5125 -0.0881
 9622TIP3   OH253060   0.051   1.684  10.556 -0.0794 -0.0580  0.2022
 9622TIP3    H153061   0.078   1.765  10.599 -0.3638  0.4981 -0.6560
 9622TIP3    H253062  -0.037   1.703  10.523 -0.4588 -0.9687  0.6475
 9623TIP3   OH253063   5.913   4.692  11.927  0.1286  0.7013  0.3733
 9623TIP3    H153064   5.974   4.750  11.972  0.6222  0.1808  0.3897
 9623TIP3    H253065   5.933   4.702  11.834 -0.1956  1.0075  0.3343
 9624TIP3   OH253066   1.890   4.996  10.907  0.1216  0.0636  0.4590
 9624TIP3    H153067   1.940   4.961  10.834  0.3741 -2.0890  1.5797
 9624TIP3    H253068   1.803   4.959  10.897 -0.0465  0.3419  0.8607
 9625TIP3   OH253069   1.548   4.183  12.063  0.1520  0.4123 -0.3623
 9625TIP3    H153070   1.625   4.235  12.085  1.6082 -0.8641 -2.1065
 9625TIP3    H253071   1.515   4.150  12.147  0.2761  2.5839  0.5845
 9626TIP3   OH253072   4.902   5.944  11.445 -0.1802 -0.0359  0.1039
 9626TIP3    H153073   4.969   5.877  11.433 -0.5635 -0.2481 -0.9712
 9626TIP3    H253074   4.939   6.003  11.510  1.2769  0.1331 -0.8231
 9627TIP3   OH253075   6.796   0.378  12.525  0.8085  0.0002  0.3261
 9627TIP3    H153076   6.846   0.459  12.519  0.9914 -0.1367 -0.0320
 9627TIP3    H253077   6.798   0.342  12.436  1.3418 -0.7655  0.6404
 9628TIP3   OH253078   4.353   1.883  11.429 -0.1957 -0.3329 -0.2026
 9628TIP3    H153079   4.329   1.943  11.358  0.6710 -0.1434 -0.3405
 9628TIP3    H253080   4.445   1.862  11.413  0.4548  0.8826  1.6997
 9629TIP3   OH253081   5.440   3.332  11.964 -0.2037  0.1669 -0.0615
 9629TIP3    H153082   5.512   3.345  11.903 -0.1073 -1.2854 -0.2762
 9629TIP3    H253083   5.429   3.237  11.970 -0.5139  0.2719  1.8168
 9630TIP3   OH253084   2.337   7.152  11.490  0.0052  0.5178 -0.3312
 9630TIP3    H153085   2.406   7.126  11.429 -0.6362 -0.6652 -0.5906
 9630TIP3    H253086   2.338   7.082  11.556 -1.7145 -0.1678 -0.9799
 9631TIP3   OH253087   5.637   4.340  11.999 -0.3915 -0.0811 -0.6386
 9631TIP3    H153088   5.569   4.406  11.984 -0.1400  0.2212 -0.4649
 9631TIP3    H253089   5.719   4.389  11.994 -0.2172 -0.3302 -0.2092
 9632TIP3   OH253090   5.864   6.585  11.700  0.1024  0.3624 -0.0728
 9632TIP3    H153091   5.891   6.676  11.686  0.6991  0.3192  0.7023
 9632TIP3    H253092   5.944   6.534  11.689  0.5457  0.2714  2.6541
 9633TIP3   OH253093   6.482   7.639  11.476  0.0219  0.3139  0.7814
 9633TIP3    H153094   6.523   7.651  11.391  0.1836 -2.6782  0.3204
 9633TIP3    H253095   6.539   7.684  11.538  1.3051  0.3870 -0.4217
 9634TIP3   OH253096   4.090   2.383  12.390  0.3023  0.0387  0.2507
 9634TIP3    H153097   4.151   2.358  12.320 -0.4798 -0.6243 -0.2172
 9634TIP3    H253098   4.054   2.300  12.420 -1.2182  0.4877 -0.2649
 9635TIP3   OH253099   3.621   5.199  11.959  0.4102 -0.4057 -0.0044
 9635TIP3    H153100   3.693   5.149  11.921  1.0995  1.3730 -1.1784
 9635TIP3    H253101   3.642   5.204  12.052  1.5424 -0.3726 -0.2442
 9636TIP3   OH253102   4.305   4.205  12.069  0.7871 -0.3299 -0.4694
 9636TIP3    H153103   4.256   4.239  11.994 -1.6897  0.3584  1.3463
 9636TIP3    H253104   4.319   4.281  12.125  1.2095 -1.1039  0.4987
 9637TIP3   OH253105   7.640   3.321  11.452 -0.0902  0.3431 -0.8044
 9637TIP3    H153106   7.687   3.266  11.389  1.3442  0.3133  0.2453
 9637TIP3    H253107   7.556   3.277  11.463  1.2545 -2.1201  0.5435
 9638TIP3   OH253108   2.564   4.558  11.119 -0.1343 -0.1149 -0.0498
 9638TIP3    H153109   2.568   4.620  11.193 -0.5065 -0.8789  0.6323
 9638TIP3    H253110   2.575   4.472  11.160 -0.9306 -0.5927 -0.8116
 9639TIP3   OH253111   6.276   6.835  11.335  0.1966 -0.3489  0.0054
 9639TIP3    H153112   6.286   6.740  11.327 -0.9202 -0.6366  1.5482
 9639TIP3    H253113   6.185   6.848  11.362  0.7954  1.0173  1.5729
 9640TIP3   OH253114   4.801   5.174  13.268  0.3010  0.1738 -0.5380
 9640TIP3    H153115   4.718   5.128  13.279 -0.3892  1.5541  0.1376
 9640TIP3    H253116   4.846   5.125  13.198 -0.9269 -0.7624 -0.7035
 9641TIP3   OH253117   4.649   6.999  10.623  0.4662 -0.2123 -0.1000
 9641TIP3    H153118   4.651   6.928  10.559  0.4714 -1.5626  1.3516
 9641TIP3    H253119   4.556   7.020  10.633  0.3099 -1.2281  0.7329
 9642TIP3   OH253120   0.244   3.207  11.883  0.1905  0.6886  0.6081
 9642TIP3    H153121   0.281   3.282  11.930 -1.9804  1.7157  0.8271
 9642TIP3    H253122   0.160   3.240  11.849  0.2469 -0.9686 -1.3131
 9643TIP3   OH253123   4.788   5.340  10.820 -1.1050 -0.2397 -0.1429
 9643TIP3    H153124   4.818   5.357  10.910 -2.3240 -0.0869  0.2509
 9643TIP3    H253125   4.776   5.428  10.783 -0.5449 -0.3031 -0.4892
 9644TIP3   OH253126   2.473   0.452  12.519  0.1837  0.2165  0.4247
 9644TIP3    H153127   2.438   0.540  12.534  0.7312  0.4975  0.0755
 9644TIP3    H253128   2.537   0.463  12.449  1.0091 -0.2868  1.0907
 9645TIP3   OH253129   4.906   0.865  11.639 -0.3274  0.2134  0.0850
 9645TIP3    H153130   4.996   0.866  11.671 -0.6214 -0.1834  0.9565
 9645TIP3    H253131   4.878   0.774  11.648  0.0736 -0.2916 -2.7985
 9646TIP3   OH253132   3.723   6.482  11.359 -0.3504  0.0964  0.1909
 9646TIP3    H153133   3.682   6.568  11.356  0.4494  0.4494 -1.1760
 9646TIP3    H253134   3.808   6.494  11.317  1.6833 -0.3654  3.7728
 9647TIP3   OH253135   7.393   1.670  10.982 -0.0160  0.5092  0.0258
 9647TIP3    H153136   7.461   1.682  10.916 -0.6833  1.6677 -0.4615
 9647TIP3    H253137   7.329   1.739  10.965 -2.0913 -1.4086 -0.4671
 9648TIP3   OH253138   7.965   3.165  11.073  0.3997 -0.1374  0.7738
 9648TIP3    H153139   8.057   3.176  11.098  0.0370  2.0259  1.4075
 9648TIP3    H253140   7.950   3.233  11.007 -0.5329 -1.0466  0.0253
 9649TIP3   OH253141   0.398   0.374  12.082  0.5799 -0.0347  0.7801
 9649TIP3    H153142   0.330   0.313  12.053  1.3566 -0.3968 -0.3692
 9649TIP3    H253143   0.410   0.433  12.007  2.3969 -0.7615  0.4536
 9650TIP3   OH253144   1.907   0.597  11.925  0.5298 -0.3186  0.1515
 9650TIP3    H153145   1.928   0.504  11.923 -0.7375 -0.6522  0.8045
 9650TIP3    H253146   1.817   0.601  11.892  0.5447  0.6556  0.2192
 9651TIP3   OH253147   1.905   6.780  10.923 -0.2253  0.9980 -0.4423
 9651TIP3    H153148   1.864   6.710  10.974 -0.5217  1.4510 -0.0490
 9651TIP3    H253149   1.991   6.746  10.899 -0.0444  0.8252  0.4494
 9652TIP3   OH253150   6.708   2.310  11.322  0.2612 -0.2085 -0.3379
 9652TIP3    H153151   6.687   2.376  11.389 -1.5554 -0.9151 -0.1525
 9652TIP3    H253152   6.769   2.355  11.263 -2.0181  2.2157 -1.0481
 9653TIP3   OH253153   3.815   8.426  12.434 -0.4650  0.1343 -0.1381
 9653TIP3    H153154   3.838   8.387  12.519 -1.9958  1.2768  0.8387
 9653TIP3    H253155   3.869   8.378  12.371  3.6505  1.7434  1.7760
 9654TIP3   OH253156   2.740   4.323  11.713 -0.3387 -0.9083 -0.2009
 9654TIP3    H153157   2.770   4.263  11.781  2.3479 -0.4051 -0.8349
 9654TIP3    H253158   2.647   4.335  11.731  0.1479 -1.1846  3.0470
 9655TIP3   OH253159   6.048   4.110  10.608  0.5282 -0.2136 -0.6598
 9655TIP3    H153160   6.125   4.086  10.659 -0.8034  1.0060  2.1700
 9655TIP3    H253161   5.980   4.050  10.638 -0.5403  1.1669 -0.2362
 9656TIP3   OH253162   3.992   0.583  11.001  0.3917  0.5861  0.1044
 9656TIP3    H153163   4.069   0.531  10.979 -0.2182 -1.1917  1.8248
 9656TIP3    H253164   4.026   0.657  11.051  1.0633  0.1124  0.3671
 9657TIP3   OH253165   2.555   4.897  12.500 -0.1229  0.2723 -0.3916
 9657TIP3    H153166   2.514   4.980  12.477  0.2136  1.2222  2.0602
 9657TIP3    H253167   2.490   4.830  12.477 -1.4199  1.4242 -0.1740
 9658TIP3   OH253168   6.179   5.163  11.994 -0.0631 -0.1845  0.6203
 9658TIP3    H153169   6.219   5.089  12.041 -0.9923 -0.8465  0.4011
 9658TIP3    H253170   6.100   5.183  12.043  0.5845  1.2083  1.1314
 9659TIP3   OH253171   6.902   7.332  11.938 -0.0934  0.3832  0.2577
 9659TIP3    H153172   6.858   7.283  11.869  0.5487 -1.2967  0.9823
 9659TIP3    H253173   6.994   7.335  11.911  0.2410 -0.6378  1.1738
 9660TIP3   OH253174   6.299   0.211  10.703  0.3909  0.7172  0.1316
 9660TIP3    H153175   6.232   0.184  10.766  0.7858 -1.0584 -0.1427
 9660TIP3    H253176   6.258   0.281  10.653 -1.3159 -0.3414 -0.0555
 9661TIP3   OH253177   4.253   3.090  10.558 -0.1374 -0.1156  0.7746
 9661TIP3    H153178   4.263   2.998  10.582 -1.9407 -0.4812  0.2785
 9661TIP3    H253179   4.323   3.135  10.605  0.6173 -1.6973  1.2267
 9662TIP3   OH253180   5.109   7.250  12.226  0.2655 -0.2642  0.4050
 9662TIP3    H153181   5.027   7.295  12.243  1.2719  1.5745  0.6026
 9662TIP3    H253182   5.176   7.305  12.267  1.8365 -0.4955 -1.6688
 9663TIP3   OH253183   3.724   3.791  10.492  0.0765  0.2909  0.4165
 9663TIP3    H153184   3.752   3.830  10.575  2.1347  1.4102 -0.6990
 9663TIP3    H253185   3.682   3.863  10.445  2.6182  0.9664 -1.0790
 9664TIP3   OH253186   0.180   2.309  12.807 -0.1839 -0.2787  0.0114
 9664TIP3    H153187   0.161   2.379  12.869  0.2343  0.9508 -1.2164
 9664TIP3    H253188   0.238   2.250  12.856 -0.5697  0.1947  1.0706
 9665TIP3   OH253189   5.070   6.870  10.227 -0.3528 -0.5905 -0.0861
 9665TIP3    H153190   5.130   6.796  10.237 -1.2481 -1.1458  1.6960
 9665TIP3    H253191   5.118   6.945  10.261  0.0661 -0.6303 -0.5930
 9666TIP3   OH253192   7.718   6.646  11.285 -0.7842  0.6948 -0.1499
 9666TIP3    H153193   7.648   6.651  11.351 -0.4240  1.1822  0.1994
 9666TIP3    H253194   7.677   6.675  11.204 -1.4132 -0.5361 -0.2983
 9667TIP3   OH253195   2.658   3.701  10.474  0.3435 -0.5028 -0.2276
 9667TIP3    H153196   2.664   3.792  10.444 -0.2284 -0.7485 -1.1342
 9667TIP3    H253197   2.631   3.652  10.396 -1.3461 -1.1551  0.7185
 9668TIP3   OH253198   1.989   4.185  11.791 -0.4284 -0.0041  0.1172
 9668TIP3    H153199   2.002   4.265  11.841  0.3725 -0.3204  0.4404
 9668TIP3    H253200   2.016   4.208  11.702 -2.8091  0.8484 -0.4594
 9669TIP3   OH253201   0.455   6.770  12.390 -0.3166  0.8226  0.1057
 9669TIP3    H153202   0.436   6.758  12.297 -0.0688  1.1091  0.0171
 9669TIP3    H253203   0.534   6.718  12.404 -0.8313  0.0936  0.3464
 9670TIP3   OH253204   1.314   0.149  11.697 -0.2090  0.3783 -0.4708
 9670TIP3    H153205   1.299   0.103  11.615  0.4768  0.7117 -0.7821
 9670TIP3    H253206   1.408   0.141  11.714 -0.2875  0.5885  0.1144
 9671TIP3   OH253207   6.040   2.742  10.740 -0.1083  0.2947  0.5989
 9671TIP3    H153208   6.094   2.771  10.666  1.0560  0.2951  1.4304
 9671TIP3    H253209   6.015   2.652  10.718  1.3590 -0.1874  0.8035
 9672TIP3   OH253210   3.340   3.941  12.793 -0.1674 -0.0736  0.2334
 9672TIP3    H153211   3.433   3.931  12.813 -0.0301  0.5075 -0.0776
 9672TIP3    H253212   3.330   3.902  12.706  0.1138  1.2292 -0.4199
 9673TIP3   OH253213   0.106   2.278  10.498 -0.5502 -0.3389  0.2128
 9673TIP3    H153214   0.141   2.205  10.447 -0.7401  0.5197 -1.1940
 9673TIP3    H253215   0.155   2.354  10.469 -0.0259  0.0662  2.0060
 9674TIP3   OH253216   7.864   1.499  11.585 -0.6153 -0.1954  0.1911
 9674TIP3    H153217   7.851   1.545  11.502  0.2950 -1.1729 -0.5169
 9674TIP3    H253218   7.958   1.503  11.601 -0.8412  0.4817  1.4924
 9675TIP3   OH253219   8.232   3.604  12.102 -0.0744  0.0513 -0.3412
 9675TIP3    H153220   8.275   3.554  12.032  0.2882  0.3159 -0.3067
 9675TIP3    H253221   8.204   3.685  12.060 -0.9144 -0.2847 -0.4665
 9676TIP3   OH253222   8.161   2.591  11.617  0.1103 -0.4437  0.5311
 9676TIP3    H153223   8.179   2.667  11.673  0.0200 -0.4328  0.5444
 9676TIP3    H253224   8.202   2.518  11.663  0.2142 -0.4005  0.5087
 9677TIP3   OH253225   0.248   4.856  12.125  0.2705 -0.3603  0.2062
 9677TIP3    H153226   0.207   4.928  12.076 -0.3915 -0.9565 -0.1415
 9677TIP3    H253227   0.283   4.897  12.204 -3.1325 -0.1174  1.7742
 9678TIP3   OH253228   4.817   2.456  11.591  0.2650  0.0565 -0.0390
 9678TIP3    H153229   4.901   2.430  11.553 -0.5666 -2.7364 -0.1640
 9678TIP3    H253230   4.807   2.401  11.669 -1.4365  0.3199 -0.0231
 9679TIP3   OH253231   2.660   0.822  12.157 -0.2137  0.3522 -0.1574
 9679TIP3    H153232   2.649   0.782  12.243 -0.1290 -0.1399 -0.3762
 9679TIP3    H253233   2.748   0.860  12.159 -0.9215  2.0632  0.6720
 9680TIP3   OH253234   5.950   6.434  10.946 -0.0923  0.1902  0.2546
 9680TIP3    H153235   6.022   6.392  10.899 -0.6456 -0.6445  0.1341
 9680TIP3    H253236   5.914   6.497  10.884  0.2286  0.2728  0.1475
 9681TIP3   OH253237   6.378   1.172  11.301 -0.6773  0.0810 -0.5289
 9681TIP3    H153238   6.294   1.152  11.259 -0.0113 -0.8552 -1.4881
 9681TIP3    H253239   6.354   1.215  11.383 -2.2399 -2.8482  0.7029
 9682TIP3   OH253240   5.708   2.300  11.113 -0.1027  0.4425  0.0797
 9682TIP3    H153241   5.663   2.219  11.090 -1.1387  1.1917 -0.6066
 9682TIP3    H253242   5.638   2.364  11.124  0.7806  1.7267 -1.3564
 9683TIP3   OH253243   1.466   5.246  10.612 -0.0754  0.2173 -0.1519
 9683TIP3    H153244   1.417   5.286  10.683 -1.1075 -2.5884  0.8632
 9683TIP3    H253245   1.400   5.217  10.550  0.6847  0.7609 -1.2502
 9684TIP3   OH253246   2.602   5.005  11.383 -0.3153  0.0459  0.5105
 9684TIP3    H153247   2.561   5.040  11.304  1.2774 -0.0696 -0.4094
 9684TIP3    H253248   2.609   4.911  11.366  0.3663  0.0729  0.6295
 9685TIP3   OH253249   6.759   8.234  10.807  0.1450  0.0646 -0.2048
 9685TIP3    H153250   6.676   8.237  10.853  0.1908  0.6184 -0.1556
 9685TIP3    H253251   6.779   8.325  10.787  1.7340  0.1413  1.5509
 9686TIP3   OH253252   3.932   8.259  12.251 -0.4199  0.0182  0.0462
 9686TIP3    H153253   3.890   8.176  12.271 -1.9499  0.8872  0.6140
 9686TIP3    H253254   3.944   8.258  12.156 -0.0405 -1.0105  0.0952
 9687TIP3   OH253255   5.989   7.513  12.182  0.0690  0.1831  0.4386
 9687TIP3    H153256   6.083   7.512  12.203  0.0712  0.0888  0.4275
 9687TIP3    H253257   5.946   7.490  12.264  0.0397  0.5295  0.5177
 9688TIP3   OH253258   1.116   1.399  10.847  0.0829 -0.1020 -0.2686
 9688TIP3    H153259   1.174   1.454  10.900 -2.4321  1.4981  1.0491
 9688TIP3    H253260   1.075   1.340  10.910 -1.8439  0.8088 -0.5882
 9689TIP3   OH253261   2.255   8.242  11.738  0.8414 -0.3024  0.3867
 9689TIP3    H153262   2.268   8.198  11.655 -0.3174  1.3933 -0.7576
 9689TIP3    H253263   2.170   8.285  11.730  1.1821  0.7983  2.0297
 9690TIP3   OH253264   3.760   4.609  12.155  0.4714  0.7343 -0.1253
 9690TIP3    H153265   3.774   4.595  12.061 -2.0945  0.8867 -0.5953
 9690TIP3    H253266   3.720   4.528  12.186  2.5197  0.1442  1.2017
 9691TIP3   OH253267   8.340   5.760  11.542  0.2164 -0.3941  0.1492
 9691TIP3    H153268   8.266   5.810  11.575  0.6707  0.7543 -0.4984
 9691TIP3    H253269   8.407   5.767  11.610  1.1228  1.8998 -0.8657
 9692TIP3   OH253270   6.238   5.894  10.448  0.5949  0.3084 -0.0618
 9692TIP3    H153271   6.273   5.983  10.457  0.0691  0.4739  0.4105
 9692TIP3    H253272   6.269   5.848  10.525 -0.3151  0.4932  0.4277
 9693TIP3   OH253273   4.067   4.257  11.780 -0.2821  0.2851 -0.4360
 9693TIP3    H153274   4.007   4.327  11.754  1.0967  1.2994 -0.9940
 9693TIP3    H253275   4.102   4.223  11.697  1.2982  0.9791 -0.0876
 9694TIP3   OH253276   0.788   6.206  11.150 -0.0893  0.9336 -0.2185
 9694TIP3    H153277   0.741   6.128  11.179  0.6178  1.5713  3.0603
 9694TIP3    H253278   0.725   6.277  11.159  0.3923  1.2643  0.7013
 9695TIP3   OH253279   3.855   2.334  11.824  0.6656 -0.0502  0.0669
 9695TIP3    H153280   3.875   2.351  11.916  1.0671 -0.5125  0.0661
 9695TIP3    H253281   3.920   2.384  11.775  0.8593 -0.3294  0.0412
 9696TIP3   OH253282   2.403   2.431  12.016  0.2203  0.0579 -0.6280
 9696TIP3    H153283   2.311   2.415  12.037  0.4653  0.2902  0.7079
 9696TIP3    H253284   2.443   2.344  12.016  0.3351  0.0866  0.5878
 9697TIP3   OH253285   7.075   3.282  10.138 -0.2025 -0.0099  0.1284
 9697TIP3    H153286   7.116   3.242  10.215  1.7105  0.3051 -0.6683
 9697TIP3    H253287   7.118   3.367  10.129 -0.5092  0.0322 -1.1895
 9698TIP3   OH253288   5.982   7.663  11.362 -0.2153  0.2635  0.2305
 9698TIP3    H153289   5.979   7.568  11.361  1.8843  0.1614 -0.8736
 9698TIP3    H253290   6.055   7.686  11.305  1.0986  2.4630  2.5902
 9699TIP3   OH253291   2.414   6.506  10.589 -0.0899 -0.4352  0.3259
 9699TIP3    H153292   2.442   6.591  10.624 -1.1663 -0.4813  1.3494
 9699TIP3    H253293   2.341   6.527  10.531  1.2883 -0.4280 -1.5008
 9700TIP3   OH253294   1.086   6.027  10.901 -0.2403  0.5498  0.7681
 9700TIP3    H153295   1.135   5.962  10.851  0.1388  1.0844  0.4231
 9700TIP3    H253296   1.036   6.075  10.835 -1.3506 -0.0759  1.1352
 9701TIP3   OH253297   1.901   6.455  11.916  0.5243 -0.0078  0.1706
 9701TIP3    H153298   1.974   6.512  11.939 -0.5649  1.1331  0.9769
 9701TIP3    H253299   1.891   6.464  11.822  0.6494  0.8018  0.2302
 9702TIP3   OH253300   3.493   7.177  11.039  0.1791 -0.0063 -0.2638
 9702TIP3    H153301   3.463   7.235  10.970  1.0810  0.2498 -0.4526
 9702TIP3    H253302   3.442   7.097  11.028 -0.7942  0.5965 -0.2450
 9703TIP3   OH253303   5.675   7.968  12.085 -0.3183 -0.2929 -0.6982
 9703TIP3    H153304   5.611   7.916  12.133 -0.7082  0.8959  0.1065
 9703TIP3    H253305   5.758   7.952  12.130 -1.0521  2.7280  2.1386
 9704TIP3   OH253306   1.092   0.262  12.367  0.1034 -0.5917  0.5541
 9704TIP3    H153307   1.109   0.195  12.301  1.7086 -0.8378  1.1686
 9704TIP3    H253308   1.007   0.298  12.343  0.8826 -0.2241 -2.0391
 9705TIP3   OH253309   3.182   0.600  11.251  0.2725 -0.7351 -0.3928
 9705TIP3    H153310   3.192   0.529  11.187 -0.3481 -1.6306  0.4756
 9705TIP3    H253311   3.088   0.603  11.267  0.2990  0.2873 -0.4000
 9706TIP3   OH253312   7.182   0.946  11.988 -0.5589  0.1898 -0.1459
 9706TIP3    H153313   7.274   0.937  11.963 -0.9084  1.2576 -1.9973
 9706TIP3    H253314   7.183   1.008  12.061  0.1346  0.9234 -0.7647
 9707TIP3   OH253315   1.159   2.506  12.056 -0.1963 -0.1206 -0.4307
 9707TIP3    H153316   1.249   2.502  12.087 -0.4053  1.3768  0.4794
 9707TIP3    H253317   1.108   2.460  12.123 -0.2553  0.1677 -0.2761
 9708TIP3   OH253318   7.849   3.824  11.348 -0.4015 -0.1638  0.2243
 9708TIP3    H153319   7.782   3.756  11.354 -0.0806 -0.7646 -2.0783
 9708TIP3    H253320   7.810   3.891  11.292  0.8332 -0.4922 -1.1069
 9709TIP3   OH253321   3.918   5.739  12.962 -0.0234 -0.0163  0.2264
 9709TIP3    H153322   3.912   5.793  12.884  1.2707  0.8077  0.6655
 9709TIP3    H253323   3.827   5.719  12.985 -0.4256 -0.0815 -1.3309
 9710TIP3   OH253324   5.324   4.580  12.268 -0.1747  0.2459 -0.1705
 9710TIP3    H153325   5.250   4.633  12.299 -0.3565  1.4321 -2.4039
 9710TIP3    H253326   5.304   4.491  12.299 -0.8752  1.0867  1.9882
 9711TIP3   OH253327   8.373   5.379  10.624  0.5787 -0.0732 -0.0835
 9711TIP3    H153328   8.441   5.412  10.683  0.3872 -2.2424  1.4823
 9711TIP3    H253329   8.303   5.351  10.682 -0.9103  0.4296 -1.5648
 9712TIP3   OH253330   3.318   6.723  10.483  0.3079 -0.4560 -0.1011
 9712TIP3    H153331   3.260   6.799  10.491 -2.4067 -2.3550 -0.2823
 9712TIP3    H253332   3.302   6.689  10.395 -0.5370 -2.6598  0.8263
 9713TIP3   OH253333   7.852   3.446  11.194 -0.5514  0.3902 -0.4004
 9713TIP3    H153334   7.825   3.434  11.104  0.2665 -0.0311 -0.5993
 9713TIP3    H253335   7.829   3.364  11.238  1.8099 -0.6370 -0.9456
 9714TIP3   OH253336   2.419   3.325  11.727 -0.4657  0.1216 -0.0896
 9714TIP3    H153337   2.458   3.258  11.783 -0.8749  0.0423  0.1049
 9714TIP3    H253338   2.361   3.374  11.785 -0.3032  0.5352 -0.2701
 9715TIP3   OH253339   0.117   4.670  10.687  0.2435  0.1415 -0.0764
 9715TIP3    H153340   0.065   4.688  10.766  1.7480 -0.4183  1.1070
 9715TIP3    H253341   0.178   4.744  10.682  0.6938 -0.2375 -0.2336
 9716TIP3   OH253342   7.253   8.150  11.514 -0.0906 -0.3466  0.8492
 9716TIP3    H153343   7.181   8.122  11.457 -0.4899 -1.6470  1.9347
 9716TIP3    H253344   7.331   8.145  11.459 -0.5012 -1.3224  0.3324
 9717TIP3   OH253345   1.669   7.105  11.968 -0.4532  0.9119 -0.1987
 9717TIP3    H153346   1.701   7.070  11.884 -0.4822 -0.2672  0.2620
 9717TIP3    H253347   1.658   7.028  12.023  0.1692  1.7208  1.1086
 9718TIP3   OH253348   4.743   4.686  12.013 -0.0903 -0.3141 -0.1653
 9718TIP3    H153349   4.816   4.732  12.056 -1.2300 -0.4229  1.9866
 9718TIP3    H253350   4.705   4.632  12.082 -2.5219  0.1186 -1.0904
 9719TIP3   OH253351   0.418   7.776  11.940 -0.1630 -0.0075 -0.3423
 9719TIP3    H153352   0.504   7.777  11.981 -0.0879 -0.7006 -0.4702
 9719TIP3    H253353   0.431   7.815  11.854  0.1239 -0.5181 -0.5371
 9720TIP3   OH253354   8.430   6.815  12.490  0.6931 -0.4354 -0.6025
 9720TIP3    H153355   8.447   6.899  12.447  0.1760  0.9347  1.6695
 9720TIP3    H253356   8.507   6.800  12.545 -0.6764  0.4608  1.7198
 9721TIP3   OH253357   4.304   4.501  12.023  0.2864  0.0522 -0.0727
 9721TIP3    H153358   4.384   4.464  12.059 -0.9034 -1.0827  1.6002
 9721TIP3    H253359   4.320   4.509  11.929  1.5313 -2.3902 -0.1344
 9722TIP3   OH253360   7.663   0.663  12.391 -0.0659 -0.5577  0.1990
 9722TIP3    H153361   7.586   0.713  12.418  0.3649  0.4750 -0.4009
 9722TIP3    H253362   7.687   0.611  12.467  0.2520  1.1723  1.3284
 9723TIP3   OH253363   1.851   4.234  12.090 -0.4988 -0.0401 -0.0943
 9723TIP3    H153364   1.879   4.161  12.145 -0.4474  0.7693  0.9936
 9723TIP3    H253365   1.926   4.294  12.089 -0.7515  0.2797 -0.4674
 9724TIP3   OH253366   3.150   5.868  11.386  0.1954 -0.6355  0.1197
 9724TIP3    H153367   3.059   5.846  11.408 -0.3588 -0.6879 -1.9824
 9724TIP3    H253368   3.201   5.791  11.413 -0.6506 -1.3640 -0.3062
 9725TIP3   OH253369   6.348   6.518  10.776  0.2050 -0.6890  0.4918
 9725TIP3    H153370   6.293   6.441  10.786  3.3389 -3.1229  0.4891
 9725TIP3    H253371   6.429   6.486  10.736  0.7737  3.0574 -1.9058
 9726TIP3   OH253372   8.045   2.977  11.451  0.3209 -0.5295  0.0785
 9726TIP3    H153373   8.073   3.064  11.421  1.9259 -1.5349 -1.5282
 9726TIP3    H253374   8.050   2.982  11.546  1.9040  0.7073 -0.0312
 9727TIP3   OH253375   7.820   1.525  10.745  0.4097 -0.2316  0.4862
 9727TIP3    H153376   7.762   1.490  10.813  1.1489  0.7019  1.6278
 9727TIP3    H253377   7.865   1.448  10.710 -0.3425 -0.7804  0.6815
 9728TIP3   OH253378   5.884   0.816  10.810 -0.0352 -0.1875  0.1604
 9728TIP3    H153379   5.855   0.904  10.835 -0.0834 -0.1997  0.1476
 9728TIP3    H253380   5.939   0.830  10.733 -2.0691 -0.3798 -1.4266
 9729TIP3   OH253381   0.794   3.002  11.157 -0.2689 -0.5048  0.0014
 9729TIP3    H153382   0.880   3.036  11.181 -0.1885 -1.2224  0.7959
 9729TIP3    H253383   0.801   2.983  11.064 -0.0668  0.8691 -0.2868
 9730TIP3   OH253384   4.892   5.455  11.067 -0.1639 -0.2991  0.0941
 9730TIP3    H153385   4.984   5.434  11.084 -0.3479 -0.6265  0.7192
 9730TIP3    H253386   4.895   5.531  11.010  0.4922  0.4699  1.1256
 9731TIP3   OH253387   5.983   4.980  11.735  0.2049 -0.5801  0.2312
 9731TIP3    H153388   6.061   4.956  11.785 -0.2339 -0.3414  1.0348
 9731TIP3    H253389   6.013   5.051  11.678  0.6158 -0.6005  0.4120
 9732TIP3   OH253390   7.875   3.265  10.467  0.0503 -0.5368 -0.5169
 9732TIP3    H153391   7.855   3.176  10.438 -1.3280 -0.6292  0.5915
 9732TIP3    H253392   7.865   3.319  10.389  3.0845 -1.5495 -1.7768
 9733TIP3   OH253393   2.718   1.773  11.801  0.3642 -0.0724  0.4269
 9733TIP3    H153394   2.717   1.710  11.730 -1.2955  1.5295 -1.0728
 9733TIP3    H253395   2.643   1.830  11.784  2.3000  2.9393  1.0742
 9734TIP3   OH253396   3.762   2.032  10.651  0.8395  0.3796 -0.1584
 9734TIP3    H153397   3.688   1.983  10.688  1.1293  0.7879  0.9890
 9734TIP3    H253398   3.721   2.090  10.587  0.3536 -0.4860 -0.6600
 9735TIP3   OH253399   2.188   1.456  12.746 -0.3882  0.3593 -0.0992
 9735TIP3    H153400   2.278   1.473  12.719 -1.0626  0.4738 -2.4464
 9735TIP3    H253401   2.164   1.375  12.702 -1.3908  0.2167  0.6619
 9736TIP3   OH253402   4.942   4.463  12.696 -0.2843 -0.1939  0.6762
 9736TIP3    H153403   4.866   4.511  12.663 -0.4045 -1.1121 -0.4159
 9736TIP3    H253404   5.003   4.532  12.724 -0.3165  0.6187 -1.1415
 9737TIP3   OH253405   5.249   0.739  11.052 -0.0412  0.5578 -0.8598
 9737TIP3    H153406   5.220   0.685  10.978 -0.6148  0.2719 -0.4297
 9737TIP3    H253407   5.345   0.735  11.048 -0.0672  0.5897 -1.6197
 9738TIP3   OH253408   1.261   8.080  11.077 -0.1417 -0.0297 -0.2497
 9738TIP3    H153409   1.266   7.989  11.104 -0.5112  0.6661  2.4510
 9738TIP3    H253410   1.349   8.100  11.043  0.6945 -0.7723  1.3869
 9739TIP3   OH253411   2.990   4.091  10.674  0.1839 -0.1903 -0.0626
 9739TIP3    H153412   2.943   4.065  10.595  0.1058  0.1220 -0.1188
 9739TIP3    H253413   3.030   4.175  10.651 -0.0771  0.0422  0.3241
 9740TIP3   OH253414   3.645   5.810  12.798 -0.2264  0.2990  0.0694
 9740TIP3    H153415   3.687   5.749  12.738 -0.2734 -1.1797  1.4640
 9740TIP3    H253416   3.670   5.779  12.885  0.0071  2.4916  0.8429
 9741TIP3   OH253417   0.063   4.186  10.882  0.6769 -0.1679 -0.2246
 9741TIP3    H153418   0.100   4.142  10.959  1.8579  0.7016 -0.2700
 9741TIP3    H253419   0.131   4.247  10.854 -0.2308  0.4220 -1.2253
 9742TIP3   OH253420   3.444   7.973  10.784 -0.0934 -0.4952  0.2227
 9742TIP3    H153421   3.383   7.952  10.713  1.5422  1.1611 -1.8361
 9742TIP3    H253422   3.438   8.069  10.792  0.7921 -0.5237  1.3414
 9743TIP3   OH253423   1.325   5.554  11.825 -0.6282  0.0190  0.3207
 9743TIP3    H153424   1.239   5.589  11.803 -1.0491 -0.7387  0.7176
 9743TIP3    H253425   1.310   5.461  11.843  0.3870 -0.2875 -0.2727
 9744TIP3   OH253426   2.413   5.956  10.544  0.0633  0.0509 -0.1783
 9744TIP3    H153427   2.352   6.024  10.515 -1.3028 -1.2469 -0.5070
 9744TIP3    H253428   2.374   5.875  10.511  1.5797 -0.9002  0.3107
 9745TIP3   OH253429   6.952   4.294  12.804  0.9131 -0.1497 -0.0386
 9745TIP3    H153430   7.003   4.218  12.776  2.2018  1.1298 -1.3349
 9745TIP3    H253431   6.935   4.343  12.723  1.1889  1.5649  0.8902
 9746TIP3   OH253432   6.992   7.359  11.244 -0.0752 -0.2404 -0.2844
 9746TIP3    H153433   7.001   7.323  11.156  0.4411  0.6287 -0.5943
 9746TIP3    H253434   7.081   7.368  11.276 -0.2640 -0.7688  0.4333
 9747TIP3   OH253435   4.261   6.700  11.558 -0.3240  0.1725  0.4357
 9747TIP3    H153436   4.287   6.771  11.500 -0.6595  0.4966  0.6759
 9747TIP3    H253437   4.171   6.679  11.531 -0.5297  0.4155  0.9288
 9748TIP3   OH253438   3.415   7.879  12.301  0.0165 -0.1925  0.4656
 9748TIP3    H153439   3.484   7.902  12.364 -0.8026  4.1829  0.0982
 9748TIP3    H253440   3.335   7.878  12.353 -0.3829  1.2459 -0.0798
 9749TIP3   OH253441   1.282   1.422  11.886 -0.4744 -0.2150  0.0114
 9749TIP3    H153442   1.237   1.506  11.892  0.5130  0.2213  2.5670
 9749TIP3    H253443   1.326   1.412  11.971  0.5105 -2.7103 -0.6991
 9750TIP3   OH253444   5.773   3.250  12.825 -0.3893 -0.2661  0.5644
 9750TIP3    H153445   5.857   3.222  12.860 -0.1597 -0.9707 -0.4926
 9750TIP3    H253446   5.794   3.289  12.740 -1.1541 -0.7664  0.1334
 9751TIP3   OH253447   7.185   5.139  11.657 -0.4134  0.2672  0.2817
 9751TIP3    H153448   7.091   5.131  11.642 -0.5876  0.7762  1.0815
 9751TIP3    H253449   7.193   5.193  11.736  0.5635  1.5505 -0.6386
 9752TIP3   OH253450   2.103   4.850  10.825  0.1640 -0.1969  0.7724
 9752TIP3    H153451   2.191   4.886  10.812 -0.0849 -0.2183 -1.3261
 9752TIP3    H253452   2.110   4.759  10.798 -1.0960  0.5347 -2.4519
 9753TIP3   OH253453   7.446   7.453  11.153 -0.1790 -0.2909 -0.2302
 9753TIP3    H153454   7.540   7.462  11.169  0.2350 -0.6458 -2.1554
 9753TIP3    H253455   7.430   7.510  11.077 -1.0064 -2.0744 -1.4603
 9754TIP3   OH253456   3.564   2.792  11.349  0.8126 -0.1933  0.0799
 9754TIP3    H153457   3.574   2.874  11.398  1.5376 -0.4223  0.3274
 9754TIP3    H253458   3.580   2.724  11.414 -0.3302 -0.5570  0.0075
 9755TIP3   OH253459   5.842   7.877  12.359  0.0546  0.4019 -0.4033
 9755TIP3    H153460   5.858   7.967  12.385 -0.3792  0.0334  1.2396
 9755TIP3    H253461   5.924   7.832  12.376 -0.7074 -0.1833  2.0367
 9756TIP3   OH253462   0.899   2.838  10.722  0.4600  0.9532 -0.3319
 9756TIP3    H153463   0.937   2.825  10.809 -1.7770  1.5229  0.8253
 9756TIP3    H253464   0.933   2.766  10.670  0.1735 -0.7253  1.6593
 9757TIP3   OH253465   0.281   4.547  12.578 -0.3293  0.2149  0.2002
 9757TIP3    H153466   0.204   4.503  12.544 -0.4473  0.0768  0.6390
 9757TIP3    H253467   0.253   4.637  12.594 -0.6826 -0.0854  1.3045
 9758TIP3   OH253468   2.318   8.342  10.594  0.3678  0.1180  0.0905
 9758TIP3    H153469   2.267   8.262  10.582  1.6270 -1.0840  2.1543
 9758TIP3    H253470   2.378   8.343  10.519 -0.0480 -0.5630 -0.2670
 9759TIP3   OH253471   2.909   0.657  11.361  0.4249 -0.0333 -0.5474
 9759TIP3    H153472   2.848   0.729  11.382  0.1513 -0.8121  1.6553
 9759TIP3    H253473   2.859   0.598  11.306  0.2636  0.8830 -1.4052
 9760TIP3   OH253474   2.642   4.193  12.645  0.3171  0.3827  0.2725
 9760TIP3    H153475   2.730   4.199  12.608  0.4748  3.7046  0.8192
 9760TIP3    H253476   2.654   4.212  12.738 -0.8920 -0.1088  0.5495
 9761TIP3   OH253477   6.772   0.729  11.236 -0.3250  0.5500  0.4644
 9761TIP3    H153478   6.750   0.699  11.325  0.8565  0.6940  0.8174
 9761TIP3    H253479   6.696   0.781  11.209 -0.5923  0.7131  1.4892
 9762TIP3   OH253480   8.129   2.455  11.123 -0.3157 -0.5328 -0.3780
 9762TIP3    H153481   8.215   2.468  11.163  0.6768 -0.3997 -2.4162
 9762TIP3    H253482   8.074   2.424  11.195  1.1917  0.2156  1.1849
 9763TIP3   OH253483   8.154   1.047  11.717  0.4092 -0.3399  0.1105
 9763TIP3    H153484   8.228   1.046  11.657 -0.2894 -0.4932 -0.7744
 9763TIP3    H253485   8.095   0.979  11.682 -1.4494  1.6731 -0.8929
 9764TIP3   OH253486   5.582   1.785  12.013  0.9434  0.4019 -0.8843
 9764TIP3    H153487   5.642   1.725  11.969 -0.0912 -0.3719 -1.2930
 9764TIP3    H253488   5.508   1.794  11.952 -0.1486 -0.0494  0.3171
 9765TIP3   OH253489   7.688   2.616  11.771 -0.4056  0.4287  0.2863
 9765TIP3    H153490   7.625   2.584  11.706  0.8697  2.0951 -1.9335
 9765TIP3    H253491   7.748   2.543  11.784 -0.0600  0.3992 -1.2927
 9766TIP3   OH253492   2.493   3.987  10.698  0.0980  0.2884  0.4410
 9766TIP3    H153493   2.409   4.026  10.721 -0.6543  0.1980 -1.8264
 9766TIP3    H253494   2.510   3.923  10.766 -1.7160  0.2728  0.9158
 9767TIP3   OH253495   0.706   7.904  12.435 -0.3583  0.5265 -0.4075
 9767TIP3    H153496   0.714   7.999  12.446 -0.4254  0.7562 -2.1115
 9767TIP3    H253497   0.794   7.875  12.413 -0.7003  0.4961 -1.8141
 9768TIP3   OH253498   5.390   2.031  11.384  0.2066  0.3732  0.0731
 9768TIP3    H153499   5.298   2.032  11.357  0.2008 -0.3603  0.0460
 9768TIP3    H253500   5.420   2.121  11.369 -0.4856  0.6071  0.0241
 9769TIP3   OH253501   1.006   2.221  11.690 -0.2192  0.1080  0.1583
 9769TIP3    H153502   0.993   2.137  11.647  1.7558 -0.9301  1.4840
 9769TIP3    H253503   0.961   2.213  11.774  0.6255  0.0778  0.6152
 9770TIP3   OH253504   3.035   7.083  11.332 -0.5094  1.2249 -0.3506
 9770TIP3    H153505   2.940   7.072  11.339 -0.6107  1.7576 -0.7802
 9770TIP3    H253506   3.052   7.084  11.238  0.1464 -0.5848 -0.2730
 9771TIP3   OH253507   3.577   3.453  12.131 -0.0758 -0.8219  0.3209
 9771TIP3    H153508   3.549   3.482  12.044  1.8236  0.5688  0.1090
 9771TIP3    H253509   3.499   3.463  12.186 -1.2936 -1.6607 -1.1708
 9772TIP3   OH253510   3.205   7.878  11.977 -0.2898 -0.0753 -0.0801
 9772TIP3    H153511   3.290   7.862  11.935 -0.5495 -1.3134 -0.1981
 9772TIP3    H253512   3.215   7.961  12.023  0.9434 -0.1431 -0.2000
 9773TIP3   OH253513   6.005   6.808  11.665 -0.2422 -0.4532  0.4911
 9773TIP3    H153514   6.095   6.822  11.695 -0.3719  2.5038 -0.1965
 9773TIP3    H253515   6.013   6.790  11.571 -0.3630  0.0497  0.3808
 9774TIP3   OH253516   2.075   7.943  10.793 -0.1747 -0.4597 -0.0389
 9774TIP3    H153517   2.143   7.889  10.833  1.2529  0.3748 -1.2439
 9774TIP3    H253518   2.063   8.016  10.854  0.0321 -0.6112  0.1838
 9775TIP3   OH253519   3.129   3.224  11.704  0.1008 -0.0010 -0.0341
 9775TIP3    H153520   3.044   3.222  11.747 -0.1154 -1.8803 -0.4529
 9775TIP3    H253521   3.109   3.222  11.610  0.5948  0.9055 -0.1628
 9776TIP3   OH253522   6.316   1.494  11.428 -0.0575 -0.2080  0.2828
 9776TIP3    H153523   6.239   1.531  11.470 -1.6724 -1.2484 -1.6020
 9776TIP3    H253524   6.342   1.422  11.485  0.1884  0.7744  1.4593
 9777TIP3   OH253525   7.723   2.912  12.662  0.4855  0.5428 -0.2869
 9777TIP3    H153526   7.641   2.941  12.700 -0.0752  0.8014 -1.6250
 9777TIP3    H253527   7.700   2.833  12.613  1.3030 -0.1424  0.3924
 9778TIP3   OH253528   6.434   7.475  10.746 -0.6461 -0.9393  0.4726
 9778TIP3    H153529   6.382   7.441  10.673 -0.6954 -0.6060  0.3499
 9778TIP3    H253530   6.524   7.472  10.713 -0.7919  0.5374 -0.1533
 9779TIP3   OH253531   1.009   7.309  10.770  0.0363 -0.1052 -0.3579
 9779TIP3    H153532   0.961   7.371  10.714 -1.5068 -0.6666  0.2912
 9779TIP3    H253533   1.016   7.230  10.716  3.3115  0.9519 -1.7768
 9780TIP3   OH253534   7.677   6.812  11.726  0.6229  0.3176 -0.3556
 9780TIP3    H153535   7.714   6.813  11.638  0.9890 -0.4309 -0.2214
 9780TIP3    H253536   7.678   6.720  11.751  0.2520  0.4902  0.3220
 9781TIP3   OH253537   1.968   1.545  11.572  0.1644  0.5273  0.1512
 9781TIP3    H153538   1.924   1.460  11.584  0.0763  0.5079 -0.2755
 9781TIP3    H253539   1.973   1.555  11.477  2.5482 -0.2179  0.1431
 9782TIP3   OH253540   6.931   1.000  10.836  0.7585  0.2355 -0.3925
 9782TIP3    H153541   6.949   1.037  10.923  0.8055  1.2914 -0.8396
 9782TIP3    H253542   6.853   0.947  10.849  0.7221  0.4381  0.2873
 9783TIP3   OH253543   5.076   3.614  11.147 -0.0807 -0.0823  0.0500
 9783TIP3    H153544   5.160   3.595  11.105  0.3022 -3.5382  2.0324
 9783TIP3    H253545   5.096   3.624  11.240 -1.7866 -0.2824  0.4759
 9784TIP3   OH253546   5.088   4.447  11.012 -0.2061  0.1837 -0.1535
 9784TIP3    H153547   5.056   4.536  11.029 -1.3513 -0.3891  0.8368
 9784TIP3    H253548   5.149   4.430  11.084 -1.4986 -0.5226  0.8306
 9785TIP3   OH253549   5.200   6.969  11.461  0.0129 -0.2744 -0.2488
 9785TIP3    H153550   5.164   6.971  11.372 -0.9874  1.3018  0.1504
 9785TIP3    H253551   5.124   6.954  11.517  0.2835  0.8561  0.4581
 9786TIP3   OH253552   6.473   6.505  12.449  0.0482  0.3158 -0.1739
 9786TIP3    H153553   6.513   6.425  12.481  0.2786 -0.2953 -1.8874
 9786TIP3    H253554   6.547   6.563  12.430  0.0144  0.1124 -0.9756
 9787TIP3   OH253555   6.500   6.021  10.696  0.3531 -0.4772 -0.3061
 9787TIP3    H153556   6.582   5.974  10.686 -0.2330 -1.6526  0.1679
 9787TIP3    H253557   6.436   5.954  10.721 -0.2641  0.7225  1.6500
 9788TIP3   OH253558   0.472   7.110  12.219 -0.5598 -0.2439 -0.2611
 9788TIP3    H153559   0.422   7.041  12.173  1.9094 -0.5453 -2.7812
 9788TIP3    H253560   0.447   7.191  12.174 -1.6555  0.2191  1.1118
 9789TIP3   OH253561   6.498   7.466  11.824  0.2073 -0.3717  0.3617
 9789TIP3    H153562   6.571   7.527  11.823  0.8833 -1.1653 -0.7851
 9789TIP3    H253563   6.420   7.521  11.816  0.7582  0.3834  0.1197
 9790TIP3   OH253564   8.194   7.936  11.775  0.7431  0.0314  1.0413
 9790TIP3    H153565   8.148   7.889  11.706  0.5872  1.8019 -0.1348
 9790TIP3    H253566   8.144   7.915  11.855  0.2321 -1.1244  0.4437
 9791TIP3   OH253567   4.913   4.011  11.900 -0.8422  0.3286  0.7730
 9791TIP3    H153568   4.992   3.961  11.919 -0.4857  0.6165  0.0727
 9791TIP3    H253569   4.927   4.046  11.812 -1.3544  1.1428  1.0038
 9792TIP3   OH253570   6.379   0.350  11.798  0.1139 -0.3948  0.0576
 9792TIP3    H153571   6.388   0.307  11.883 -0.7443 -0.1809  0.2749
 9792TIP3    H253572   6.459   0.402  11.789 -0.6850  1.3189  1.7718
 9793TIP3   OH253573   8.004   7.960  12.028  0.0119  0.0243  0.2821
 9793TIP3    H153574   7.918   7.921  12.044 -0.0293 -1.7899 -3.2399
 9793TIP3    H253575   8.063   7.914  12.088 -0.8328 -2.1903 -0.4619
 9794TIP3   OH253576   6.970   4.417  10.865 -0.0945 -0.7451 -0.2221
 9794TIP3    H153577   6.973   4.490  10.927  0.7570 -0.4211 -0.6302
 9794TIP3    H253578   7.056   4.418  10.823 -0.2247 -1.7263 -0.5325
 9795TIP3   OH253579   0.965   4.778  12.592  0.0698  0.1739 -0.5842
 9795TIP3    H153580   0.896   4.748  12.651  1.5294 -1.7592  0.2656
 9795TIP3    H253581   0.950   4.872  12.583 -0.6124  0.4412  2.3462
 9796TIP3   OH253582   3.029   2.299  11.403  0.0569  0.0635 -0.1552
 9796TIP3    H153583   2.986   2.214  11.412  0.0578  0.1699  0.9625
 9796TIP3    H253584   2.974   2.348  11.342 -0.8563 -0.1461  0.4901
 9797TIP3   OH253585   6.960   2.164  11.288  0.3433 -0.3682 -0.5590
 9797TIP3    H153586   6.871   2.188  11.312  0.4513  0.0338 -0.5426
 9797TIP3    H253587   6.981   2.090  11.345 -0.1817 -0.8511 -0.9753
 9798TIP3   OH253588   2.982   2.085  12.119 -0.4593  0.2194  0.0894
 9798TIP3    H153589   2.943   2.006  12.082 -1.1450  0.7212 -0.2758
 9798TIP3    H253590   3.061   2.054  12.165  1.2361 -0.2675 -2.9216
 9799TIP3   OH253591   6.721   5.251  12.143  0.4927  0.7202 -0.5535
 9799TIP3    H153592   6.768   5.198  12.208  0.5197  1.1826 -0.1894
 9799TIP3    H253593   6.634   5.263  12.181  0.3325  0.5379 -0.8585
 9800TIP3   OH253594   0.621   5.450  10.341 -0.5690  0.3622  0.3356
 9800TIP3    H153595   0.707   5.411  10.355 -0.9781 -1.2528 -1.1966
 9800TIP3    H253596   0.559   5.379  10.361 -1.3574  0.2374 -2.1771
 9801TIP3   OH253597   4.541   2.318  11.224  0.7373 -0.5813 -0.8416
 9801TIP3    H153598   4.559   2.345  11.314  2.9776 -0.7612 -1.1920
 9801TIP3    H253599   4.572   2.391  11.170  1.1367 -1.2525 -1.5404
 9802TIP3   OH253600   0.669   6.895  10.978 -0.7461  0.1769  0.4256
 9802TIP3    H153601   0.686   6.896  11.073 -1.6173  2.1064  0.6170
 9802TIP3    H253602   0.593   6.952  10.968 -0.6024  0.0740 -1.4616
 9803TIP3   OH253603   3.476   4.737  11.460 -0.7051 -0.1537 -0.7214
 9803TIP3    H153604   3.542   4.800  11.430  0.9597 -1.8883 -0.8438
 9803TIP3    H253605   3.521   4.686  11.528 -1.6192 -1.9668 -1.4360
 9804TIP3   OH253606   1.900   4.775  12.610  0.3204  0.3566  0.0675
 9804TIP3    H153607   1.897   4.869  12.623  1.4525  0.2506  1.2796
 9804TIP3    H253608   1.966   4.762  12.542  1.0848  0.3813  0.7891
 9805TIP3   OH253609   5.177   7.102  10.333  0.9996  0.3284 -0.1592
 9805TIP3    H153610   5.194   7.159  10.257  1.0435  1.6907  0.8275
 9805TIP3    H253611   5.114   7.151  10.385  1.0588 -0.5410  0.7453
 9806TIP3   OH253612   8.055   3.852  11.548  0.3411 -0.4831 -0.0331
 9806TIP3    H153613   8.065   3.769  11.595 -0.2383 -1.1554 -1.0756
 9806TIP3    H253614   7.962   3.858  11.527  0.6379 -0.3631 -1.3880
 9807TIP3   OH253615   3.598   0.190  11.778 -0.8798 -0.3543  0.1776
 9807TIP3    H153616   3.513   0.234  11.769 -2.4668 -3.0001  1.1689
 9807TIP3    H253617   3.614   0.150  11.693  0.0229  1.0871 -0.3758
 9808TIP3   OH253618   6.442   3.209  11.260 -0.0425  0.0231 -0.4422
 9808TIP3    H153619   6.529   3.246  11.274 -1.0286  2.5529 -0.2979
 9808TIP3    H253620   6.408   3.256  11.184 -0.4900 -2.5651 -1.9647
 9809TIP3   OH253621   3.249   4.340  10.848  0.5364 -0.2285  0.2720
 9809TIP3    H153622   3.171   4.391  10.869  1.4113  1.1057  0.4145
 9809TIP3    H253623   3.227   4.293  10.768 -0.3170  0.3345  0.1699
 9810TIP3   OH253624   7.459   6.181  11.219 -0.0480  0.2178  0.2661
 9810TIP3    H153625   7.420   6.168  11.306  0.8067 -0.9280  0.5055
 9810TIP3    H253626   7.553   6.189  11.236  0.0558  0.7105 -0.4994
 9811TIP3   OH253627   6.382   4.090  11.627  0.0583  0.3297 -0.1466
 9811TIP3    H153628   6.465   4.124  11.592  0.2601  1.1238  1.0480
 9811TIP3    H253629   6.324   4.085  11.551  0.6170  1.5769 -0.6867
 9812TIP3   OH253630   6.535   5.065  11.349 -0.0957  0.4666  0.4690
 9812TIP3    H153631   6.472   5.068  11.421 -1.0959 -1.1773 -0.2837
 9812TIP3    H253632   6.579   5.150  11.353 -0.6406  0.7216  2.5293
 9813TIP3   OH253633   1.000   3.823  12.704  0.2439 -0.7312  0.0962
 9813TIP3    H153634   0.955   3.739  12.705 -0.5503 -0.3174 -0.2983
 9813TIP3    H253635   1.090   3.801  12.679 -0.6087 -1.1990 -3.1178
 9814TIP3   OH253636   2.269   2.493  12.645  0.3981  0.0974  0.0474
 9814TIP3    H153637   2.324   2.554  12.595  1.2683  0.1717  1.0512
 9814TIP3    H253638   2.309   2.407  12.631  1.3702  0.2731  1.5107
 9815TIP3   OH253639   6.961   5.470  12.275 -0.1649 -0.8920  0.4313
 9815TIP3    H153640   7.000   5.544  12.322  0.8697 -0.7804 -0.5592
 9815TIP3    H253641   6.883   5.507  12.233  1.1726  0.0777 -1.3330
 9816TIP3   OH253642   7.596   8.086  11.906  0.7274 -0.4789 -0.2200
 9816TIP3    H153643   7.634   8.054  11.824  0.5905  0.1492 -0.5325
 9816TIP3    H253644   7.527   8.022  11.927  0.5472 -0.4656 -0.7664
 9817TIP3   OH253645   5.137   5.687  12.598 -0.2720 -0.1762 -0.1899
 9817TIP3    H153646   5.168   5.716  12.684  1.4605 -1.1475 -0.4303
 9817TIP3    H253647   5.193   5.734  12.536  1.1100 -2.2713 -0.6339
 9818TIP3   OH253648   1.700   6.999  11.465  0.4307 -0.3337 -0.3460
 9818TIP3    H153649   1.784   7.039  11.486 -0.1169 -0.0501  1.4153
 9818TIP3    H253650   1.636   7.070  11.472 -0.4280 -1.2160  1.9463
 9819TIP3   OH253651   1.764   4.045  11.148 -0.3759 -0.3697 -0.4048
 9819TIP3    H153652   1.698   4.025  11.214 -0.9391 -0.2425 -0.9144
 9819TIP3    H253653   1.715   4.052  11.066 -0.2807  2.9638 -0.3526
 9820TIP3   OH253654   4.703   3.934  10.748 -0.0783  0.0042  0.0348
 9820TIP3    H153655   4.779   3.876  10.754 -0.1239  0.0156  0.8761
 9820TIP3    H253656   4.642   3.888  10.691  0.6975  0.1594 -0.9408
 9821TIP3   OH253657   5.147   3.106  12.094 -0.1816 -0.1255 -0.5133
 9821TIP3    H153658   5.227   3.060  12.119 -0.7470 -1.2551 -0.6775
 9821TIP3    H253659   5.121   3.066  12.011  0.7136  2.3647 -2.0712
 9822TIP3   OH253660   4.622   6.343  12.040  0.0447  0.2888 -0.1553
 9822TIP3    H153661   4.677   6.417  12.019  1.7605 -0.8639  0.0585
 9822TIP3    H253662   4.666   6.267  12.001 -0.0828 -1.0114  2.0259
 9823TIP3   OH253663   5.766   6.115  10.460  0.0582  0.0039  0.0060
 9823TIP3    H153664   5.848   6.162  10.473  1.8716 -3.3149  2.1323
 9823TIP3    H253665   5.719   6.125  10.543  1.0858 -2.6689  1.0450
 9824TIP3   OH253666   6.719   4.804  11.664  0.1852 -0.5316 -0.1766
 9824TIP3    H153667   6.745   4.850  11.584 -0.5064  0.1364 -0.0311
 9824TIP3    H253668   6.630   4.773  11.645 -0.5388  0.8296  0.7981
 9825TIP3   OH253669   4.838   0.178  12.734 -0.3544  0.1306 -0.2077
 9825TIP3    H153670   4.770   0.212  12.793  0.1301 -1.7135  1.5253
 9825TIP3    H253671   4.921   0.203  12.775  0.0005 -2.1893  0.6247
 9826TIP3   OH253672   6.024   2.971  11.880  0.4298 -0.4806  0.4859
 9826TIP3    H153673   6.092   3.022  11.835 -0.3103  1.0706  1.0554
 9826TIP3    H253674   6.007   3.020  11.960 -0.3320 -1.6454  1.0549
 9827TIP3   OH253675   4.271   3.522  11.928  0.2647 -0.0477 -0.0528
 9827TIP3    H153676   4.180   3.522  11.899  0.0791  0.4505  0.5216
 9827TIP3    H253677   4.266   3.525  12.023  0.8865  1.9057 -0.0476
 9828TIP3   OH253678   1.743   4.717  11.108 -0.0313 -0.1355  0.2262
 9828TIP3    H153679   1.838   4.722  11.098 -0.1259  0.0804 -0.6952
 9828TIP3    H253680   1.728   4.714  11.203  0.8958 -0.3225  0.3713
 9829TIP3   OH253681   4.727   4.728  11.534  0.4885 -0.1689  0.1500
 9829TIP3    H153682   4.718   4.680  11.451 -1.2830  0.3224  0.0121
 9829TIP3    H253683   4.767   4.811  11.509 -1.8699  0.8371 -0.6329
 9830TIP3   OH253684   0.252   4.604  12.262 -0.0267 -0.3164  0.1314
 9830TIP3    H153685   0.246   4.696  12.238 -1.9216 -0.4435 -0.0574
 9830TIP3    H253686   0.181   4.590  12.325 -0.6736 -1.9111 -0.8693
 9831TIP3   OH253687   6.571   3.787  11.816 -0.3602 -0.6053 -0.0682
 9831TIP3    H153688   6.653   3.828  11.792  0.6291  0.4867  4.2275
 9831TIP3    H253689   6.585   3.693  11.800  2.0004 -0.5116  1.0560
 9832TIP3   OH253690   8.095   2.417  12.277  0.1658 -0.9367 -0.0207
 9832TIP3    H153691   8.146   2.346  12.316  1.3889 -1.5201 -2.5277
 9832TIP3    H253692   8.143   2.497  12.301 -0.2097 -1.0708  1.2632
 9833TIP3   OH253693   5.921   5.011  10.484  0.3286  0.0306 -0.1198
 9833TIP3    H153694   5.884   4.934  10.442 -0.7371  0.0256  0.7842
 9833TIP3    H253695   5.971   4.976  10.558  0.5735  0.1558 -0.2245
 9834TIP3   OH253696   6.681   7.271  11.307 -0.0379  0.5186 -0.5097
 9834TIP3    H153697   6.662   7.179  11.291 -0.1165  0.6528 -1.2213
 9834TIP3    H253698   6.686   7.278  11.403  0.5008 -0.3245 -0.4628
 9835TIP3   OH253699   7.097   6.585  11.369 -0.2872  0.1123  0.1151
 9835TIP3    H153700   7.082   6.567  11.462 -0.3053  0.9367  0.2753
 9835TIP3    H253701   7.165   6.523  11.343  0.5138  0.6188  0.9572
 9836TIP3   OH253702   6.587   5.917  12.641 -0.2253 -0.0398  0.5410
 9836TIP3    H153703   6.522   5.940  12.575 -1.3974 -0.9578  1.3466
 9836TIP3    H253704   6.641   5.850  12.599  1.3239  1.8497 -0.7231
 9837TIP3   OH253705   0.583   5.915  11.828  0.0195  0.3737 -0.2043
 9837TIP3    H153706   0.566   5.879  11.741  0.4101 -0.4834  0.0684
 9837TIP3    H253707   0.601   5.839  11.883  0.7887  0.9826  0.4032
 9838TIP3   OH253708   3.362   5.146  10.612  0.1898  0.5766  0.2493
 9838TIP3    H153709   3.384   5.092  10.688  2.0882  0.6952 -0.1554
 9838TIP3    H253710   3.346   5.082  10.542  1.1417  0.4744  0.1008
 9839TIP3   OH253711   5.711   6.021  11.327 -0.8054  0.0699 -0.1507
 9839TIP3    H153712   5.800   5.995  11.351 -0.4895  0.6200 -0.7267
 9839TIP3    H253713   5.662   5.938  11.326  0.1868 -0.5574 -1.9318
 9840TIP3   OH253714   7.345   7.225  10.992 -0.5495 -0.1854 -0.4321
 9840TIP3    H153715   7.375   7.134  10.990  2.4356  0.6321  1.4388
 9840TIP3    H253716   7.387   7.263  11.070 -3.5148  2.2510  0.1904
 9841TIP3   OH253717   0.953   1.247  11.040  0.0849  0.1218  0.3638
 9841TIP3    H153718   0.997   1.183  11.096 -0.7293 -0.4738  0.3534
 9841TIP3    H253719   0.888   1.288  11.098  0.4255  0.7699  0.3029
 9842TIP3   OH253720   4.021   3.256  10.660  0.0840  0.0742  0.3048
 9842TIP3    H153721   3.956   3.196  10.697 -1.0919  0.3316 -1.2207
 9842TIP3    H253722   4.082   3.200  10.613  0.8837 -0.1573  1.6024
 9843TIP3   OH253723   2.416   5.604  10.565  0.4631  0.6397 -0.8460
 9843TIP3    H153724   2.480   5.633  10.499  3.0805 -0.2377  1.1390
 9843TIP3    H253725   2.468   5.556  10.629 -2.6109 -2.6112 -0.4653
 9844TIP3   OH253726   7.220   2.221  11.829 -0.1209 -0.0526 -0.3350
 9844TIP3    H153727   7.180   2.146  11.785  0.1780 -0.1149 -0.4977
 9844TIP3    H253728   7.293   2.185  11.878 -0.8271 -0.0823  0.7339
 9845TIP3   OH253729   4.428   3.283  11.092 -0.3600 -0.1261  0.3619
 9845TIP3    H153730   4.389   3.367  11.113 -0.1406 -0.2122  1.1628
 9845TIP3    H253731   4.428   3.235  11.175  3.3288  0.6383  0.9891
 9846TIP3   OH253732   0.728   0.965  11.470  0.1763 -0.6743  0.0070
 9846TIP3    H153733   0.753   1.053  11.498  0.7162 -0.1671 -1.9469
 9846TIP3    H253734   0.655   0.942  11.527 -0.4715  1.3509  0.0701
 9847TIP3   OH253735   3.086   2.531  12.113  0.5479  0.2919 -0.2104
 9847TIP3    H153736   3.099   2.603  12.051  1.9720 -0.0436 -0.3327
 9847TIP3    H253737   3.078   2.573  12.198  2.0272  0.5714 -0.1975
 9848TIP3   OH253738   4.967   6.530  10.990  0.1385  0.0183 -0.3258
 9848TIP3    H153739   5.036   6.593  10.968  0.4657  0.2208  1.1746
 9848TIP3    H253740   4.896   6.550  10.930  0.4755  1.4240 -0.2855
 9849TIP3   OH253741   5.260   2.286  11.468  0.5110 -0.4513  0.4200
 9849TIP3    H153742   5.280   2.333  11.549 -0.2854 -0.0604  0.4009
 9849TIP3    H253743   5.195   2.222  11.494  1.6671 -1.6497  0.4652
 9850TIP3   OH253744   5.276   4.775  10.477  0.0818 -0.1833 -0.2312
 9850TIP3    H153745   5.346   4.800  10.418  0.7839 -1.3152  0.0942
 9850TIP3    H253746   5.294   4.822  10.558 -1.3712  2.0687 -1.1202
 9851TIP3   OH253747   3.946   4.030  11.129  0.9513 -0.1647 -0.4019
 9851TIP3    H153748   3.998   3.957  11.164  0.2529 -0.8033 -0.6635
 9851TIP3    H253749   3.861   4.019  11.171  0.5751 -0.0227 -1.1230
 9852TIP3   OH253750   2.685   3.746  10.146 -0.3625 -0.3424  0.6334
 9852TIP3    H153751   2.625   3.757  10.072  1.0486 -1.1387 -0.6573
 9852TIP3    H253752   2.699   3.835  10.178 -0.6426  0.0654 -0.3400
 9853TIP3   OH253753   8.063   2.015  12.421 -0.1916  0.0400  0.5429
 9853TIP3    H153754   8.103   1.988  12.504 -0.2615  1.4293  1.0477
 9853TIP3    H253755   8.112   2.093  12.395 -0.7336  0.1192 -0.2928
 9854TIP3   OH253756   0.458   1.508  10.762 -0.3709  0.0922 -0.2377
 9854TIP3    H153757   0.415   1.555  10.833  0.7286  0.2560  0.3574
 9854TIP3    H253758   0.389   1.456  10.721 -1.4972  1.7494 -0.5410
 9855TIP3   OH253759   5.223   8.058  12.537 -0.3413 -0.3064 -0.3824
 9855TIP3    H153760   5.158   8.127  12.552  0.3704  0.0648  1.3841
 9855TIP3    H253761   5.173   7.978  12.526 -1.1325  0.1779 -0.3490
 9856TIP3   OH253762   6.791   3.315  12.797 -0.1672 -0.1075 -0.3208
 9856TIP3    H153763   6.821   3.342  12.884 -0.0901  0.0686 -0.4002
 9856TIP3    H253764   6.696   3.308  12.805 -0.1299 -0.4041 -0.1389
 9857TIP3   OH253765   7.620   3.530  11.661  0.0696  0.5120 -0.7054
 9857TIP3    H153766   7.626   3.575  11.576  0.7691  0.0936 -0.8904
 9857TIP3    H253767   7.656   3.442  11.644 -1.4820 -0.2060 -0.4058
 9858TIP3   OH253768   0.881   2.812  11.570 -0.1194 -0.1753  0.2597
 9858TIP3    H153769   0.901   2.837  11.660 -1.1030  0.3502  0.3418
 9858TIP3    H253770   0.961   2.768  11.539  0.3361 -0.0898  1.2780
 9859TIP3   OH253771   0.976   3.804  11.582  0.3527 -0.1859 -0.0104
 9859TIP3    H153772   0.993   3.774  11.671 -0.1468  0.9976  0.5037
 9859TIP3    H253773   0.916   3.878  11.593 -1.3735 -1.2920 -1.4626
 9860TIP3   OH253774   1.170   3.062  12.251 -0.2912  0.1545 -0.1626
 9860TIP3    H153775   1.102   3.083  12.315  0.4720 -0.3133  0.8284
 9860TIP3    H253776   1.126   3.072  12.166 -1.3042  0.8642  0.4130
 9861TIP3   OH253777   6.991   7.973  12.611 -0.0190 -0.8803 -0.8056
 9861TIP3    H153778   6.917   7.962  12.552 -0.9696  0.8703 -0.0093
 9861TIP3    H253779   7.062   8.003  12.555 -1.0446  1.2456 -1.0448
 9862TIP3   OH253780   1.309   5.274  11.797  0.2855  0.0984 -0.0604
 9862TIP3    H153781   1.353   5.316  11.723  0.9054 -0.7850 -0.2106
 9862TIP3    H253782   1.285   5.187  11.764 -0.5240  0.1403  0.3975
 9863TIP3   OH253783   0.038   5.915  12.020 -0.4292 -0.7340  0.4309
 9863TIP3    H153784   0.030   5.924  12.115 -1.1161  1.3448  0.2201
 9863TIP3    H253785  -0.033   5.855  11.996 -0.9878 -0.3584  1.1090
 9864TIP3   OH253786   4.604   1.518  11.122 -0.2524 -0.0109  0.6223
 9864TIP3    H153787   4.640   1.433  11.147  0.0692 -0.4737 -1.2628
 9864TIP3    H253788   4.674   1.580  11.138 -0.6828  0.0211  2.5591
 9865TIP3   OH253789   5.333   5.892  11.713  0.3898 -0.2649  0.0540
 9865TIP3    H153790   5.320   5.801  11.689  2.2975 -0.5086 -0.1676
 9865TIP3    H253791   5.335   5.892  11.808  0.1302 -0.3978  0.0621
 9866TIP3   OH253792   7.227   2.085  11.596  0.4376 -0.3982  0.6806
 9866TIP3    H153793   7.191   2.158  11.545  0.5102 -0.3096  0.7551
 9866TIP3    H253794   7.153   2.027  11.610  0.6275 -0.9234 -0.3817
 9867TIP3   OH253795   5.170   8.304  11.811 -0.1388  0.2290  0.0287
 9867TIP3    H153796   5.231   8.251  11.760 -0.0024  1.6249 -1.3518
 9867TIP3    H253797   5.097   8.246  11.829  0.5466 -0.7828 -0.3469
 9868TIP3   OH253798   8.185   7.705  12.499  0.2079  0.2053 -0.3546
 9868TIP3    H153799   8.265   7.707  12.447 -0.7954  1.2883 -1.9454
 9868TIP3    H253800   8.160   7.612  12.503  1.6138 -0.1673  0.3435
 9869TIP3   OH253801   8.150   7.680  11.951  0.1616 -0.2651 -0.1986
 9869TIP3    H153802   8.165   7.634  12.034  0.7115 -0.2358 -0.2785
 9869TIP3    H253803   8.206   7.758  11.957  0.5806 -0.5172 -0.8040
 9870TIP3   OH253804   2.128   4.108  11.491  0.6480 -0.2299  0.3104
 9870TIP3    H153805   2.062   4.046  11.459 -0.5555 -0.0485  2.3125
 9870TIP3    H253806   2.170   4.141  11.411 -0.6658 -1.4437 -0.9415
 9871TIP3   OH253807   4.422   8.430  11.738  0.1761 -0.0397 -0.2272
 9871TIP3    H153808   4.431   8.525  11.731  0.6269 -0.0631  0.0018
 9871TIP3    H253809   4.328   8.415  11.744  0.1587  0.5150  1.3556
 9872TIP3   OH253810   5.288   7.003  10.824  0.2710 -0.1593 -0.1116
 9872TIP3    H153811   5.202   6.974  10.853  0.2192 -0.5494 -0.6522
 9872TIP3    H253812   5.348   6.971  10.892 -0.1101  1.0691  0.8554
 9873TIP3   OH253813   6.030   3.441  12.744 -0.3257 -0.2857 -0.1377
 9873TIP3    H153814   5.948   3.433  12.693  1.0302 -2.6601 -2.2122
 9873TIP3    H253815   6.093   3.475  12.681  0.3975  1.2235  1.3582
 9874TIP3   OH253816   2.295   3.967  12.646 -0.2655 -0.3493  0.3072
 9874TIP3    H153817   2.328   3.894  12.698 -1.1558 -0.0648  1.3007
 9874TIP3    H253818   2.212   3.937  12.611 -1.1844  0.5264  1.6224
 9875TIP3   OH253819   0.179   0.287  11.735  0.6906  0.0237  0.0890
 9875TIP3    H153820   0.116   0.310  11.803  0.4735  0.5284 -0.2781
 9875TIP3    H253821   0.171   0.192  11.726 -3.1315  0.3879 -2.8928
 9876TIP3   OH253822   7.127   4.494  11.646 -0.4375  0.5620 -0.1039
 9876TIP3    H153823   7.162   4.415  11.687  0.3184  1.5737  1.2931
 9876TIP3    H253824   7.204   4.546  11.625 -0.8297  0.2851 -2.4827
 9877TIP3   OH253825   3.264   1.378  10.736 -0.0927 -0.0931 -0.2931
 9877TIP3    H153826   3.224   1.378  10.823  0.7694 -1.7067  0.1471
 9877TIP3    H253827   3.230   1.300  10.694 -0.7184  0.8266 -1.5368
 9878TIP3   OH253828   4.250   8.212  12.563  0.3247  1.1929  0.0989
 9878TIP3    H153829   4.257   8.240  12.472  0.2790  0.7508 -0.0443
 9878TIP3    H253830   4.336   8.230  12.600  0.4448  1.0811 -0.1203
 9879TIP3   OH253831   3.702   1.994  11.560  0.4095  0.6719 -0.1372
 9879TIP3    H153832   3.703   2.084  11.528  1.8718  0.8941  0.4557
 9879TIP3    H253833   3.624   1.956  11.521  0.4647  1.8213 -1.4611
 9880TIP3   OH253834   7.335   1.238  11.762  0.5348 -0.7451 -0.0900
 9880TIP3    H153835   7.413   1.287  11.735  1.1182 -2.6011 -2.0576
 9880TIP3    H253836   7.308   1.279  11.844  1.4216  2.3223 -1.1960
 9881TIP3   OH253837   8.011   7.161  12.269  0.6202 -0.3687  0.2786
 9881TIP3    H153838   7.949   7.118  12.210  0.6835 -0.4846  0.2981
 9881TIP3    H253839   7.960   7.178  12.349  0.4471  0.0665  0.0799
 9882TIP3   OH253840   2.207   2.969  10.455 -1.0854  0.0849 -0.2705
 9882TIP3    H153841   2.270   3.028  10.414 -1.2231  0.0341 -0.5557
 9882TIP3    H253842   2.239   2.958  10.544  0.1591 -1.1567 -0.8452
 9883TIP3   OH253843   4.005   0.137  11.351 -0.1114  0.6978 -0.2298
 9883TIP3    H153844   4.083   0.081  11.344 -0.3194  0.5844 -2.0972
 9883TIP3    H253845   4.039   0.225  11.339  0.0762  0.9423  1.7431
 9884TIP3   OH253846   1.366   3.895  10.930  0.6979 -0.1730  0.1591
 9884TIP3    H153847   1.371   3.806  10.966  0.0636 -1.4558 -2.6612
 9884TIP3    H253848   1.423   3.892  10.853 -0.4250  1.4529 -0.7815
 9885TIP3   OH253849   4.841   6.022  10.456  0.0422 -0.2824  0.0575
 9885TIP3    H153850   4.914   6.022  10.518 -0.6921  0.1094  0.9443
 9885TIP3    H253851   4.840   6.111  10.421 -1.7430  0.5977  2.1793
 9886TIP3   OH253852   1.037   8.035  10.489 -0.5741 -0.0637 -0.0459
 9886TIP3    H153853   1.042   8.110  10.547 -0.4091  0.0778 -0.2398
 9886TIP3    H253854   1.123   8.031  10.447 -0.9822  0.3944 -0.9658
 9887TIP3   OH253855   4.047   1.498  11.624  0.2446  0.0730 -0.1211
 9887TIP3    H153856   4.048   1.476  11.717  1.2877  0.3245 -0.0622
 9887TIP3    H253857   4.108   1.436  11.584  1.0209  0.9824 -0.3795
 9888TIP3   OH253858   3.529   2.112  11.147  0.1063 -0.8763  0.7117
 9888TIP3    H153859   3.447   2.062  11.151  0.4328 -1.3446  2.2661
 9888TIP3    H253860   3.597   2.048  11.165  0.8167 -0.4209 -0.2349
 9889TIP3   OH253861   0.976   8.389  12.050 -0.3318  0.0215  0.1038
 9889TIP3    H153862   0.984   8.305  12.004  0.1708  0.5174 -0.7426
 9889TIP3    H253863   1.054   8.438  12.025  0.0412  0.2677  1.6273
 9890TIP3   OH253864   2.523   1.747  11.402 -0.2316 -0.2103 -0.5514
 9890TIP3    H153865   2.561   1.713  11.484 -2.6509  1.5648  1.4615
 9890TIP3    H253866   2.588   1.809  11.370  0.3621 -0.2205  0.5651
 9891TIP3   OH253867   3.228   4.182  11.105 -0.1409 -0.4848  0.1930
 9891TIP3    H153868   3.196   4.270  11.086 -0.9140 -0.5247  1.2184
 9891TIP3    H253869   3.208   4.131  11.026 -2.9399 -0.5728  0.8572
 9892TIP3   OH253870   4.499   2.890  12.105 -0.4514  0.9538  0.2215
 9892TIP3    H153871   4.424   2.850  12.149  0.3105  0.3861  1.0257
 9892TIP3    H253872   4.485   2.985  12.114 -0.2315  0.8590  1.8635
 9893TIP3   OH253873   3.966   1.429  10.958 -0.3407 -0.0874  0.0347
 9893TIP3    H153874   3.928   1.500  10.906 -0.3104  0.1268  0.3021
 9893TIP3    H253875   4.006   1.371  10.894 -1.0275 -0.2597 -0.2440
 9894TIP3   OH253876   0.051   3.202  11.219  0.0606  0.2783 -0.0051
 9894TIP3    H153877   0.108   3.160  11.155  0.4820  0.0644  0.5024
 9894TIP3    H253878  -0.003   3.131  11.254  0.9956  0.0802  1.0863
 9895TIP3   OH253879   4.420   2.221  11.573 -0.7222  0.0427  0.8279
 9895TIP3    H153880   4.416   2.269  11.655 -1.9430 -1.0487  1.4458
 9895TIP3    H253881   4.333   2.181  11.564  0.5565 -3.0118  0.9806
 9896TIP3   OH253882   5.651   1.558  12.191  0.0262 -0.3736  0.2254
 9896TIP3    H153883   5.640   1.635  12.136  0.8432 -0.6672 -0.3658
 9896TIP3    H253884   5.682   1.593  12.275  1.4529 -0.1090 -0.3754
 9897TIP3   OH253885   6.219   5.472  11.288  0.0026  0.7247  0.2226
 9897TIP3    H153886   6.216   5.541  11.222  0.0599 -0.4293 -1.0183
 9897TIP3    H253887   6.139   5.422  11.274  0.5185 -0.1512  0.3404
 9898TIP3   OH253888   7.798   7.747  11.613  0.4945 -0.1353 -0.0241
 9898TIP3    H153889   7.709   7.729  11.580  0.5630  0.5385 -0.6011
 9898TIP3    H253890   7.786   7.758  11.707 -0.0839  0.1998 -0.1264
 9899TIP3   OH253891   0.416   2.099  10.739  0.1106 -0.3100 -0.7184
 9899TIP3    H153892   0.500   2.143  10.724  0.6051 -0.2187  1.7981
 9899TIP3    H253893   0.355   2.170  10.758 -0.4862 -0.4035 -2.1714
 9900TIP3   OH253894   8.154   6.026  12.221 -0.6602  0.1867 -0.1749
 9900TIP3    H153895   8.157   6.096  12.286  1.1505  1.6457 -1.7173
 9900TIP3    H253896   8.233   5.974  12.237 -2.0032 -1.6145  0.9783
 9901TIP3   OH253897   4.589   0.692  11.406  0.7025  0.6529 -0.3406
 9901TIP3    H153898   4.499   0.666  11.425  1.0383 -0.6145 -0.3842
 9901TIP3    H253899   4.625   0.619  11.356  1.2028  1.9594 -1.9788
 9902TIP3   OH253900   4.898   4.391  12.398 -0.4995 -0.4636 -0.4388
 9902TIP3    H153901   4.948   4.379  12.478 -0.0641 -0.4086 -0.6998
 9902TIP3    H253902   4.959   4.368  12.328 -0.0892  1.7573 -0.8862
 9903TIP3   OH253903   1.421   2.620  12.124 -0.1757  0.1247 -0.7341
 9903TIP3    H153904   1.419   2.580  12.211 -0.9600  1.3305 -0.1708
 9903TIP3    H253905   1.481   2.565  12.074  0.8902 -0.1580  0.7791
 9904TIP3   OH253906   3.648   4.455  11.189  0.4737  0.7291  0.2696
 9904TIP3    H153907   3.676   4.535  11.235 -1.9406  1.6272  0.3244
 9904TIP3    H253908   3.553   4.456  11.196  0.2102 -0.7481 -2.0740
 9905TIP3   OH253909   5.609   6.046  11.991 -0.3652  0.0643 -0.0691
 9905TIP3    H153910   5.559   5.973  12.028 -2.7161  2.9489  3.1391
 9905TIP3    H253911   5.543   6.102  11.950  0.6346  2.3039  1.1994
 9906TIP3   OH253912   5.589   8.129  10.835 -0.4735  0.3510  0.5707
 9906TIP3    H153913   5.645   8.055  10.813  0.1982  1.7292 -3.1158
 9906TIP3    H253914   5.650   8.201  10.852 -1.0349  1.1749 -0.6990
 9907TIP3   OH253915   3.377   0.773  11.901  0.3490  0.0371 -0.3878
 9907TIP3    H153916   3.397   0.686  11.867 -1.0871 -0.4467 -0.0572
 9907TIP3    H253917   3.447   0.790  11.964  1.2814 -0.3720 -1.2752
 9908TIP3   OH253918   3.909   6.156  11.805 -0.4853 -0.3264  0.1305
 9908TIP3    H153919   3.928   6.071  11.844  1.1358 -0.0389  0.0279
 9908TIP3    H253920   3.932   6.147  11.713 -1.6146 -0.1632 -0.1837
 9909TIP3   OH253921   8.043   6.028  11.979  0.1118  0.0350  0.5015
 9909TIP3    H153922   7.990   5.961  12.022  0.9034 -1.3109 -0.5124
 9909TIP3    H253923   8.111   6.050  12.043 -0.0824 -0.2234  0.8015
 9910TIP3   OH253924   1.438   3.124  10.911  0.0554 -0.2761  0.2845
 9910TIP3    H153925   1.400   3.205  10.875  0.0953 -0.0926  0.6478
 9910TIP3    H253926   1.516   3.154  10.957  0.5332 -0.6284 -0.2894
 9911TIP3   OH253927   5.007   4.743  10.494 -0.3278  0.2367  0.1111
 9911TIP3    H153928   5.102   4.750  10.488 -0.4601  1.0222 -1.7232
 9911TIP3    H253929   4.976   4.759  10.405 -2.0373 -2.9780 -0.0285
 9912TIP3   OH253930   2.945   7.566  10.967  0.1583  0.1787 -0.2560
 9912TIP3    H153931   3.000   7.569  10.889 -0.2186  0.6590 -0.5064
 9912TIP3    H253932   2.901   7.651  10.969 -1.8030 -0.7684 -0.9509
 9913TIP3   OH253933   5.762   2.947  11.772 -0.0329  0.3408 -0.0080
 9913TIP3    H153934   5.769   2.852  11.775 -0.6881  0.3088  0.6285
 9913TIP3    H253935   5.848   2.978  11.801  0.6391 -0.0393 -1.5021
 9914TIP3   OH253936   4.365   6.092  11.394 -0.0733 -0.3160  0.3112
 9914TIP3    H153937   4.306   6.051  11.458 -1.7316  0.4193 -0.6590
 9914TIP3    H253938   4.329   6.066  11.309  0.3774  1.0436 -0.3149
 9915TIP3   OH253939   1.112   1.935  11.163 -0.1224  0.8922  0.2893
 9915TIP3    H153940   1.163   1.959  11.086 -0.4927  2.2690  0.4522
 9915TIP3    H253941   1.053   1.866  11.132  1.6188 -0.5833  0.0509
 9916TIP3   OH253942   1.757   7.319  10.980 -0.1628  0.2042  0.4414
 9916TIP3    H153943   1.736   7.244  11.035  0.4049 -1.2490 -1.2514
 9916TIP3    H253944   1.697   7.313  10.906  0.8200  0.5877 -0.4193
 9917TIP3   OH253945   3.708   4.774  12.727  0.1247 -0.2601 -0.1083
 9917TIP3    H153946   3.670   4.858  12.702  1.6369 -0.1616 -2.3903
 9917TIP3    H253947   3.646   4.709  12.694 -0.5068 -0.0798  0.6912
 9918TIP3   OH253948   7.588   0.600  11.968 -0.5655 -0.1375 -0.7716
 9918TIP3    H153949   7.497   0.629  11.968 -0.6395 -0.3634 -0.9510
 9918TIP3    H253950   7.609   0.587  11.875  0.2542  1.7742 -0.9097
 9919TIP3   OH253951   7.159   0.258  10.937 -0.1333  0.8614  0.1754
 9919TIP3    H153952   7.219   0.261  11.012 -1.1834 -0.7670  1.1425
 9919TIP3    H253953   7.074   0.280  10.974 -0.7956 -0.6679 -0.3565
 9920TIP3   OH253954   4.814   6.550  10.415 -0.5390  1.1920  0.0218
 9920TIP3    H153955   4.903   6.585  10.412  0.5671 -1.4433 -2.7113
 9920TIP3    H253956   4.817   6.484  10.484 -0.5674  1.5538  0.3706
 9921TIP3   OH253957   3.979   3.703  10.623  0.1063 -0.3620 -0.1523
 9921TIP3    H153958   3.916   3.720  10.553  0.8450 -0.2700 -0.8173
 9921TIP3    H253959   3.966   3.775  10.685 -0.6205 -0.4927 -0.1538
 9922TIP3   OH253960   5.448   6.661  11.028 -0.1199 -0.1758  0.6136
 9922TIP3    H153961   5.537   6.679  10.998  0.1751 -0.5004  1.2572
 9922TIP3    H253962   5.439   6.713  11.108  0.5890 -2.4128  2.2499
 9923TIP3   OH253963   0.430   6.266  12.962 -0.1186  0.0642  0.5631
 9923TIP3    H153964   0.468   6.344  12.921 -0.8895  0.5117  0.6985
 9923TIP3    H253965   0.343   6.293  12.991 -0.6911 -1.0480 -0.0454
 9924TIP3   OH253966   6.611   3.490  11.821  0.5296  0.9637 -0.1354
 9924TIP3    H153967   6.528   3.443  11.816  0.8103  0.5083 -0.7244
 9924TIP3    H253968   6.668   3.444  11.759  1.5507  0.5915  1.0265
 9925TIP3   OH253969   1.252   8.416  11.468 -0.4796 -0.5174  0.5068
 9925TIP3    H153970   1.207   8.387  11.389 -0.0857 -3.1514  1.1636
 9925TIP3    H253971   1.336   8.450  11.437 -0.7023 -0.6395 -0.2513
 9926TIP3   OH253972   1.429   6.145  11.484  0.1053  0.6956  0.0441
 9926TIP3    H153973   1.476   6.072  11.525 -0.8810  0.6367  1.1215
 9926TIP3    H253974   1.382   6.105  11.412  0.4399  0.4689 -0.0529
 9927TIP3   OH253975   3.307   4.871  11.849  0.0228  0.3565  0.4872
 9927TIP3    H153976   3.379   4.879  11.911 -0.9678  0.7507  1.6232
 9927TIP3    H253977   3.265   4.788  11.871  0.8015 -0.4614 -0.9440
 9928TIP3   OH253978   0.979   7.255  12.068  0.1459  0.2486 -0.1215
 9928TIP3    H153979   0.933   7.211  12.140  3.3780  0.8383  2.5666
 9928TIP3    H253980   1.057   7.202  12.054  1.4793  2.2138 -0.4957
 9929TIP3   OH253981   3.468   6.645  11.357 -0.3316  0.2518 -0.1034
 9929TIP3    H153982   3.419   6.704  11.414  0.2071  1.5674 -0.9614
 9929TIP3    H253983   3.469   6.688  11.272  0.3593 -0.8510 -0.6815
 9930TIP3   OH253984   6.725   3.803  12.210  0.0918 -0.0467 -0.4226
 9930TIP3    H153985   6.662   3.737  12.181  0.6446 -1.7053  1.8552
 9930TIP3    H253986   6.800   3.752  12.239  0.0729  1.4389  2.5609
 9931TIP3   OH253987   0.854   7.887  11.640 -0.2046  0.3776 -0.3256
 9931TIP3    H153988   0.882   7.901  11.731 -0.0295  2.7376 -0.6851
 9931TIP3    H253989   0.759   7.888  11.644 -0.1971  0.6485 -0.1853
 9932TIP3   OH253990   3.011   1.983  11.191  0.4465 -0.1853  0.8030
 9932TIP3    H153991   2.959   2.013  11.266 -0.5519  3.1811 -1.0447
 9932TIP3    H253992   2.955   1.918  11.148 -0.6340  0.6346  0.9358
 9933TIP3   OH253993   0.935   5.132  11.741  0.0684  0.2252 -0.0957
 9933TIP3    H153994   0.851   5.144  11.786  0.2815  0.6070  0.2098
 9933TIP3    H253995   0.921   5.172  11.655 -0.1661 -0.0074 -0.1677
 9934TIP3   OH253996   8.216   1.287  11.823  0.5861 -0.1322  0.8619
 9934TIP3    H153997   8.187   1.211  11.773 -0.9496  1.1006 -0.2357
 9934TIP3    H253998   8.246   1.251  11.906 -0.5268 -1.9016  0.5523
 9935TIP3   OH253999   2.547   8.046  11.397  0.1503 -0.3655  0.4302
 9935TIP3    H154000   2.570   8.131  11.360 -0.8615  0.1622  0.9573
 9935TIP3    H254001   2.463   8.025  11.357 -0.6721 -0.0707  1.9010
 9936TIP3   OH254002   7.757   1.957  11.568 -0.0447 -0.3666 -0.6828
 9936TIP3    H154003   7.668   1.955  11.533  0.0823  0.8997 -1.1354
 9936TIP3    H254004   7.764   1.877  11.621 -1.3976 -0.5522 -0.7478
 9937TIP3   OH254005   4.951   5.675  10.897  0.4101 -0.1675  0.5401
 9937TIP3    H154006   4.961   5.661  10.803  1.4273  0.1011  0.5997
 9937TIP3    H254007   5.038   5.700  10.927  0.1089 -0.3101  1.5691
 9938TIP3   OH254008   2.216   3.266  11.554  0.1017  0.2340 -0.0731
 9938TIP3    H154009   2.204   3.171  11.559  2.3979 -0.2245 -1.6451
 9938TIP3    H254010   2.288   3.285  11.614 -0.1156  0.9306 -0.0217
 9939TIP3   OH254011   1.065   0.315  10.664 -0.2107 -0.0317 -0.8069
 9939TIP3    H154012   1.026   0.383  10.609 -0.7816  1.0923  0.9177
 9939TIP3    H254013   1.098   0.362  10.741  0.5526 -1.5500 -0.1665
 9940TIP3   OH254014   4.269   0.643  12.077 -0.3234 -0.3169  0.1713
 9940TIP3    H154015   4.279   0.547  12.081  2.1639 -0.2036 -1.1502
 9940TIP3    H254016   4.322   0.675  12.150 -0.9286  0.0576  0.4442
 9941TIP3   OH254017   0.394   2.748  11.368 -0.1274 -0.0512 -0.6392
 9941TIP3    H154018   0.479   2.735  11.409 -0.2276  0.7972 -0.1371
 9941TIP3    H254019   0.396   2.838  11.336 -1.3652  0.5216  0.7334
 9942TIP3   OH254020   3.857   6.705  11.838  0.7830 -0.2108 -0.6370
 9942TIP3    H154021   3.792   6.634  11.846 -0.7518  1.3522  2.7457
 9942TIP3    H254022   3.936   6.671  11.879  0.6740 -0.5752 -0.7274
 9943TIP3   OH254023   7.406   2.279  12.242  0.1479  0.4171  0.7071
 9943TIP3    H154024   7.331   2.337  12.253 -1.6199 -0.9849 -2.5500
 9943TIP3    H254025   7.375   2.193  12.270  0.4698 -0.1824 -0.6628
 9944TIP3   OH254026   1.289   4.867  12.533  0.2258  0.4232 -0.0895
 9944TIP3    H154027   1.327   4.888  12.618  0.2116  2.9485 -0.6355
 9944TIP3    H254028   1.219   4.804  12.553 -0.0365  1.2427  1.8172
 9945TIP3   OH254029   3.261   4.385  12.045  0.3934 -0.3095  0.4484
 9945TIP3    H154030   3.343   4.394  12.094  1.7844 -3.7167 -0.9509
 9945TIP3    H254031   3.200   4.346  12.108  0.4419  0.3686  0.9289
 9946TIP3   OH254032   3.354   7.632  12.095 -0.2900  0.5430  0.4978
 9946TIP3    H154033   3.322   7.653  12.007  1.8552  1.5781 -0.0835
 9946TIP3    H254034   3.358   7.717  12.140  1.3546  0.4124  0.6268
 9947TIP3   OH254035   0.472   0.916  12.136 -0.0517 -0.7808  0.4543
 9947TIP3    H154036   0.517   0.980  12.190 -0.1104  1.8610 -2.3401
 9947TIP3    H254037   0.413   0.968  12.081  0.0361 -3.1759 -2.1334
 9948TIP3   OH254038   1.254   1.667  10.761  0.1159 -0.2224 -0.3689
 9948TIP3    H154039   1.235   1.637  10.850 -3.8385 -1.2761 -1.3634
 9948TIP3    H254040   1.338   1.626  10.740 -0.3745 -2.6379  1.7921
 9949TIP3   OH254041   1.305   7.578  12.205 -0.4675  0.1543 -0.6325
 9949TIP3    H154042   1.310   7.493  12.249 -1.0410  1.1547  1.5254
 9949TIP3    H254043   1.225   7.618  12.240 -0.2283  1.5584 -1.6242
 9950TIP3   OH254044   1.403   6.814  11.535 -0.4180  0.3061  0.1137
 9950TIP3    H154045   1.442   6.856  11.459 -0.1810 -2.4418 -1.4095
 9950TIP3    H254046   1.436   6.864  11.610  1.5268  1.4469 -1.4201
 9951TIP3   OH254047   4.538   8.061  11.182  0.5100 -0.4191  0.0223
 9951TIP3    H154048   4.616   8.041  11.234  0.1148 -0.0621  0.7796
 9951TIP3    H254049   4.552   8.150  11.150  1.1517 -0.9587 -1.2522
 9952TIP3   OH254050   3.179   8.098  12.519  0.0953 -0.3906  0.3138
 9952TIP3    H154051   3.266   8.138  12.520  0.1244 -0.2341 -2.1072
 9952TIP3    H254052   3.130   8.144  12.587  0.9779  1.8484 -0.4700
 9953TIP3   OH254053   5.029   5.539  11.636 -0.2045 -0.4927 -0.4872
 9953TIP3    H154054   5.053   5.599  11.706  0.6299 -1.0973 -0.2340
 9953TIP3    H254055   4.936   5.556  11.621 -0.4189 -0.3764  0.8032
 9954TIP3   OH254056   0.258   0.025  11.621 -0.4437 -0.4168 -0.3064
 9954TIP3    H154057   0.283  -0.046  11.562  2.2844 -0.2891  0.5780
 9954TIP3    H254058   0.327   0.090  11.611 -2.2000  1.5797 -0.1127
 9955TIP3   OH254059   3.102   1.406  12.849 -0.2581 -0.0567  0.4282
 9955TIP3    H154060   3.015   1.369  12.831 -0.4381 -0.0476  1.2539
 9955TIP3    H254061   3.153   1.332  12.882  0.4035 -0.3269 -1.1166
 9956TIP3   OH254062   7.404   2.480  11.297 -0.3283 -0.5021 -0.4065
 9956TIP3    H154063   7.485   2.434  11.273  0.9949  1.9706 -0.9490
 9956TIP3    H254064   7.412   2.567  11.258 -1.7580  0.9552  2.2256
 9957TIP3   OH254065   2.400   0.608  10.763 -0.1966 -0.0712  0.8129
 9957TIP3    H154066   2.436   0.696  10.767  0.4021 -0.3270  1.4268
 9957TIP3    H254067   2.309   0.619  10.734  0.7773  0.4593 -2.4036
 9958TIP3   OH254068   2.646   1.697  12.221 -0.2126  0.1288  0.3352
 9958TIP3    H154069   2.612   1.610  12.242  0.5211  0.3842  2.8407
 9958TIP3    H254070   2.736   1.682  12.193 -0.3001  0.0263  0.1098
 9959TIP3   OH254071   8.104   7.357  10.525  0.3577 -0.2806  0.0175
 9959TIP3    H154072   8.192   7.324  10.508  1.2583  2.5503 -1.3108
 9959TIP3    H254073   8.112   7.405  10.608  0.6426  1.7395 -1.1341
 9960TIP3   OH254074   2.350   2.732  12.520 -0.3545  0.5358  0.4201
 9960TIP3    H154075   2.368   2.753  12.428  1.2229 -1.7522  0.1410
 9960TIP3    H254076   2.436   2.734  12.562 -0.7527 -0.6741  1.3394
 9961TIP3   OH254077   6.841   3.375  12.199 -0.0355  0.2126 -0.1777
 9961TIP3    H154078   6.836   3.339  12.110 -1.1468 -2.0787  0.7428
 9961TIP3    H254079   6.923   3.342  12.234 -0.5503 -0.5727  0.3082
 9962TIP3   OH254080   4.712   0.715  11.780  0.8415 -0.3983  0.3483
 9962TIP3    H154081   4.673   0.784  11.727 -0.8799 -2.1208 -0.7412
 9962TIP3    H254082   4.710   0.750  11.869  3.1869  2.2836 -0.5115
 9963TIP3   OH254083   1.941   1.188  11.871  0.0543  0.3688 -0.0619
 9963TIP3    H154084   1.863   1.241  11.882  1.3945  2.3298  0.4498
 9963TIP3    H254085   1.909   1.098  11.869 -2.1305  1.0766  0.7235
 9964TIP3   OH254086   2.648   6.633  10.916 -0.2109 -0.6539 -0.0215
 9964TIP3    H154087   2.733   6.591  10.924 -0.1462 -0.6794 -0.7173
 9964TIP3    H254088   2.585   6.561  10.916 -0.0392 -0.8785 -2.1500
 9965TIP3   OH254089   5.534   5.206  11.933  0.0285  0.2079 -0.5729
 9965TIP3    H154090   5.566   5.209  12.023 -0.5850  0.9536 -0.3656
 9965TIP3    H254091   5.605   5.167  11.883  0.3671 -0.2368  0.2398
 9966TIP3   OH254092   1.906   4.486  11.443 -0.1160  0.2260 -0.3542
 9966TIP3    H154093   1.941   4.404  11.409  0.4586 -0.0143  0.7736
 9966TIP3    H254094   1.977   4.549  11.429 -0.2211  0.3301 -0.4195
 9967TIP3   OH254095   1.103   3.787  12.356 -0.3891 -0.1786 -0.4580
 9967TIP3    H154096   1.191   3.788  12.317  0.3786 -0.9046  1.1283
 9967TIP3    H254097   1.119   3.774  12.450 -2.1624  0.8799  0.0415
 9968TIP3   OH254098   6.932   1.386  12.440 -0.2248 -0.0798 -0.1693
 9968TIP3    H154099   6.928   1.297  12.477  2.8423 -0.5706 -0.7013
 9968TIP3    H254100   6.944   1.443  12.516  2.3066 -0.6887 -0.0203
 9969TIP3   OH254101   8.109   6.643  12.069 -0.1219 -0.4250 -0.1228
 9969TIP3    H154102   8.116   6.701  11.993 -0.6496 -0.3360 -0.1099
 9969TIP3    H254103   8.199   6.635  12.102 -0.1050  0.7667  0.1508
 9970TIP3   OH254104   2.179   6.181  12.369  0.0771  0.3610  0.7027
 9970TIP3    H154105   2.260   6.165  12.320 -0.8357  1.4308 -1.2876
 9970TIP3    H254106   2.190   6.268  12.407  0.1272  0.2071  1.0496
 9971TIP3   OH254107   2.063   1.588  11.312  0.0788 -0.0859  0.8372
 9971TIP3    H154108   2.116   1.544  11.246 -0.5037 -0.2803  0.4913
 9971TIP3    H254109   2.064   1.681  11.286 -0.4800 -0.2191  0.3157
 9972TIP3   OH254110   1.434   7.222  12.008  0.1122 -0.3860  0.6994
 9972TIP3    H154111   1.429   7.307  11.964 -0.4773 -0.9256 -0.3026
 9972TIP3    H254112   1.523   7.192  11.991  0.1024 -0.2831  0.4592
 9973TIP3   OH254113   1.709   7.697  11.273 -0.6924 -0.0167  0.1770
 9973TIP3    H154114   1.744   7.609  11.255  0.0768  0.2324  0.4353
 9973TIP3    H254115   1.706   7.739  11.187  1.4551  0.6128  0.3593
 9974TIP3   OH254116   6.271   2.115  11.872 -0.7334  0.5990 -0.2803
 9974TIP3    H154117   6.291   2.179  11.803  0.8769  0.2259 -0.1933
 9974TIP3    H254118   6.183   2.084  11.850  0.8082 -1.7978 -4.0578
 9975TIP3   OH254119   8.274   7.211  12.564  0.4770 -0.3703 -0.1096
 9975TIP3    H154120   8.211   7.140  12.574  0.3757 -0.1169  1.1587
 9975TIP3    H254121   8.350   7.184  12.616  0.9126 -0.0849 -0.5802
 9976TIP3   OH254122   0.620   6.687  11.228 -0.0645  0.3219 -0.1449
 9976TIP3    H154123   0.636   6.647  11.143 -2.3616  0.8551 -0.8873
 9976TIP3    H254124   0.575   6.769  11.209 -2.2869 -0.3782  1.5912
 9977TIP3   OH254125   7.010   3.233  10.861  0.3830  0.6966  0.2227
 9977TIP3    H154126   7.056   3.159  10.901  2.2645  2.8409  2.3607
 9977TIP3    H254127   7.073   3.270  10.800  0.6566  2.2103  1.3513
 9978TIP3   OH254128   4.280   0.382  11.490  0.0876 -0.2049  0.2867
 9978TIP3    H154129   4.302   0.475  11.483  1.6101 -0.2646  2.8167
 9978TIP3    H254130   4.226   0.376  11.568 -0.2247 -1.4292 -0.0050
 9979TIP3   OH254131   7.369   4.557  11.010  0.9597 -0.1217  0.1400
 9979TIP3    H154132   7.404   4.602  11.087  2.8443  1.5849 -1.5746
 9979TIP3    H254133   7.365   4.465  11.035  0.0584  0.5452  2.7390
 9980TIP3   OH254134   6.993   6.802  12.770  0.3249  0.0177  0.2192
 9980TIP3    H154135   6.918   6.749  12.743  1.8112 -1.8335 -0.4716
 9980TIP3    H254136   6.966   6.892  12.752 -2.8011 -0.2603  2.6483
 9981TIP3   OH254137   0.302   2.387  11.488  0.2661 -0.6321  0.3433
 9981TIP3    H154138   0.328   2.338  11.409  0.1524 -0.8324  0.4290
 9981TIP3    H254139   0.261   2.467  11.454  0.3608 -0.6436  0.2006
 9982TIP3   OH254140   5.079   5.585  11.255 -0.1337 -0.1011  0.1729
 9982TIP3    H154141   5.000   5.572  11.309 -1.1086  1.7028 -0.7387
 9982TIP3    H254142   5.123   5.500  11.258 -1.0919 -0.5923  2.2962
 9983TIP3   OH254143   1.559   5.510  11.125 -0.3656  0.2606  0.1943
 9983TIP3    H154144   1.649   5.480  11.131  0.3145  1.3761 -2.6770
 9983TIP3    H254145   1.532   5.486  11.036 -2.1755  1.7683  0.2838
 9984TIP3   OH254146   8.095   4.185  12.215 -0.1752  0.5802  0.5633
 9984TIP3    H154147   8.163   4.253  12.219 -0.5409  0.9058  1.6209
 9984TIP3    H254148   8.119   4.123  12.284  1.2934 -1.5042 -1.7025
 9985TIP3   OH254149   7.840   2.638  13.059  0.9713 -0.4488  0.1260
 9985TIP3    H154150   7.757   2.684  13.047  0.5414 -1.3645 -0.5097
 9985TIP3    H254151   7.904   2.707  13.076 -0.0738  0.2271  1.5943
 9986TIP3   OH254152   1.301   3.912  10.544 -0.1948  0.6921  0.1226
 9986TIP3    H154153   1.260   3.826  10.550  1.9972 -0.4564 -0.3916
 9986TIP3    H254154   1.229   3.974  10.554 -1.9867 -1.1917 -0.5097
 9987TIP3   OH254155   5.922   3.611  11.742  0.7663 -0.3363  0.0588
 9987TIP3    H154156   5.873   3.648  11.668  0.3550  0.3619  0.6736
 9987TIP3    H254157   5.886   3.655  11.819  1.6279 -0.6014  0.6187
 9988TIP3   OH254158   1.634   6.304  12.587  0.7734 -0.3645 -0.3826
 9988TIP3    H154159   1.551   6.352  12.593 -0.0959 -1.5321 -2.1635
 9988TIP3    H254160   1.691   6.347  12.651 -1.6816 -0.5382  2.1524
 9989TIP3   OH254161   4.057   3.807  11.296 -0.1545  0.0649  0.2345
 9989TIP3    H154162   4.027   3.718  11.279 -0.7308  0.4093 -0.6202
 9989TIP3    H254163   4.149   3.798  11.320  0.8398 -0.4974 -3.2737
 9990TIP3   OH254164   2.619   0.904  11.894  0.6632  0.9123  0.4096
 9990TIP3    H154165   2.705   0.901  11.853  1.2816  1.3589  1.6192
 9990TIP3    H254166   2.633   0.869  11.982 -0.2171  1.7419  0.9024
 9991TIP3   OH254167   6.051   4.458  11.367 -0.1473 -0.3155  0.3653
 9991TIP3    H154168   5.999   4.384  11.399  0.1677 -1.4668 -1.5901
 9991TIP3    H254169   6.008   4.483  11.285 -0.5719  2.0863  1.2302
 9992TIP3   OH254170   3.812   7.789  12.476  0.4756  0.0974 -0.2187
 9992TIP3    H154171   3.837   7.697  12.480  0.1814  0.0412  0.4458
 9992TIP3    H254172   3.876   7.834  12.532  0.6309  0.3035 -0.5569
 9993TIP3   OH254173   4.676   5.161  11.595  0.1087 -0.3380  0.8038
 9993TIP3    H154174   4.613   5.233  11.586 -0.1770 -0.4807  1.6354
 9993TIP3    H254175   4.756   5.195  11.555  0.4427  1.0193  2.5187
 9994TIP3   OH254176   7.558   6.738  12.267 -0.2114 -0.5823 -0.3764
 9994TIP3    H154177   7.638   6.777  12.302 -0.9158  1.4160 -0.8244
 9994TIP3    H254178   7.587   6.666  12.212  1.4595  1.1554 -1.9214
 9995TIP3   OH254179   7.672   5.826  11.189  0.0325  0.2135 -0.0887
 9995TIP3    H154180   7.700   5.792  11.274  1.8727 -0.8561 -1.0673
 9995TIP3    H254181   7.696   5.919  11.192  1.8649 -0.2225 -0.0987
 9996TIP3   OH254182   4.770   1.511  12.709 -0.1195 -0.1382 -0.0448
 9996TIP3    H154183   4.863   1.495  12.689  0.1158  1.6242 -0.5645
 9996TIP3    H254184   4.768   1.603  12.738 -1.3148 -0.9169  2.6503
 9997TIP3   OH254185   2.022   7.022  11.538 -0.6646 -0.1992 -0.4220
 9997TIP3    H154186   2.024   7.117  11.546  0.0543 -0.2196 -0.2871
 9997TIP3    H254187   2.079   7.002  11.464 -1.5427 -0.4765 -1.0432
 9998TIP3   OH254188   5.279   0.630  12.526  0.1677 -0.0457 -0.6984
 9998TIP3    H154189   5.219   0.661  12.594  0.1151  1.3462 -1.3411
 9998TIP3    H254190   5.222   0.614  12.451  0.4134 -0.0841 -0.8755
 9999TIP3   OH254191   5.598   8.062  11.174 -0.2832 -0.4277  0.0682
 9999TIP3    H154192   5.512   8.101  11.159 -1.3763 -1.6512  2.5369
 9999TIP3    H254193   5.613   8.073  11.268  1.3691 -1.9847  0.0517
10000TIP3   OH254194   7.694   7.283  11.197  0.1066 -0.4404 -0.2116
10000TIP3    H154195   7.747   7.262  11.120  0.6439 -2.0414  0.5462
10000TIP3    H254196   7.748   7.344  11.247 -0.0914  0.3220 -0.9017
10001TIP3   OH254197   3.596   2.639  11.568  0.2005  0.4635  0.1784
10001TIP3    H154198   3.624   2.646  11.659  0.3248  1.0440  0.0967
10001TIP3    H254199   3.581   2.545  11.555  0.6700  0.3191  0.6481
10002TIP3   OH254200   0.194   3.600  10.874  0.4763  0.1622 -0.0862
10002TIP3    H154201   0.286   3.581  10.894  0.4503 -0.4449 -0.5135
10002TIP3    H254202   0.197   3.681  10.822  0.5929  1.3885  1.7147
10003TIP3   OH254203   7.838   8.047  12.325  0.3258 -0.0536 -0.0838
10003TIP3    H154204   7.920   8.005  12.351  1.4258  0.1881 -2.8110
10003TIP3    H254205   7.865   8.129  12.283 -1.6054  2.1094  2.5295
10004TIP3   OH254206   3.926   5.216  10.758 -0.1958  0.3380  0.0881
10004TIP3    H154207   3.895   5.170  10.680 -0.5438  0.5015  0.1297
10004TIP3    H254208   4.022   5.211  10.751 -0.2181  0.6270 -0.5142
10005TIP3   OH254209   7.962   7.095  11.709 -0.7028 -0.4989 -0.6617
10005TIP3    H154210   8.005   7.084  11.794 -2.2470 -1.1063  0.0717
10005TIP3    H254211   8.014   7.161  11.664 -0.5408  0.7195  1.2305
10006TIP3   OH254212   8.149   5.103  11.920  0.0079 -0.1644 -0.9703
10006TIP3    H154213   8.110   5.178  11.875  0.2032  0.2413 -0.4641
10006TIP3    H254214   8.229   5.084  11.871 -0.8218 -1.0477 -2.0655
10007TIP3   OH254215   8.370   3.477  10.965  0.3715 -0.2919  0.2095
10007TIP3    H154216   8.446   3.514  10.920  0.2242 -0.0577  0.1535
10007TIP3    H254217   8.332   3.416  10.901 -0.6710  1.0866 -0.5498
10008TIP3   OH254218   7.274   2.031  12.296  0.0666 -0.5992 -0.3089
10008TIP3    H154219   7.269   1.998  12.386  0.2388 -1.2236 -0.5281
10008TIP3    H254220   7.190   2.075  12.283  0.7221  1.0931  0.7661
10009TIP3   OH254221   2.212   7.833  10.413  0.1415 -0.4995 -0.4367
10009TIP3    H154222   2.223   7.776  10.489  0.1920  1.1065  0.8198
10009TIP3    H254223   2.195   7.774  10.340 -1.9246 -2.0324  1.1839
10010TIP3   OH254224   7.233   0.627  11.065 -0.1338 -0.5592 -0.5200
10010TIP3    H154225   7.241   0.624  10.970 -0.5142 -2.6560 -0.5301
10010TIP3    H254226   7.146   0.591  11.084  0.3740 -1.2399  0.6543
10011TIP3   OH254227   6.614   1.926  11.885  0.2465  0.5146 -0.0522
10011TIP3    H154228   6.570   1.964  11.961  0.1320  1.4448 -0.5629
10011TIP3    H254229   6.685   1.987  11.865  1.5141 -0.7216  0.4646
10012TIP3   OH254230   5.772   4.851  12.659 -0.3468 -0.3116  0.1191
10012TIP3    H154231   5.748   4.943  12.676  0.0211 -0.3887  1.1113
10012TIP3    H254232   5.862   4.844  12.690 -0.9920 -1.4740  1.8528
10013TIP3   OH254233   0.492   2.982  12.096  0.2396  0.6924  0.6724
10013TIP3    H154234   0.527   3.064  12.131  0.0490  0.6263  1.0199
10013TIP3    H254235   0.505   2.988  12.001 -0.4209  1.4350  0.6219
10014TIP3   OH254236   5.681   6.789  10.937  0.7242 -0.3487 -0.1932
10014TIP3    H154237   5.635   6.867  10.969  0.1136 -0.1390 -1.5332
10014TIP3    H254238   5.770   6.820  10.920  0.8616 -0.2927  0.5594
10015TIP3   OH254239   1.548   8.044  11.453 -0.4400 -0.4166 -0.1857
10015TIP3    H154240   1.595   8.033  11.536 -0.5553 -0.8802 -0.1808
10015TIP3    H254241   1.471   8.096  11.476  0.3539  0.8369 -0.2968
10016TIP3   OH254242   2.859   4.158  12.162 -0.3019 -0.0753  0.5296
10016TIP3    H154243   2.851   4.247  12.195  1.6765  0.7788 -1.0423
10016TIP3    H254244   2.952   4.136  12.174 -0.9622 -2.3896  1.9175
10017TIP3   OH254245   0.815   0.356  10.919 -0.0548 -0.3270  0.3794
10017TIP3    H154246   0.758   0.394  10.985 -1.0170 -0.9982 -0.0460
10017TIP3    H254247   0.761   0.349  10.840  0.0717 -2.4791  0.4216
10018TIP3   OH254248   0.713   3.188  12.102 -0.0603  0.2523 -0.0654
10018TIP3    H154249   0.784   3.252  12.111 -0.7148  1.1010 -0.7120
10018TIP3    H254250   0.696   3.185  12.008 -0.7188 -0.1266  0.0618
10019TIP3   OH254251   1.375   5.240  12.065 -0.2075  0.8785 -0.2025
10019TIP3    H154252   1.357   5.239  11.971 -0.1566  0.3826 -0.2105
10019TIP3    H254253   1.447   5.302  12.075  1.3959 -0.8053 -0.8114
10020TIP3   OH254254   5.031   0.554  12.401 -0.2751 -0.1015 -0.3636
10020TIP3    H154255   5.027   0.486  12.334 -0.3025  0.1926 -0.6609
10020TIP3    H254256   4.968   0.620  12.371 -0.1895  0.0898 -0.1142
10021TIP3   OH254257   4.412   5.373  11.296  0.2623 -0.2113 -0.8198
10021TIP3    H154258   4.422   5.429  11.219  0.7864  1.0685  0.1606
10021TIP3    H254259   4.321   5.344  11.293  0.2140  0.0198 -1.7796
10022TIP3   OH254260   3.427   7.278  11.288  0.2109 -0.3701  0.2609
10022TIP3    H154261   3.448   7.371  11.278 -0.9223 -0.0890  0.3452
10022TIP3    H254262   3.451   7.239  11.204 -0.2391  0.1991 -0.1442
10023TIP3   OH254263   4.130   5.625  11.128  0.4349 -0.0537 -0.6404
10023TIP3    H154264   4.116   5.552  11.069 -2.4604 -0.3666  0.2704
10023TIP3    H254265   4.049   5.675  11.124  0.8499  0.9344  1.6538
10024TIP3   OH254266   4.439   2.927  12.627 -0.0115  0.0867  0.4383
10024TIP3    H154267   4.520   2.977  12.640 -0.2288  1.1827 -1.8236
10024TIP3    H254268   4.382   2.987  12.579 -0.2204 -2.2785 -2.6048
10025TIP3   OH254269   2.162   6.651  12.235 -0.2435 -0.1272 -1.0668
10025TIP3    H154270   2.147   6.632  12.143  0.7554  0.8134 -1.4452
10025TIP3    H254271   2.105   6.590  12.282  0.0162 -1.3566 -2.2743
10026TIP3   OH254272   5.520   0.298  11.479  0.5281 -0.3972 -0.5731
10026TIP3    H154273   5.538   0.267  11.568  0.6680  0.6888 -0.2045
10026TIP3    H254274   5.427   0.318  11.478  0.4134 -0.9329 -0.8444
10027TIP3   OH254275   4.711   2.328  11.809 -0.6180 -0.2163  0.0808
10027TIP3    H154276   4.620   2.300  11.817 -0.4124 -0.5009  1.9925
10027TIP3    H254277   4.720   2.400  11.872  0.4002  0.0271 -0.3124
10028TIP3   OH254278   7.176   1.084  12.211  0.2650  0.0253  0.2237
10028TIP3    H154279   7.090   1.126  12.201  0.3955 -0.2848 -3.7079
10028TIP3    H254280   7.235   1.155  12.235 -0.3454  1.2205 -1.6376
10029TIP3   OH254281   4.045   6.208  10.719  0.1176 -0.1524  0.1088
10029TIP3    H154282   4.139   6.209  10.703 -0.1752  0.0111 -1.9156
10029TIP3    H254283   4.006   6.207  10.631 -1.7840  2.2761  0.8015
10030TIP3   OH254284   0.766   7.415  11.564  0.8019  0.1798  0.0933
10030TIP3    H154285   0.836   7.375  11.616  0.5302 -0.6513 -0.1603
10030TIP3    H254286   0.808   7.487  11.518  0.7350  1.9509  2.6207
10031TIP3   OH254287   4.229   6.057  11.162 -0.1337 -0.1928 -0.0715
10031TIP3    H154288   4.216   6.116  11.087 -0.5297 -1.8531 -1.3693
10031TIP3    H254289   4.248   5.972  11.122  2.1697 -0.6214  1.7397
10032TIP3   OH254290   7.738   2.139  11.772  0.2545 -0.8681 -0.4729
10032TIP3    H154291   7.784   2.075  11.717 -0.6152 -1.8612 -0.0923
10032TIP3    H254292   7.646   2.122  11.756  0.0032 -0.1857  0.1997
10033TIP3   OH254293   3.332   2.034  12.986  0.3851  0.3132 -0.2785
10033TIP3    H154294   3.341   2.103  12.920  0.6633  0.9329  0.4009
10033TIP3    H254295   3.420   2.022  13.021  0.1299  0.4329  0.4230
10034TIP3   OH254296   3.525   8.245  12.189 -0.6522  0.1804  0.0919
10034TIP3    H154297   3.434   8.229  12.162 -0.2543 -0.9310 -0.6093
10034TIP3    H254298   3.518   8.271  12.281 -1.6962  0.3579 -0.0237
10035TIP3   OH254299   3.659   6.048  11.510 -0.2246  0.2337  0.0493
10035TIP3    H154300   3.638   5.965  11.467  0.6234  0.2046 -0.3161
10035TIP3    H254301   3.621   6.115  11.453 -1.2574  0.1016  0.5449
10036TIP3   OH254302   7.323   2.494  11.828 -0.5719  0.7832 -0.0146
10036TIP3    H154303   7.275   2.415  11.802 -0.7131  0.4314  1.2490
10036TIP3    H254304   7.368   2.522  11.748 -3.7167  1.7811 -1.6192
10037TIP3   OH254305   4.281   5.651  11.985 -0.1984 -0.1102  0.2584
10037TIP3    H154306   4.218   5.599  12.035  0.1889  0.0126  0.8816
10037TIP3    H254307   4.227   5.702  11.924 -0.9243  1.5401  2.1531
10038TIP3   OH254308   6.273   2.829  12.693  0.0046 -0.6130 -0.0721
10038TIP3    H154309   6.359   2.795  12.719  0.4563  0.9069  0.5363
10038TIP3    H254310   6.212   2.788  12.754  0.6030  0.0123  0.9849
10039TIP3   OH254311   3.340   0.240  10.860  1.0260 -0.0958  0.8833
10039TIP3    H154312   3.432   0.216  10.874  1.2343  1.2678  2.0087
10039TIP3    H254313   3.291   0.161  10.883  1.8725 -0.6153  0.9451
10040TIP3   OH254314   7.893   6.228  12.055 -0.3840 -0.7701  0.1433
10040TIP3    H154315   7.952   6.279  12.111 -2.1405 -0.0081  1.3926
10040TIP3    H254316   7.951   6.171  12.005  1.6260  1.6952 -0.5707
10041TIP3   OH254317   5.881   7.957  11.701  0.2799 -0.0296 -0.1900
10041TIP3    H154318   5.873   7.921  11.613 -1.4090  2.0363 -0.9746
10041TIP3    H254319   5.974   7.980  11.709  0.1809  1.3035 -2.1380
10042TIP3   OH254320   4.370   0.949  12.526  0.6386 -0.0057  0.4906
10042TIP3    H154321   4.441   0.893  12.558 -0.6934 -1.4996  1.0029
10042TIP3    H254322   4.408   1.036  12.520  3.0673 -1.0585 -1.1134
10043TIP3   OH254323   2.960   4.989  10.642 -0.0661 -0.0631  0.6503
10043TIP3    H154324   3.030   5.042  10.603  0.3568 -0.8819  0.2629
10043TIP3    H254325   2.919   5.046  10.706  1.1428  0.3462  1.0811
10044TIP3   OH254326   3.920   2.649  10.924  0.2568  0.0133 -0.0045
10044TIP3    H154327   3.871   2.629  11.004  0.7908 -0.5864  0.1878
10044TIP3    H254328   4.012   2.636  10.949  0.3934 -0.8578 -0.8862
10045TIP3   OH254329   1.591   0.292  12.204 -0.0787 -0.2014 -0.8245
10045TIP3    H154330   1.576   0.198  12.211  0.8858 -0.2904  0.3586
10045TIP3    H254331   1.679   0.306  12.239 -0.3714  1.1987 -0.5525
10046TIP3   OH254332   2.377   4.266  12.268 -0.0216 -0.2482  0.0078
10046TIP3    H154333   2.381   4.192  12.329  0.8757 -0.3804 -0.2040
10046TIP3    H254334   2.421   4.337  12.314  1.5023 -0.6099 -0.8280
10047TIP3   OH254335   7.252   3.650  11.341 -0.1037 -0.3272 -0.1487
10047TIP3    H154336   7.304   3.709  11.396  0.2723 -0.4794 -0.3335
10047TIP3    H254337   7.294   3.565  11.352  0.2763 -0.2690 -1.0396
10048TIP3   OH254338   3.569   0.642  12.644  0.2402  0.2985 -0.6628
10048TIP3    H154339   3.489   0.593  12.628  0.0536 -0.2762  1.6419
10048TIP3    H254340   3.632   0.576  12.675  0.8152  1.1102 -0.0481
10049TIP3   OH254341   7.159   5.686  11.881  0.2019  0.0534  0.4078
10049TIP3    H154342   7.214   5.621  11.838 -1.4440 -0.6496 -0.7533
10049TIP3    H254343   7.179   5.768  11.836 -0.4322 -0.4012 -0.7583
10050TIP3   OH254344   4.475   1.059  12.180  0.6990  0.2000  0.1421
10050TIP3    H154345   4.526   1.015  12.248 -0.7822 -2.1184 -0.1267
10050TIP3    H254346   4.385   1.056  12.212 -0.0805 -1.1710 -1.9616
10051TIP3   OH254347   7.524   5.166  10.581 -0.5272  0.4603 -0.5042
10051TIP3    H154348   7.479   5.201  10.504 -1.3965 -0.5063 -0.4639
10051TIP3    H254349   7.504   5.228  10.651 -0.2614  1.0066 -0.9060
10052TIP3   OH254350   2.729   2.170  10.805 -0.0181 -0.4671 -0.0027
10052TIP3    H154351   2.727   2.090  10.857  0.2003 -1.0220 -0.8192
10052TIP3    H254352   2.682   2.234  10.858 -0.4227 -1.2056  0.5580
10053TIP3   OH254353   6.137   3.917  12.112  0.0163 -0.0776  0.0057
10053TIP3    H154354   6.185   3.911  12.195 -2.7393  1.2602  1.8292
10053TIP3    H254355   6.206   3.922  12.045  2.3732  0.4572  2.3084
10054TIP3   OH254356   1.079   2.778  12.608  0.5461 -0.2910 -0.3573
10054TIP3    H154357   0.994   2.769  12.565 -0.0221 -0.0730  0.6696
10054TIP3    H254358   1.143   2.776  12.537 -0.4280  1.3968 -1.3558
10055TIP3   OH254359   0.811   7.110  12.249 -0.3838 -0.7388  0.5369
10055TIP3    H154360   0.736   7.051  12.259 -0.1411 -1.0637  0.4573
10055TIP3    H254361   0.867   7.091  12.324 -1.5228  1.2334  1.9704
10056TIP3   OH254362   7.679   1.048  10.767 -0.0174  0.3415 -0.2011
10056TIP3    H154363   7.696   1.000  10.687 -2.7897 -0.1692 -0.5888
10056TIP3    H254364   7.606   1.001  10.808 -0.6524  2.3150  1.0699
10057TIP3   OH254365   3.935   7.420  11.912 -0.9747 -1.1433 -0.0838
10057TIP3    H154366   3.989   7.495  11.889  0.5034 -2.6421 -1.8332
10057TIP3    H254367   3.912   7.433  12.004  1.9720 -0.1650  0.5855
10058TIP3   OH254368   3.150   6.656  11.620 -0.2863 -0.0664  0.2298
10058TIP3    H154369   3.143   6.704  11.537  0.4330  0.2293  0.3353
10058TIP3    H254370   3.099   6.709  11.682  0.9759  0.8921  0.4828
10059TIP3   OH254371   1.362   0.512  10.797 -0.1362 -0.7821  0.6606
10059TIP3    H154372   1.378   0.534  10.705  0.4138 -1.9195  0.4764
10059TIP3    H254373   1.282   0.560  10.819  0.0817  0.0164 -0.2178
10060TIP3   OH254374   1.849   1.509  10.772  0.9367 -0.0527  0.5035
10060TIP3    H154375   1.864   1.493  10.865  0.0363 -2.5197  0.2797
10060TIP3    H254376   1.937   1.507  10.733  1.2233 -0.0107  1.1334
10061TIP3   OH254377   5.055   6.946  11.221 -0.5956  0.4532  0.1804
10061TIP3    H154378   4.968   6.925  11.255 -0.8875 -0.8930 -1.2768
10061TIP3    H254379   5.046   6.939  11.126  1.4411 -1.3194  0.0340
10062TIP3   OH254380   7.211   0.646  10.809  0.1735  0.2873 -0.6706
10062TIP3    H154381   7.184   0.731  10.774  0.6317  0.5521 -0.3918
10062TIP3    H254382   7.159   0.583  10.760 -0.9532  0.7833 -0.1453
10063TIP3   OH254383   6.178   6.274  10.822 -0.1998 -0.0259 -0.5309
10063TIP3    H154384   6.238   6.207  10.855  0.3682 -0.0394 -1.5455
10063TIP3    H254385   6.155   6.245  10.734 -2.8870 -0.7932  0.3123
10064TIP3   OH254386   6.600   4.338  12.192 -0.5593 -0.4186  0.1436
10064TIP3    H154387   6.517   4.320  12.236 -1.0810  3.8808  1.4071
10064TIP3    H254388   6.579   4.407  12.128  1.9868  0.9107  0.5870
10065TIP3   OH254389   3.940   6.151  10.490 -0.3569 -0.2704  0.4572
10065TIP3    H154390   3.860   6.203  10.490 -1.9559 -2.5502  0.1994
10065TIP3    H254391   3.917   6.072  10.539  1.3543 -1.5444 -0.6836
10066TIP3   OH254392   7.823   0.365  11.853 -0.6297 -0.1395 -0.0655
10066TIP3    H154393   7.912   0.382  11.823 -0.5042 -0.8140 -0.0924
10066TIP3    H254394   7.767   0.409  11.789 -0.3183  1.4940  0.7142
10067TIP3   OH254395   2.255   8.104  11.491 -0.2208  0.1225  0.3767
10067TIP3    H154396   2.297   8.148  11.417  0.0011  0.5732  0.7646
10067TIP3    H254397   2.178   8.061  11.453 -1.2753  2.0506  0.2291
10068TIP3   OH254398   2.868   5.369  10.612  0.2661  0.3202 -0.3840
10068TIP3    H154399   2.879   5.462  10.594 -3.3753  0.6307 -1.9304
10068TIP3    H254400   2.832   5.365  10.701  0.0810  0.4397 -0.4531
10069TIP3   OH254401   6.077   5.125  11.419 -0.3993  0.5268  0.0013
10069TIP3    H154402   6.065   5.047  11.364  0.7953  0.0889  0.3188
10069TIP3    H254403   6.170   5.122  11.444 -0.4361  1.8261  0.3712
10070TIP3   OH254404   3.480   4.138  10.855 -0.0429  0.1475 -0.2619
10070TIP3    H154405   3.399   4.184  10.875 -0.0655 -0.5621  1.4544
10070TIP3    H254406   3.463   4.096  10.770 -1.0645  0.8734 -0.4358
10071TIP3   OH254407   2.483   1.899  11.687  0.2495 -0.2065 -0.4065
10071TIP3    H154408   2.482   1.995  11.690  0.8794 -0.0980 -2.0683
10071TIP3    H254409   2.392   1.873  11.699  0.1412  0.5688  0.5613
10072TIP3   OH254410   6.503   1.969  10.742 -0.3643 -0.3325 -0.1099
10072TIP3    H154411   6.507   2.040  10.678  1.5771 -0.3505 -0.0744
10072TIP3    H254412   6.558   1.900  10.705  1.2708 -0.1423  1.7510
10073TIP3   OH254413   7.499   2.880  12.196 -0.6228 -0.2320 -0.0744
10073TIP3    H154414   7.462   2.873  12.284  0.8166  0.4021  0.6176
10073TIP3    H254415   7.487   2.794  12.158 -0.3810 -0.8166  1.1252
10074TIP3   OH254416   2.356   4.954  10.512 -0.0723  0.8640 -0.0181
10074TIP3    H154417   2.279   4.987  10.559  0.5258  0.3201  1.4147
10074TIP3    H254418   2.363   5.011  10.435 -1.4563  1.4002  0.2199
10075TIP3   OH254419   6.571   1.233  12.730 -0.1074 -0.3558  0.4154
10075TIP3    H154420   6.649   1.286  12.746  1.8367 -2.5484 -1.0383
10075TIP3    H254421   6.580   1.159  12.791 -0.9185 -0.7574  0.0587
10076TIP3   OH254422   2.100   2.393  11.814 -0.7459  0.3303  0.0852
10076TIP3    H154423   2.056   2.478  11.807 -0.6313  0.2644 -2.2494
10076TIP3    H254424   2.063   2.341  11.743  0.7702 -0.8188  0.0876
10077TIP3   OH254425   6.937   5.314  11.208  0.3199 -0.3429  0.4639
10077TIP3    H154426   6.927   5.387  11.147  0.2137 -0.9780 -0.2948
10077TIP3    H254427   6.899   5.239  11.162  2.4051 -1.3599  0.2908
10078TIP3   OH254428   3.173   1.891  12.778 -0.9804 -0.4669  0.1780
10078TIP3    H154429   3.231   1.883  12.854  0.2402  0.6647 -0.6051
10078TIP3    H254430   3.218   1.842  12.709 -1.8083 -1.0100  0.0100
10079TIP3   OH254431   4.854   0.395  11.826 -0.2292 -0.6237 -0.2983
10079TIP3    H154432   4.800   0.460  11.870  0.1503  0.2499 -1.0780
10079TIP3    H254433   4.822   0.395  11.735  0.3256 -0.9118 -0.5004
10080TIP3   OH254434   6.855   2.834  10.846 -0.1127  0.2255 -0.4531
10080TIP3    H154435   6.862   2.792  10.761 -0.8789 -1.4236  0.2470
10080TIP3    H254436   6.765   2.816  10.874  0.5946 -0.7235  1.3939
10081TIP3   OH254437   2.431   1.350  11.686  0.3189 -0.6972 -0.1209
10081TIP3    H154438   2.373   1.312  11.752  1.4118  0.0677  1.3281
10081TIP3    H254439   2.372   1.396  11.626 -0.6256 -0.1197  1.1949
10082TIP3   OH254440   1.393   2.146  12.470  0.1907 -0.0392 -0.1111
10082TIP3    H154441   1.452   2.180  12.538  0.8524  0.0156 -0.7061
10082TIP3    H254442   1.315   2.201  12.476 -0.2680 -0.7643  1.3933
10083TIP3   OH254443   2.596   3.865  11.537 -0.0064  0.0340  0.3122
10083TIP3    H154444   2.642   3.925  11.596  0.3221  0.8004 -0.6872
10083TIP3    H254445   2.574   3.920  11.461 -0.5669 -0.8843 -0.1987
10084TIP3   OH254446   2.374   5.110  12.426  0.1490 -0.7395 -0.8772
10084TIP3    H154447   2.369   5.055  12.348  0.1931 -1.0024 -0.6965
10084TIP3    H254448   2.343   5.196  12.397  1.0299 -0.5833 -1.4154
10085TIP3   OH254449   0.146   5.936  12.649 -0.3555  0.6485 -0.6714
10085TIP3    H154450   0.146   5.977  12.736 -1.0856 -0.6811 -0.0225
10085TIP3    H254451   0.086   5.990  12.598 -1.8711  0.0233  0.3795
10086TIP3   OH254452   8.134   7.429  11.192 -0.2647  0.6680 -0.2770
10086TIP3    H154453   8.082   7.404  11.268  1.5508 -0.6293  0.6049
10086TIP3    H254454   8.145   7.524  11.201 -0.5484  0.6148  0.7879
10087TIP3   OH254455   5.972   6.001  11.427  0.8779 -0.0673  0.0110
10087TIP3    H154456   6.053   6.021  11.380  0.7480 -0.9012 -0.6067
10087TIP3    H254457   5.990   5.918  11.471  1.2888  1.1080  2.2030
10088TIP3   OH254458   3.505   8.429  12.754 -0.3481 -0.1180  0.3178
10088TIP3    H154459   3.555   8.507  12.779 -0.5889  0.4149 -0.7934
10088TIP3    H254460   3.520   8.420  12.660  0.0583 -1.7161  0.5153
10089TIP3   OH254461   1.538   1.485  11.611  0.9306  0.3083  0.1895
10089TIP3    H154462   1.495   1.448  11.688  1.1702 -0.4641 -0.0410
10089TIP3    H254463   1.584   1.411  11.571  1.0191  0.7543 -0.5535
10090TIP3   OH254464   6.503   5.350  11.343 -0.0477 -0.6301 -0.1059
10090TIP3    H154465   6.408   5.345  11.339 -0.0295 -0.9683 -0.1458
10090TIP3    H254466   6.521   5.388  11.429 -0.1881 -1.9228  0.5242
10091TIP3   OH254467   2.909   1.878  12.947 -0.2128 -0.2605 -0.1499
10091TIP3    H154468   2.861   1.957  12.973 -1.2472 -0.9043 -0.0431
10091TIP3    H254469   2.993   1.910  12.914 -0.4072  0.8422  0.4002
10092TIP3   OH254470   5.551   7.720  10.593 -0.2602 -0.0140 -0.5627
10092TIP3    H154471   5.493   7.683  10.659  1.4117 -1.2161  0.3042
10092TIP3    H254472   5.523   7.678  10.511  0.1948 -1.6150  0.0585
10093TIP3   OH254473   6.876   6.548  11.941  0.5462 -0.5587 -0.5019
10093TIP3    H154474   6.844   6.462  11.912  0.6696 -1.1178  0.9564
10093TIP3    H254475   6.819   6.572  12.014  0.9017  0.3265 -0.5017
10094TIP3   OH254476   3.668   4.947  11.430 -0.1433  0.4107 -0.4030
10094TIP3    H154477   3.648   4.950  11.523  2.1796 -1.8154  0.3024
10094TIP3    H254478   3.730   5.018  11.416  0.7430 -0.2257  0.1665
10095TIP3   OH254479   2.551   6.254  11.379 -0.1916  0.6350 -0.4550
10095TIP3    H154480   2.561   6.179  11.321  0.5028  0.5843 -0.2726
10095TIP3    H254481   2.497   6.316  11.329  0.1671  0.4771 -1.0402
10096TIP3   OH254482   7.995   6.074  12.508 -0.1380  0.2085  0.3580
10096TIP3    H154483   7.958   6.109  12.588 -2.0381 -0.8652  0.0165
10096TIP3    H254484   8.069   6.131  12.489  0.5766  0.2851  3.0248
10097TIP3   OH254485   7.847   3.371  11.773 -0.4502  0.5942 -0.2912
10097TIP3    H154486   7.885   3.370  11.686 -0.5735  1.4223 -0.3666
10097TIP3    H254487   7.916   3.407  11.829 -1.1140  2.1956 -0.4459
10098TIP3   OH254488   6.661   0.054  11.832  0.0850  0.6386  0.8125
10098TIP3    H154489   6.576   0.018  11.858 -0.8510  1.9753 -0.2541
10098TIP3    H254490   6.678   0.015  11.746  0.0092  1.2423  0.5235
10099TIP3   OH254491   4.680   1.826  11.099  0.3070 -0.2477  0.0088
10099TIP3    H154492   4.769   1.794  11.108  0.1914 -0.4406  0.5458
10099TIP3    H254493   4.687   1.921  11.106  0.2317 -0.3490  2.5830
10100TIP3   OH254494   5.547   7.172  11.277  0.1788 -0.0368  0.3565
10100TIP3    H154495   5.486   7.163  11.350 -0.0151 -0.3044  0.1644
10100TIP3    H254496   5.607   7.098  11.288  1.2578  0.9448  1.2820
10101TIP3   OH254497   7.063   3.917  10.833 -0.0436  0.7489  0.6957
10101TIP3    H154498   7.051   3.985  10.899 -0.7258  1.0278  0.2913
10101TIP3    H254499   7.075   3.965  10.751  2.9960  0.4990  0.8743
10102TIP3   OH254500   2.293   1.782  12.577  0.2207 -0.0948 -0.4272
10102TIP3    H154501   2.208   1.781  12.622  0.6337 -1.8447  0.4112
10102TIP3    H254502   2.334   1.864  12.603 -1.0321  0.5873 -0.5216
10103TIP3   OH254503   5.200   2.681  12.448 -0.0111 -0.1026  0.0447
10103TIP3    H154504   5.128   2.645  12.397 -0.3528 -1.4279  1.3771
10103TIP3    H254505   5.166   2.686  12.537  1.6936 -1.3545  0.8261
10104TIP3   OH254506   3.149   3.020  11.442 -0.0814 -0.7704 -0.1670
10104TIP3    H154507   3.081   3.061  11.389  0.4161 -2.2503 -2.0718
10104TIP3    H254508   3.105   2.948  11.487 -0.0702 -0.8194 -0.2346
10105TIP3   OH254509   6.867   0.899  11.694 -0.1553  0.5039  0.1795
10105TIP3    H154510   6.946   0.853  11.721 -1.7635 -2.5344  0.1270
10105TIP3    H254511   6.821   0.918  11.776 -1.3118 -1.6085  0.0824
10106TIP3   OH254512   3.443   1.077  11.209 -0.1019  0.0147 -0.0237
10106TIP3    H154513   3.390   1.006  11.246 -0.0930  0.1471  0.2453
10106TIP3    H254514   3.531   1.061  11.243  0.6709 -1.7837 -2.6077
10107TIP3   OH254515   4.860   4.955  11.464  0.0137 -0.2806  0.2262
10107TIP3    H154516   4.808   5.011  11.406 -0.2997 -0.1000  0.6733
10107TIP3    H254517   4.946   4.951  11.422 -0.1754 -0.0694 -0.1967
10108TIP3   OH254518   1.045   6.732  11.098 -0.0112  0.2550  0.3337
10108TIP3    H154519   1.000   6.649  11.081  1.7171 -0.3424 -1.7077
10108TIP3    H254520   0.997   6.796  11.045 -0.5653  0.3483  0.9257
10109TIP3   OH254521   0.904   0.419  10.411  0.4843 -0.1955  0.1586
10109TIP3    H154522   0.898   0.323  10.415  0.6302 -0.1803  3.3367
10109TIP3    H254523   0.828   0.446  10.361 -1.9379 -1.8678  2.6425
10110TIP3   OH254524   3.818   5.346  10.974 -0.4881 -0.3158  0.0065
10110TIP3    H154525   3.845   5.285  10.906  1.5940  0.5920 -0.0273
10110TIP3    H254526   3.817   5.293  11.054  1.9032 -0.3360  0.0850
10111TIP3   OH254527   6.690   6.347  12.183  0.2665 -0.6072  0.2232
10111TIP3    H154528   6.667   6.440  12.188  0.4808 -0.5467  0.0693
10111TIP3    H254529   6.638   6.306  12.253 -0.1334 -0.4322  0.0348
10112TIP3   OH254530   8.385   6.903  11.867  0.0962  0.1918 -0.1881
10112TIP3    H154531   8.301   6.909  11.911  0.4366  0.3661  0.4466
10112TIP3    H254532   8.412   6.811  11.878  0.1633  0.2260 -0.0647
10113TIP3   OH254533   3.665   7.569  11.678  0.3748  0.7411 -0.3836
10113TIP3    H154534   3.672   7.480  11.646 -0.3157  1.0688 -1.4555
10113TIP3    H254535   3.751   7.608  11.660  1.0133  0.0368  0.9672
10114TIP3   OH254536   6.396   7.839  11.809  0.4249  0.0191  0.1320
10114TIP3    H154537   6.337   7.767  11.829 -2.4150  2.2188  0.2377
10114TIP3    H254538   6.466   7.799  11.757 -1.7601 -2.5438 -1.0521
10115TIP3   OH254539   5.553   6.925  11.474  0.4984  0.2222 -0.0423
10115TIP3    H154540   5.497   6.945  11.549  1.8585  1.1976  0.7712
10115TIP3    H254541   5.639   6.960  11.499  0.9586  0.6813 -2.1108
10116TIP3   OH254542   6.609   0.368  12.723 -0.2954 -0.4964  0.2987
10116TIP3    H154543   6.553   0.291  12.716  0.3029 -0.9211  0.0934
10116TIP3    H254544   6.675   0.356  12.655  0.2809 -0.1980  0.7966
10117TIP3   OH254545   6.681   5.184  12.471 -0.3651 -0.1012 -0.7926
10117TIP3    H154546   6.756   5.243  12.481 -0.7659  0.1923  0.7703
10117TIP3    H254547   6.604   5.239  12.487 -0.7058 -1.1927  2.0664
10118TIP3   OH254548   2.296   2.757  12.146 -0.0101  0.1212 -0.0142
10118TIP3    H154549   2.351   2.701  12.201  0.3716 -0.0736 -0.5861
10118TIP3    H254550   2.242   2.697  12.095 -1.6464  0.3217  1.4042
10119TIP3   OH254551   7.760   6.540  12.523 -0.0631 -0.5951  0.3163
10119TIP3    H154552   7.838   6.561  12.575  2.4800 -2.0534 -2.5840
10119TIP3    H254553   7.788   6.549  12.432 -3.9395  0.7404 -0.9679
10120TIP3   OH254554   3.600   4.863  10.494 -0.1435  0.0253 -0.1122
10120TIP3    H154555   3.508   4.857  10.522  0.4660 -0.5211  1.9173
10120TIP3    H254556   3.644   4.793  10.541  1.2895  0.0520 -1.3323
10121TIP3   OH254557   4.003   1.618  12.241  0.4038 -0.0215 -0.6550
10121TIP3    H154558   4.035   1.535  12.276  0.3151 -0.5792 -1.8416
10121TIP3    H254559   4.082   1.668  12.224  0.6617 -0.9885 -2.5881
10122TIP3   OH254560   2.493   5.296  11.788  0.4552  0.2382  0.3695
10122TIP3    H154561   2.476   5.279  11.696  1.1127 -0.1657  0.3108
10122TIP3    H254562   2.465   5.386  11.802  0.5937  0.3900 -0.2907
10123TIP3   OH254563   1.632   0.849  12.054 -0.0261 -0.0172  0.1763
10123TIP3    H154564   1.698   0.799  12.104  1.3746  0.3291 -1.2633
10123TIP3    H254565   1.631   0.808  11.968 -1.2191  0.4356 -0.0432
10124TIP3   OH254566   2.811   0.052  12.061  0.0829  0.3748  0.1058
10124TIP3    H154567   2.825   0.014  11.974 -0.6429  3.1156 -1.3303
10124TIP3    H254568   2.724   0.023  12.087  1.1697 -2.3555  1.0875
10125TIP3   OH254569   4.912   4.792  12.463  0.0004  0.1706 -0.1560
10125TIP3    H154570   4.849   4.720  12.466 -2.3524  2.1257  0.5830
10125TIP3    H254571   4.895   4.842  12.543  0.8797  2.0799 -1.0971
10126TIP3   OH254572   7.404   7.637  10.928  0.0250 -0.0727  0.3567
10126TIP3    H154573   7.366   7.642  10.840 -1.2550  0.5499  0.9013
10126TIP3    H254574   7.397   7.727  10.961 -0.7310 -0.5439  1.5506
10127TIP3   OH254575   2.027   3.725  10.204  0.4981 -0.0761 -1.0111
10127TIP3    H154576   1.946   3.774  10.213  0.4022 -0.2414 -0.9768
10127TIP3    H254577   2.083   3.781  10.150  0.1944 -0.1667 -1.4225
10128TIP3   OH254578   6.377   7.292  12.056  0.0412  0.0854  0.1208
10128TIP3    H154579   6.413   7.311  11.969 -0.2166  1.1143  0.2349
10128TIP3    H254580   6.310   7.225  12.040 -0.2161  0.4896 -0.5137
10129TIP3   OH254581   3.637   3.326  11.510  0.4378  0.0493 -0.0747
10129TIP3    H154582   3.557   3.353  11.556  0.3902  2.5296 -1.4550
10129TIP3    H254583   3.630   3.367  11.424  2.2275 -1.4655 -1.0053
10130TIP3   OH254584   5.177   5.229  10.500  0.7406 -0.1924 -0.2471
10130TIP3    H154585   5.179   5.300  10.435 -0.4126  0.2548  0.1799
10130TIP3    H254586   5.266   5.226  10.535  0.7153  1.3235  0.0159
10131TIP3   OH254587   6.803   7.252  11.576 -0.5786 -0.0668 -0.0698
10131TIP3    H154588   6.857   7.323  11.608 -0.2556 -0.5455  0.4644
10131TIP3    H254589   6.741   7.235  11.647  0.0569 -1.0467  0.2659
10132TIP3   OH254590   8.137   5.861  10.332  0.1216  0.3304  0.5458
10132TIP3    H154591   8.132   5.832  10.241 -0.2545  0.3832  0.5484
10132TIP3    H254592   8.094   5.791  10.382 -0.5227  0.7516  0.5812
10133TIP3   OH254593   0.590   6.261  10.788 -0.0609  0.4534 -0.5058
10133TIP3    H154594   0.556   6.175  10.812  0.9968  0.6775  2.1715
10133TIP3    H254595   0.515   6.308  10.752 -0.8969 -1.2295 -1.0517
10134TIP3   OH254596   2.346   7.805  10.940 -0.1388 -0.3517 -0.2313
10134TIP3    H154597   2.377   7.872  10.879 -0.8427  1.1679  1.0249
10134TIP3    H254598   2.396   7.820  11.020 -1.8199  0.1196  0.7800
10135TIP3   OH254599   0.425   8.339  10.787  0.2893 -0.0819 -0.2197
10135TIP3    H154600   0.465   8.421  10.756 -0.7376  0.2947 -0.6080
10135TIP3    H254601   0.453   8.273  10.723  0.7331  0.0705 -0.1796
10136TIP3   OH254602   8.071   3.662  11.723  0.1652 -0.3995 -0.1619
10136TIP3    H154603   7.984   3.663  11.761 -0.4415  0.1895 -1.5024
10136TIP3    H254604   8.127   3.704  11.788 -0.4919 -1.0030  0.8117
10137TIP3   OH254605   0.767   1.866  10.370  0.2910 -0.3393 -0.2117
10137TIP3    H154606   0.851   1.903  10.341  0.2172  1.0639  1.2288
10137TIP3    H254607   0.791   1.783  10.410  1.1104  0.3232  0.7378
10138TIP3   OH254608   3.123   5.592  11.547 -0.0589 -0.6363  0.2807
10138TIP3    H154609   3.121   5.679  11.587  1.5664 -2.3551  4.7213
10138TIP3    H254610   3.048   5.546  11.584  1.8462 -2.5140  2.0803
10139TIP3   OH254611   4.987   2.870  11.345  0.4267 -0.2778  0.1318
10139TIP3    H154612   5.058   2.841  11.288 -0.0457 -1.2318  0.0094
10139TIP3    H254613   4.913   2.813  11.323 -0.7865  1.4874 -0.6215
10140TIP3   OH254614   5.290   3.164  11.359 -0.1835  0.3686  0.1297
10140TIP3    H154615   5.335   3.239  11.320 -0.9941  0.8673  0.1204
10140TIP3    H254616   5.357   3.095  11.363  0.2141  0.6388 -1.1471
10141TIP3   OH254617   0.665   4.141  12.087 -0.3557  0.3623 -0.0514
10141TIP3    H154618   0.683   4.050  12.061 -2.9437 -0.0814 -0.5413
10141TIP3    H254619   0.729   4.193  12.039  1.6134 -1.1854  0.7154
10142TIP3   OH254620   4.060   5.971  12.005  0.0824 -0.1310 -0.1626
10142TIP3    H154621   4.046   5.884  12.042 -0.2623  0.4122  1.0436
10142TIP3    H254622   4.033   6.031  12.075  1.4645  0.9496 -0.5229
10143TIP3   OH254623   8.162   7.731  11.172  0.1809  0.1818 -0.1073
10143TIP3    H154624   8.255   7.739  11.148  0.1308 -1.7970 -1.1626
10143TIP3    H254625   8.115   7.753  11.092 -0.1049 -2.5515 -0.7795
10144TIP3   OH254626   5.151   7.193  11.967 -0.1217 -0.1598 -0.3896
10144TIP3    H154627   5.189   7.108  11.986 -0.4354 -0.0229  0.9700
10144TIP3    H254628   5.108   7.219  12.049  2.1263  2.4562  0.1429
10145TIP3   OH254629   3.701   3.037  11.908  0.0105 -0.1094  0.2098
10145TIP3    H154630   3.700   3.112  11.849 -1.8410 -0.8997 -0.8767
10145TIP3    H254631   3.756   2.972  11.864  0.6785  0.1912  0.5932
10146TIP3   OH254632   0.738   3.352  10.990  0.1458 -0.0534  0.0240
10146TIP3    H154633   0.791   3.371  11.068 -0.1911 -1.8748  0.7480
10146TIP3    H254634   0.794   3.294  10.937 -0.2971 -0.2282 -0.2556
10147TIP3   OH254635   4.961   5.976  11.143  0.1115 -0.6276  0.0337
10147TIP3    H154636   4.935   6.000  11.232 -4.0420  0.2574 -1.1966
10147TIP3    H254637   5.056   5.985  11.142  0.1190  1.4469  3.7552
10148TIP3   OH254638   2.587   2.913  10.508  0.1275 -0.1876 -0.1499
10148TIP3    H154639   2.682   2.907  10.502  0.4024  0.9216  2.1118
10148TIP3    H254640   2.559   2.828  10.543  0.5421  0.2618  1.3025
10149TIP3   OH254641   7.988   7.569  11.696 -0.0958 -0.0281 -0.0456
10149TIP3    H154642   7.899   7.603  11.688 -0.3708 -0.6635  0.3338
10149TIP3    H254643   8.042   7.634  11.650 -1.0737 -1.0695 -2.8916
10150TIP3   OH254644   4.998   3.749  10.871  0.0854  0.1322  0.0471
10150TIP3    H154645   4.926   3.789  10.918 -0.4419 -0.0121 -0.6121
10150TIP3    H254646   5.020   3.670  10.921 -1.2005 -0.6166 -0.5121
10151TIP3   OH254647   5.902   7.469  10.804 -0.3291  0.3279 -0.0569
10151TIP3    H154648   5.936   7.398  10.859 -0.9517  0.7889  0.9429
10151TIP3    H254649   5.927   7.549  10.850 -1.0705  0.7181 -0.3209
10152TIP3   OH254650   3.736   4.223  12.010  0.3174 -0.3203  0.0732
10152TIP3    H154651   3.671   4.292  12.021  0.6855 -0.0091  0.3074
10152TIP3    H254652   3.819   4.263  12.036  0.7469 -0.4697 -1.0147
10153TIP3   OH254653   2.888   0.903  11.759 -0.5561 -0.5505  0.3857
10153TIP3    H154654   2.918   0.821  11.720  1.5841  1.1376 -1.8373
10153TIP3    H254655   2.943   0.914  11.837 -2.0429 -1.9564  1.7201
10154TIP3   OH254656   6.003   2.909  11.042  0.2715  0.0185 -0.8152
10154TIP3    H154657   5.965   2.909  10.954  2.8340  1.6631 -2.0482
10154TIP3    H254658   5.969   2.989  11.083  1.9190  1.2548 -1.7545
10155TIP3   OH254659   7.502   3.670  10.380 -0.4323  0.0253  0.4593
10155TIP3    H154660   7.448   3.749  10.370 -1.6961 -0.7693  0.7936
10155TIP3    H254661   7.560   3.690  10.454 -0.4312  0.8017  0.2556
10156TIP3   OH254662   2.886   6.834  10.769  0.2037 -0.2724 -0.3393
10156TIP3    H154663   2.976   6.854  10.745  0.7001 -1.1156  0.7468
10156TIP3    H254664   2.892   6.792  10.854 -1.3839  1.3463  0.6419
10157TIP3   OH254665   5.481   0.556  10.621 -0.6704 -0.5302 -0.2398
10157TIP3    H154666   5.516   0.509  10.545 -0.5481 -0.3494 -0.2986
10157TIP3    H254667   5.559   0.587  10.668 -0.7484  0.2075 -0.5810
10158TIP3   OH254668   4.006   2.138  12.465  0.4304 -0.6337  0.2653
10158TIP3    H154669   4.053   2.102  12.540 -0.6147  0.7741  1.6740
10158TIP3    H254670   3.929   2.082  12.456  0.6382 -0.9009  0.1210
10159TIP3   OH254671   1.388   3.870  11.561  0.4597  0.5105 -0.5556
10159TIP3    H154672   1.427   3.802  11.616  0.2951 -0.4749 -1.6253
10159TIP3    H254673   1.419   3.952  11.599 -1.6688  0.0556  2.6313
10160TIP3   OH254674   2.504   6.621  12.030  0.8243  0.1471 -0.8339
10160TIP3    H154675   2.597   6.597  12.035  0.1860 -2.3401  0.5741
10160TIP3    H254676   2.457   6.541  12.052 -1.6438  1.8175  0.4189
10161TIP3   OH254677   3.679   0.046  12.126 -0.3861  0.5042 -0.0357
10161TIP3    H154678   3.599   0.030  12.076 -0.5905  0.3702  0.3348
10161TIP3    H254679   3.684  -0.027  12.188 -0.1682  0.7052  0.1851
10162TIP3   OH254680   3.198   5.117  10.968 -0.1313 -0.0853  0.1872
10162TIP3    H154681   3.117   5.131  11.017  0.7967 -0.3575  1.8943
10162TIP3    H254682   3.204   5.193  10.909 -0.8057  0.7999  1.2141
10163TIP3   OH254683   8.025   8.212  11.453  0.0391  0.2205 -0.4535
10163TIP3    H154684   8.005   8.118  11.451  1.6101 -0.1358 -0.1758
10163TIP3    H254685   8.047   8.234  11.362 -2.1225  0.7687 -0.9028
10164TIP3   OH254686   5.609   6.670  10.696  0.1224  0.4086 -0.3085
10164TIP3    H154687   5.514   6.662  10.687  0.1111 -1.0344  0.6211
10164TIP3    H254688   5.621   6.716  10.779  0.1905 -0.9876  0.5010
10165TIP3   OH254689   0.438   3.487  12.398 -0.3472  0.0932 -0.6066
10165TIP3    H154690   0.530   3.490  12.372 -0.5903 -0.0539 -1.5227
10165TIP3    H254691   0.416   3.394  12.399 -0.0227 -0.0204  1.4089
10166TIP3   OH254692   5.885   5.572  11.562  0.1811 -0.0392 -0.0909
10166TIP3    H154693   5.955   5.637  11.576  0.6179 -0.3499 -0.7631
10166TIP3    H254694   5.881   5.523  11.644  0.9881 -0.2288 -0.1516
10167TIP3   OH254695   0.858   4.617  11.956  0.5454 -0.0786 -0.0811
10167TIP3    H154696   0.768   4.625  11.986 -0.0816 -0.4034 -1.7401
10167TIP3    H254697   0.910   4.664  12.021 -0.5813 -1.5064  1.9389
10168TIP3   OH254698   0.617   0.129  11.029  0.5916 -0.1648 -0.5925
10168TIP3    H154699   0.555   0.189  10.987 -1.5792 -0.4705  1.8941
10168TIP3    H254700   0.674   0.187  11.080  0.1370 -0.0342 -0.2188
10169TIP3   OH254701   3.767   3.259  11.762 -0.2891 -0.0762 -0.1802
10169TIP3    H154702   3.853   3.255  11.721 -0.1182  2.0371 -0.1252
10169TIP3    H254703   3.724   3.333  11.721 -2.0427 -0.9914 -0.0767
10170TIP3   OH254704   5.906   2.326  11.297 -0.0227  0.8556  0.6402
10170TIP3    H154705   5.866   2.376  11.368 -0.1366 -1.8577  2.6348
10170TIP3    H254706   5.831   2.295  11.245  0.0096  1.9905 -0.1311
10171TIP3   OH254707   0.030   1.092  11.401 -0.5527  0.0408 -0.2411
10171TIP3    H154708  -0.027   1.167  11.418  1.4161  1.8147 -0.9935
10171TIP3    H254709   0.115   1.119  11.434  0.3931 -1.5859 -1.2336
10172TIP3   OH254710   5.721   3.681  10.695  0.1006  0.0004  0.6458
10172TIP3    H154711   5.794   3.626  10.720 -0.0427 -0.6454 -0.3047
10172TIP3    H254712   5.741   3.767  10.734  3.2742  0.9662 -2.5502
10173TIP3   OH254713   0.824   3.770  11.331 -0.3148  0.0302 -0.4684
10173TIP3    H154714   0.905   3.776  11.381  0.0854 -0.9129 -0.9897
10173TIP3    H254715   0.845   3.808  11.245 -1.0741  1.8980  0.1103
10174TIP3   OH254716   7.887   6.880  10.862 -0.2534 -0.3092 -0.7368
10174TIP3    H154717   7.842   6.964  10.870  1.1234  0.4682 -0.8603
10174TIP3    H254718   7.976   6.903  10.836  0.3540 -1.7602 -0.0488
10175TIP3   OH254719   1.918   0.886  11.857  1.0005 -0.0152  0.2018
10175TIP3    H154720   1.954   0.893  11.768 -2.1638 -1.0318 -1.3366
10175TIP3    H254721   1.911   0.792  11.873  1.9767  0.1508  1.7959
10176TIP3   OH254722   4.295   1.542  12.937 -0.4868 -0.0601 -0.2516
10176TIP3    H154723   4.343   1.606  12.884  0.0787 -0.9231 -0.7973
10176TIP3    H254724   4.362   1.495  12.985 -0.5390 -2.5112 -2.3563
10177TIP3   OH254725   4.153   2.348  12.839  0.1639  0.3606  0.3934
10177TIP3    H154726   4.155   2.406  12.762  1.3929 -2.4881 -1.9310
10177TIP3    H254727   4.060   2.328  12.851 -0.0430  0.6633 -0.5656
10178TIP3   OH254728   2.710   3.283  10.880 -0.4791 -0.5476 -0.0322
10178TIP3    H154729   2.727   3.247  10.967 -0.6553 -0.2626  0.1195
10178TIP3    H254730   2.680   3.372  10.896 -2.2972 -1.0858 -0.2855
10179TIP3   OH254731   4.247   1.756  11.635 -0.5209 -0.2232  0.5060
10179TIP3    H154732   4.299   1.801  11.701 -0.3548 -0.1197  0.3033
10179TIP3    H254733   4.278   1.790  11.551 -0.1232 -0.9855  0.3304
10180TIP3   OH254734   3.832   4.389  11.708 -0.8153 -0.1785  0.3503
10180TIP3    H154735   3.841   4.395  11.613 -1.2237  1.3340  0.3751
10180TIP3    H254736   3.769   4.318  11.722 -0.8273 -0.3500 -0.5178
10181TIP3   OH254737   2.910   7.311  11.679  0.0918 -0.2441 -0.0107
10181TIP3    H154738   2.915   7.403  11.656  0.7889 -0.2471  0.1170
10181TIP3    H254739   2.914   7.310  11.775 -0.5711 -0.3718  0.0235
10182TIP3   OH254740   2.974   2.276  10.695  0.0470 -0.2039 -0.4260
10182TIP3    H154741   2.889   2.251  10.731  0.2165 -2.3887 -1.3690
10182TIP3    H254742   2.978   2.371  10.706 -1.6683 -0.2816  1.4023
10183TIP3   OH254743   0.785   7.626  10.733 -0.2447 -0.1710 -0.1835
10183TIP3    H154744   0.850   7.615  10.664  1.0333  3.6786  0.1839
10183TIP3    H254745   0.835   7.619  10.814 -0.4102  1.6780  0.1267
10184TIP3   OH254746   5.994   2.087  11.909 -0.1952 -0.1385 -0.0295
10184TIP3    H154747   5.909   2.118  11.942 -0.6303 -0.5671 -0.7054
10184TIP3    H254748   6.039   2.054  11.987 -0.0877  1.3060  0.5582
10185TIP3   OH254749   2.179   4.304  10.655  0.0162  0.0765  0.0531
10185TIP3    H154750   2.249   4.318  10.592  0.2514  1.7818  0.6416
10185TIP3    H254751   2.183   4.211  10.676  2.4830  0.2340  0.4929
10186TIP3   OH254752   6.423   1.128  12.104 -0.0935 -0.2897 -0.0316
10186TIP3    H154753   6.344   1.135  12.158  1.1846 -0.5110  1.9614
10186TIP3    H254754   6.461   1.043  12.126  1.9172  0.7709  0.8623
10187TIP3   OH254755   0.090   7.327  11.785 -0.2616 -0.6550 -0.7646
10187TIP3    H154756   0.134   7.269  11.847 -0.8312 -0.8434 -0.5250
10187TIP3    H254757   0.026   7.270  11.741  1.0738 -0.8571 -2.5365
10188TIP3   OH254758   1.659   6.010  12.637 -0.2154  0.4986  0.4041
10188TIP3    H154759   1.698   6.024  12.723  2.4650 -0.0272 -0.6255
10188TIP3    H254760   1.665   6.095  12.594  0.5779  0.2226 -0.0425
10189TIP3   OH254761   4.741   1.563  10.666  0.2556 -0.5421  0.1417
10189TIP3    H154762   4.816   1.561  10.726 -1.5866  1.0547  2.7371
10189TIP3    H254763   4.715   1.655  10.664 -1.3039 -0.9700 -1.1208
10190TIP3   OH254764   3.500   1.971  10.795  0.5018 -0.1749  0.1430
10190TIP3    H154765   3.490   1.918  10.716  0.2381  0.1435 -0.0431
10190TIP3    H254766   3.423   1.949  10.848  0.2774  0.1764 -0.0312
10191TIP3   OH254767   6.496   1.135  11.053 -0.2218  0.4816  0.3513
10191TIP3    H154768   6.419   1.180  11.018 -1.2563  0.0982  2.0162
10191TIP3    H254769   6.482   1.134  11.148  0.6347 -1.7481  0.5051
10192TIP3   OH254770   5.897   5.615  10.378 -0.7851  0.0328  0.1892
10192TIP3    H154771   5.928   5.705  10.387  2.1453 -0.7329 -1.0608
10192TIP3    H254772   5.881   5.586  10.468  0.3288  1.1395  0.7764
10193TIP3   OH254773   1.775   2.291  10.239  0.2935 -0.6091  0.2830
10193TIP3    H154774   1.793   2.245  10.157  0.4401 -0.2257  0.0942
10193TIP3    H254775   1.681   2.307  10.237  0.2756 -0.7184  0.2529
10194TIP3   OH254776   4.717   2.718  11.572 -0.4030  0.1970 -0.0681
10194TIP3    H154777   4.746   2.729  11.482 -0.0880  2.2800  0.2289
10194TIP3    H254778   4.769   2.646  11.606  0.5428  0.3580 -1.1257
10195TIP3   OH254779   4.727   7.529  10.887 -0.3883  0.0682 -0.1551
10195TIP3    H154780   4.649   7.568  10.928  0.4708  2.0740 -0.3200
10195TIP3    H254781   4.699   7.441  10.862 -2.5828  0.6935 -0.1298
10196TIP3   OH254782   7.052   2.759  12.640 -0.6235 -0.7283 -0.3260
10196TIP3    H154783   7.129   2.808  12.670 -0.6408 -0.7654 -0.2191
10196TIP3    H254784   6.978   2.805  12.679 -0.5479 -1.8800  1.2897
10197TIP3   OH254785   0.433   4.873  10.880  0.1239  0.3431 -0.3365
10197TIP3    H154786   0.493   4.901  10.811  0.8072 -1.4339 -0.5234
10197TIP3    H254787   0.346   4.886  10.843  0.4344  1.2963 -0.7459
10198TIP3   OH254788   4.366   1.318  11.274  0.8121 -0.3816  0.2970
10198TIP3    H154789   4.450   1.304  11.317  1.8677  0.6150 -1.3522
10198TIP3    H254790   4.363   1.253  11.204 -0.5941 -1.5463  1.3657
10199TIP3   OH254791   0.375   0.562  10.888  0.7232  0.4029 -0.7135
10199TIP3    H154792   0.459   0.599  10.911 -0.2417  0.6640  3.0346
10199TIP3    H254793   0.320   0.637  10.864  0.9207  0.4682 -0.9655
10200TIP3   OH254794   2.497   2.684  10.686  0.6409  0.5337 -0.1561
10200TIP3    H154795   2.443   2.637  10.749  0.8869  1.3149  0.6565
10200TIP3    H254796   2.578   2.705  10.733  1.7694 -0.7775 -1.3996
10201TIP3   OH254797   4.231   1.785  11.974 -0.1583 -0.6140 -0.5425
10201TIP3    H154798   4.236   1.789  12.069 -1.4460 -0.0038 -0.4814
10201TIP3    H254799   4.142   1.813  11.953  0.3795  0.1425 -1.9732
10202TIP3   OH254800   2.443   2.953  11.359  0.1403  0.2304  0.0552
10202TIP3    H154801   2.528   2.987  11.387  0.2912  1.2318 -1.4895
10202TIP3    H254802   2.397   2.933  11.440  1.1522  1.4524  0.9704
10203TIP3   OH254803   1.419   1.204  11.239 -0.1155 -0.1076  0.1181
10203TIP3    H154804   1.451   1.114  11.227  0.5114  0.3168 -1.8612
10203TIP3    H254805   1.485   1.246  11.294  0.3519 -0.4869 -0.1481
10204TIP3   OH254806   0.292   2.026  11.746 -0.7905 -0.0816  0.2866
10204TIP3    H154807   0.303   1.931  11.740  0.8363 -0.1336  2.5948
10204TIP3    H254808   0.244   2.039  11.828 -0.7766  1.0935  0.1236
10205TIP3   OH254809   0.200   7.562  11.755 -0.0844 -0.3440  0.1171
10205TIP3    H154810   0.170   7.607  11.834  1.9130 -0.0025  0.7222
10205TIP3    H254811   0.150   7.481  11.753 -0.2599 -0.2963  1.6640
10206TIP3   OH254812   7.126   2.584  11.004 -0.1730 -0.6334 -0.5754
10206TIP3    H154813   7.195   2.622  10.949 -1.0934  1.6606 -0.2594
10206TIP3    H254814   7.141   2.623  11.090 -0.7349 -1.6238 -0.0164
10207TIP3   OH254815   6.374   2.908  11.821 -0.9871  0.3811  0.0037
10207TIP3    H154816   6.329   2.992  11.812 -1.2997  0.1486 -0.6720
10207TIP3    H254817   6.306   2.842  11.808 -0.4514  0.0230 -1.1632
10208TIP3   OH254818   6.403   1.505  11.873 -0.2294 -0.1414 -0.2013
10208TIP3    H154819   6.367   1.593  11.882  0.9163  0.2883  0.3635
10208TIP3    H254820   6.449   1.489  11.956  1.8855 -0.1813 -1.3192
10209TIP3   OH254821   4.687   4.989  10.513 -0.0793 -0.2937 -0.2287
10209TIP3    H154822   4.666   5.082  10.514  2.5135  0.3834  0.7005
10209TIP3    H254823   4.699   4.968  10.420 -0.5707  0.3300 -0.4386
10210TIP3   OH254824   3.144   4.058  12.554 -0.0250  0.2337  0.4314
10210TIP3    H154825   3.116   4.039  12.643  0.4846 -0.9254  0.3637
10210TIP3    H254826   3.228   4.012  12.545  0.3465  1.0319 -0.3791
10211TIP3   OH254827   8.099   4.297  11.253 -0.1525  0.1536  0.8478
10211TIP3    H154828   8.126   4.339  11.172  1.7875 -0.0466  1.3433
10211TIP3    H254829   8.111   4.204  11.237  3.2651  0.2151  2.2684
10212TIP3   OH254830   8.385   8.298  11.973 -0.0365 -0.1976 -0.5355
10212TIP3    H154831   8.304   8.251  11.954  1.1471 -2.7040  0.1470
10212TIP3    H254832   8.434   8.239  12.030  1.4684  2.0705  0.6777
10213TIP3   OH254833   2.851   1.972  12.402  0.4979  0.3662 -0.3382
10213TIP3    H154834   2.913   1.996  12.334 -0.0286 -1.7081 -1.6442
10213TIP3    H254835   2.765   1.975  12.359  0.2836 -2.4184 -0.3279
10214TIP3   OH254836   0.957   1.869  12.582  0.0464  0.0371  0.2701
10214TIP3    H154837   1.010   1.931  12.632 -0.0945  2.9968 -2.8468
10214TIP3    H254838   0.993   1.873  12.493 -3.6537  0.1630 -1.4113
10215TIP3   OH254839   2.524   6.160  11.653 -0.4886 -0.3521 -0.1650
10215TIP3    H154840   2.519   6.235  11.712  1.1813 -1.1122  1.0389
10215TIP3    H254841   2.530   6.198  11.566  1.5164  1.0197  0.4914
10216TIP3   OH254842   3.646   0.632  11.256 -0.1366  0.0190 -0.5494
10216TIP3    H154843   3.653   0.553  11.311  1.5516  1.5091  1.5272
10216TIP3    H254844   3.584   0.688  11.303  0.5019  0.8766 -0.7042
10217TIP3   OH254845   7.018   6.654  11.102  0.1942  0.3391  0.0382
10217TIP3    H154846   7.021   6.574  11.050  0.1743 -0.4641  1.2299
10217TIP3    H254847   7.050   6.627  11.189  0.2352  1.6347  0.4438
10218TIP3   OH254848   4.229   6.516  11.129 -0.3148 -0.2659 -0.4101
10218TIP3    H154849   4.220   6.608  11.151  0.7363 -0.2901  0.1956
10218TIP3    H254850   4.160   6.472  11.178 -0.4659  0.1341 -0.2649
10219TIP3   OH254851   0.970   2.949  11.823 -0.2757  0.3553  0.1231
10219TIP3    H154852   0.962   3.040  11.793 -0.1462  1.0890  2.1430
10219TIP3    H254853   1.063   2.930  11.817 -0.5333 -0.4972 -2.4476
10220TIP3   OH254854   0.644   3.729  12.665  0.7401 -0.2376  0.5019
10220TIP3    H154855   0.551   3.750  12.668  0.7720 -0.1543  1.1060
10220TIP3    H254856   0.685   3.809  12.633  0.4978 -0.6667 -0.9314
10221TIP3   OH254857   7.224   7.771  11.986  0.2591 -0.0669 -0.4871
10221TIP3    H154858   7.221   7.702  11.920 -0.7540 -0.7794  0.2790
10221TIP3    H254859   7.134   7.805  11.990 -0.2970 -1.5540  2.0476
10222TIP3   OH254860   2.603   2.695  11.095  0.2143  0.4732  0.3960
10222TIP3    H154861   2.682   2.748  11.109 -0.8767  2.2182  0.2506
10222TIP3    H254862   2.573   2.719  11.008 -0.0174 -0.8505  0.0870
10223TIP3   OH254863   0.241   2.399  12.552  0.2275 -0.1820 -0.3025
10223TIP3    H154864   0.234   2.365  12.641 -0.1866 -0.6898 -0.5246
10223TIP3    H254865   0.272   2.489  12.563 -0.7688  0.0975  0.4157
10224TIP3   OH254866   0.884   7.998  11.394  0.0228 -0.4009 -0.0051
10224TIP3    H154867   0.888   7.964  11.483 -0.1083 -1.7538 -0.4810
10224TIP3    H254868   0.820   8.069  11.397 -0.9295 -1.2664  0.7334
10225TIP3   OH254869   6.657   2.746  11.737  0.3396  0.0536 -0.9025
10225TIP3    H154870   6.607   2.776  11.661 -1.7051  0.6973  0.6018
10225TIP3    H254871   6.724   2.812  11.749  0.5714  0.0420 -2.0272
10226TIP3   OH254872   1.024   7.611  10.544  0.3708  0.0199 -0.1059
10226TIP3    H154873   1.064   7.534  10.504 -0.4974  0.4915 -1.9794
10226TIP3    H254874   1.097   7.672  10.556  0.8046 -0.4992 -0.0557
10227TIP3   OH254875   7.543   1.026  11.528 -0.1029 -0.1708  0.3516
10227TIP3    H154876   7.522   1.014  11.435  1.1224 -1.1461  0.1753
10227TIP3    H254877   7.577   1.115  11.534 -0.8598  0.1511  0.0077
10228TIP3   OH254878   7.829   8.107  11.127 -0.2410  0.5268 -0.2884
10228TIP3    H154879   7.923   8.089  11.127  0.0364  1.9327  0.0132
10228TIP3    H254880   7.797   8.071  11.210 -0.5318 -2.4959 -1.5546
10229TIP3   OH254881   0.702   1.704  11.294 -0.4408 -0.0744 -0.4462
10229TIP3    H154882   0.752   1.786  11.290 -0.7174  0.0415 -2.9301
10229TIP3    H254883   0.755   1.641  11.246 -1.0170 -0.9108 -0.0074
10230TIP3   OH254884   8.402   8.116  11.634  0.1566 -0.4179  0.3326
10230TIP3    H154885   8.481   8.072  11.603  0.1081 -0.3112  0.0523
10230TIP3    H254886   8.380   8.071  11.716  0.8977  0.0012  0.7775
10231TIP3   OH254887   4.966   3.769  12.164 -0.3915 -0.1647 -0.3880
10231TIP3    H154888   4.919   3.832  12.219 -0.0827 -1.5904  1.6070
10231TIP3    H254889   5.019   3.719  12.225  3.4130  0.9626 -2.4336
10232TIP3   OH254890   5.452   2.047  11.650  0.1972  0.0011  0.3238
10232TIP3    H154891   5.446   2.034  11.555  0.3138  1.0390  0.1671
10232TIP3    H254892   5.539   2.085  11.664 -0.0167  0.3329  0.7911
10233TIP3   OH254893   5.957   3.202  10.874  0.3226 -0.6458  0.0123
10233TIP3    H154894   5.926   3.124  10.828 -0.4957 -0.3394  0.0337
10233TIP3    H254895   5.953   3.179  10.967  1.0998 -0.9397 -0.0133
10234TIP3   OH254896   3.911   0.997  10.944  0.4236  0.0012 -0.1279
10234TIP3    H154897   3.911   1.092  10.929  1.0208  0.2116  1.0750
10234TIP3    H254898   3.964   0.961  10.874  0.3577  0.5817 -0.4786
10235TIP3   OH254899   1.527   5.018  11.477  0.3676  0.0187  0.1837
10235TIP3    H154900   1.592   5.005  11.407 -0.5486 -1.0512 -0.5208
10235TIP3    H254901   1.483   4.933  11.484 -0.1664  0.3768  1.4612
10236TIP3   OH254902   6.472   5.887  11.633  0.1847 -0.3316 -0.0733
10236TIP3    H154903   6.531   5.945  11.681 -1.4343  1.7685 -0.4786
10236TIP3    H254904   6.404   5.865  11.697 -0.9888  0.9762 -0.8297
10237TIP3   OH254905   0.254   7.162  12.401  0.2326  0.4694  0.3771
10237TIP3    H154906   0.333   7.147  12.349 -0.3130  1.2886 -0.7337
10237TIP3    H254907   0.188   7.188  12.337 -1.2238 -1.1201  1.1424
10238TIP3   OH254908   1.595   5.571  11.739 -0.4473  0.2525 -0.0440
10238TIP3    H154909   1.506   5.583  11.773 -0.6251 -1.6053  0.2517
10238TIP3    H254910   1.591   5.603  11.649 -1.2632  0.7267  0.1543
10239TIP3   OH254911   5.467   5.547  11.360  0.1670  0.1269  0.5258
10239TIP3    H154912   5.511   5.475  11.406 -0.9190  0.1170  1.5850
10239TIP3    H254913   5.465   5.519  11.268  2.8545  0.3833  0.2985
10240TIP3   OH254914   4.589   0.949  11.301  0.0365 -0.0554 -0.0197
10240TIP3    H154915   4.586   0.867  11.351  0.4110 -0.5351 -0.7620
10240TIP3    H254916   4.497   0.973  11.288 -0.0649 -0.0498  0.6860
10241TIP3   OH254917   8.034   1.736  11.456 -0.0101 -0.0307 -0.1741
10241TIP3    H154918   8.000   1.826  11.456  0.4367  0.1411  0.0212
10241TIP3    H254919   8.123   1.743  11.422  0.9190 -0.0298  2.0665
10242TIP3   OH254920   2.146   6.116  11.194 -0.0862  0.7704 -0.0645
10242TIP3    H154921   2.232   6.157  11.187 -0.7137  2.2687  0.5738
10242TIP3    H254922   2.095   6.151  11.121 -1.1445  2.5456  1.4213
10243TIP3   OH254923   6.956   2.474  11.616 -0.0844  0.2344 -0.4812
10243TIP3    H154924   7.017   2.414  11.573 -1.0541 -0.2384 -1.2260
10243TIP3    H254925   6.927   2.534  11.547 -1.2711 -0.2206 -0.4014
10244TIP3   OH254926   7.425   4.202  12.243 -0.0633  0.0519  0.5688
10244TIP3    H154927   7.417   4.116  12.202  1.1272 -0.2798  1.0005
10244TIP3    H254928   7.474   4.255  12.179 -0.9518  0.4899  0.2219
10245TIP3   OH254929   3.593   1.090  12.452 -0.4594 -0.2992  0.3901
10245TIP3    H154930   3.552   1.177  12.453 -1.5499 -0.7965  0.6579
10245TIP3    H254931   3.521   1.030  12.470  0.5870 -1.1470  1.9213
10246TIP3   OH254932   0.521   7.503  10.750 -0.7774  0.0065  0.0171
10246TIP3    H154933   0.615   7.511  10.732 -0.4496 -3.7824 -0.8936
10246TIP3    H254934   0.514   7.506  10.845  0.0954  1.2010  0.0680
10247TIP3   OH254935   0.551   5.983  10.717 -0.4908  0.4155  0.2016
10247TIP3    H154936   0.513   5.896  10.699 -1.5693  0.6809  1.0908
10247TIP3    H254937   0.516   6.039  10.647 -1.7367  0.6435  0.9796
10248TIP3   OH254938   6.325   5.720  10.222 -0.3178 -0.2408  0.1213
10248TIP3    H154939   6.311   5.775  10.299  0.8318  0.3334 -0.0668
10248TIP3    H254940   6.323   5.781  10.148 -3.0459 -0.9601 -0.5330
10249TIP3   OH254941   4.004   7.579  10.588 -0.4064  0.8370 -0.2775
10249TIP3    H154942   3.933   7.641  10.568 -1.3212  0.0006  0.2944
10249TIP3    H254943   3.975   7.497  10.549  0.4279  0.5716 -0.3427
10250TIP3   OH254944   6.126   2.009  12.173 -0.0201  0.0765 -0.1623
10250TIP3    H154945   6.202   1.954  12.153 -0.3754 -0.5440  0.1723
10250TIP3    H254946   6.072   1.955  12.231 -0.6161  0.5931 -0.2308
10251TIP3   OH254947   0.066   1.307  12.222  0.6591 -0.2624  0.4919
10251TIP3    H154948   0.003   1.325  12.293  0.5059  0.2024  0.2435
10251TIP3    H254949   0.020   1.247  12.164 -0.0232  0.9901 -0.3112
10252TIP3   OH254950   5.403   7.068  12.091  0.3776  0.8568 -1.2868
10252TIP3    H154951   5.362   7.103  12.170  0.0058  1.7675 -1.8554
10252TIP3    H254952   5.497   7.075  12.107  0.3161  0.0512 -0.5215
10253TIP3   OH254953   3.201   3.646  11.214 -0.0570  0.2204  0.2764
10253TIP3    H154954   3.121   3.654  11.266 -1.0254 -1.2058 -0.9192
10253TIP3    H254955   3.211   3.552  11.201  2.5296  0.2413  1.4226
10254TIP3   OH254956   0.863   4.816  12.345  0.6915  0.5984  0.2437
10254TIP3    H154957   0.794   4.751  12.329 -1.1015  2.2127  1.0723
10254TIP3    H254958   0.891   4.798  12.435 -1.2321  2.1380  1.2259
10255TIP3   OH254959   6.980   2.935  10.490 -0.3524  0.3041 -0.5101
10255TIP3    H154960   6.916   2.963  10.556  0.1319 -1.4455  0.7767
10255TIP3    H254961   7.011   3.017  10.451 -0.7241  1.4071  1.3844
10256TIP3   OH254962   3.639   0.687  11.831  0.2501 -0.1863  0.0871
10256TIP3    H154963   3.578   0.635  11.779 -0.7403  1.4121 -0.4356
10256TIP3    H254964   3.674   0.752  11.770  1.4660 -0.2165  0.7090
10257TIP3   OH254965   2.270   6.299  11.750 -0.0848  0.0058  0.0373
10257TIP3    H154966   2.302   6.319  11.662  0.7756  0.8443  0.5209
10257TIP3    H254967   2.175   6.314  11.745 -0.3215 -1.6197 -1.1783
10258TIP3   OH254968   6.239   3.891  10.773 -0.1964 -0.2242  0.7324
10258TIP3    H154969   6.250   3.842  10.692  0.6875  2.8262 -1.1805
10258TIP3    H254970   6.327   3.896  10.810 -0.0636  0.7492  0.3245
10259TIP3   OH254971   0.841   1.934  11.289 -0.5108 -0.7075 -0.4078
10259TIP3    H154972   0.803   1.961  11.206 -0.4868  3.8541  0.8045
10259TIP3    H254973   0.935   1.946  11.277 -0.2931 -2.2740 -0.3811
10260TIP3   OH254974   6.026   8.346  11.678 -0.0073  0.0084  0.1811
10260TIP3    H154975   6.108   8.331  11.631  0.4392  0.5565  0.7602
10260TIP3    H254976   5.969   8.390  11.615  0.5312  0.5983  0.1046
10261TIP3   OH254977   4.193   6.058  10.373  0.0806 -0.3002 -0.3347
10261TIP3    H154978   4.126   6.121  10.346  0.9832  0.6616 -0.4217
10261TIP3    H254979   4.152   6.008  10.444 -1.0531 -0.4043 -1.0450
10262TIP3   OH254980   1.170   6.890  10.747  0.2499 -0.3356  0.8114
10262TIP3    H154981   1.116   6.812  10.754 -0.8755  0.5272  2.5099
10262TIP3    H254982   1.229   6.885  10.823 -0.0770  0.6071  1.1470
10263TIP3   OH254983   4.828   0.224  12.434 -0.1878  0.0320 -0.2040
10263TIP3    H154984   4.735   0.205  12.439 -0.5237  1.5613 -0.2800
10263TIP3    H254985   4.856   0.229  12.525  0.0032 -1.1903 -0.1821
10264TIP3   OH254986   4.605   3.368  11.538  0.1254  0.5020 -0.1190
10264TIP3    H154987   4.690   3.333  11.562 -0.3563 -0.1333  0.7224
10264TIP3    H254988   4.597   3.449  11.588  0.6708  1.1281 -1.0212
10265TIP3   OH254989   1.193   3.287  11.480  0.0219 -0.6123  0.2826
10265TIP3    H154990   1.177   3.381  11.470  1.8100 -0.2729  0.1062
10265TIP3    H254991   1.167   3.249  11.396  1.0068  0.0289 -0.3469
10266TIP3   OH254992   7.153   3.347  10.655 -0.3185  0.0986  0.2921
10266TIP3    H154993   7.238   3.316  10.687  0.1655 -0.4293 -1.4330
10266TIP3    H254994   7.171   3.435  10.622  0.1789 -0.8776 -2.2948
10267TIP3   OH254995   3.674   0.954  12.236 -0.2382 -0.0975 -0.2793
10267TIP3    H154996   3.634   0.872  12.264 -0.8931  0.2889 -0.0519
10267TIP3    H254997   3.645   1.019  12.301 -0.6029  0.5197 -1.0325
10268TIP3   OH254998   1.397   5.616  12.601 -0.2520 -0.0900 -0.5553
10268TIP3    H154999   1.383   5.704  12.634  0.7661  0.1378 -0.6990
10268TIP3    H255000   1.475   5.623  12.546  0.0422 -1.1376 -0.2992
10269TIP3   OH255001   2.796   4.148  11.385  0.0481  0.2672 -0.2477
10269TIP3    H155002   2.787   4.091  11.461  0.0719  0.2478 -0.2599
10269TIP3    H255003   2.881   4.190  11.396  0.8621 -1.0699 -1.1746
10270TIP3   OH255004   7.683   5.490  10.942 -0.1195  0.0711  0.1990
10270TIP3    H155005   7.616   5.555  10.963  0.3727  0.5182  0.4162
10270TIP3    H255006   7.731   5.478  11.024  0.4372  0.2012 -0.1017
10271TIP3   OH255007   3.272   3.046  12.189  0.3182 -0.1978  0.0762
10271TIP3    H155008   3.363   3.019  12.176  0.3950  0.6344 -1.2387
10271TIP3    H255009   3.262   3.124  12.135 -1.2663 -0.4531 -0.0360
10272TIP3   OH255010   2.472   2.246  11.131  0.2894 -0.1161  0.0138
10272TIP3    H155011   2.481   2.153  11.112  0.3155 -0.0699 -0.2033
10272TIP3    H255012   2.377   2.259  11.141  0.3723 -0.4492  1.5209
10273TIP3   OH255013   2.031   3.148  11.312 -0.0448  0.2022 -0.4367
10273TIP3    H155014   2.016   3.114  11.223 -0.0846 -0.8254 -0.0466
10273TIP3    H255015   1.957   3.206  11.328 -0.3980 -0.1327 -0.8274
10274TIP3   OH255016   6.197   1.837  10.501 -0.1391 -0.4852 -0.3965
10274TIP3    H155017   6.261   1.767  10.493 -1.2528 -1.5488 -0.3262
10274TIP3    H255018   6.241   1.915  10.468  0.4803 -1.6193 -2.3835
10275TIP3   OH255019   6.572   1.422  12.090 -0.2022  0.4047 -0.4242
10275TIP3    H155020   6.637   1.488  12.111 -0.1669  0.5151 -0.8843
10275TIP3    H255021   6.622   1.348  12.055 -0.2153  0.0260  0.3317
10276TIP3   OH255022   7.130   1.570  12.076  0.2273  0.1754  0.7389
10276TIP3    H155023   7.221   1.597  12.070  0.2477  0.0800  0.6125
10276TIP3    H255024   7.089   1.636  12.131  0.4339  0.0620  1.0325
10277TIP3   OH255025   5.246   1.949  11.788  0.4281 -0.2232 -0.0117
10277TIP3    H155026   5.310   1.990  11.731  0.4861  0.3415  0.4551
10277TIP3    H255027   5.297   1.890  11.844  0.2074 -1.9397 -1.5233
10278TIP3   OH255028   7.956   7.938  11.479 -0.6060  0.7141 -0.0260
10278TIP3    H155029   7.893   7.873  11.511 -1.7209  2.0685  0.6107
10278TIP3    H255030   8.036   7.888  11.465 -1.8632 -1.1386 -1.1430
10279TIP3   OH255031   3.611   2.108  12.180  0.0488 -0.3231  0.4022
10279TIP3    H155032   3.519   2.103  12.155 -1.1143  0.0844  3.9236
10279TIP3    H255033   3.635   2.019  12.205 -0.0599 -0.0938  1.3710
10280TIP3   OH255034   3.359   0.769  12.229  0.1275 -0.2338 -0.3753
10280TIP3    H155035   3.424   0.757  12.298  0.4869  0.5693 -0.5617
10280TIP3    H255036   3.361   0.863  12.211  0.3743 -0.4928 -1.8026
10281TIP3   OH255037   4.043   1.253  10.719 -0.5181 -0.3104 -0.2397
10281TIP3    H155038   4.049   1.314  10.646 -1.5960  1.4934  1.1114
10281TIP3    H255039   3.952   1.224  10.720 -1.1178  1.4472  1.6820
10282TIP3   OH255040   8.030   1.979  10.894  0.1902 -0.1310 -0.0057
10282TIP3    H155041   7.992   2.049  10.947  3.0561  0.0182  2.0810
10282TIP3    H255042   8.098   1.941  10.949 -0.4326 -3.8540 -1.4832
10283TIP3   OH255043   1.805   3.292  11.345 -0.0709  0.0311  0.5147
10283TIP3    H155044   1.825   3.386  11.336  1.5114 -0.4412 -1.5815
10283TIP3    H255045   1.756   3.286  11.427 -1.9654  2.9448 -0.2476
10284TIP3   OH255046   4.066   4.572  10.565 -0.1585 -0.2376 -0.0292
10284TIP3    H155047   4.093   4.525  10.644 -0.2591  0.1192  0.2223
10284TIP3    H255048   4.121   4.536  10.495 -0.6770 -1.1775  0.0366
10285TIP3   OH255049   7.844   0.648  11.486 -0.0267  0.3410  0.0285
10285TIP3    H155050   7.900   0.584  11.530  2.7883  2.3354 -0.3463
10285TIP3    H255051   7.767   0.599  11.458  1.9174 -2.8273 -0.1486
10286TIP3   OH255052   4.396   7.933  10.707 -0.2169  0.1570  0.2180
10286TIP3    H155053   4.482   7.901  10.680  0.8694  0.2049  3.2199
10286TIP3    H255054   4.339   7.856  10.704  0.2349 -0.1564 -0.5657
10287TIP3   OH255055   7.315   0.362  10.735 -0.2933 -0.6842  0.1029
10287TIP3    H155056   7.385   0.297  10.737 -0.4307 -0.8262  0.6812
10287TIP3    H255057   7.248   0.326  10.794 -0.9669 -0.6789 -0.6413
10288TIP3   OH255058   1.788   7.025  10.509 -0.3156 -0.0892  0.3727
10288TIP3    H155059   1.808   7.083  10.436 -0.4119 -1.1700 -0.5340
10288TIP3    H255060   1.698   6.997  10.494 -0.0590 -0.9799  0.4339
10289TIP3   OH255061   3.079   5.690  12.083 -0.0690 -0.6932 -0.0320
10289TIP3    H155062   3.140   5.739  12.028 -0.3394  0.3234  0.5604
10289TIP3    H255063   3.127   5.677  12.165  0.1386 -1.7590 -0.3016
10290TIP3   OH255064   5.222   5.727  11.030 -0.6378  0.2014 -0.1372
10290TIP3    H155065   5.174   5.670  11.090  0.9914 -1.7475 -0.5731
10290TIP3    H255066   5.243   5.804  11.081 -0.4672 -0.8166  1.3903
10291TIP3   OH255067   0.992   4.555  10.830 -0.2290  0.3789  0.1786
10291TIP3    H155068   1.056   4.525  10.895 -1.3076 -0.7583  0.7473
10291TIP3    H255069   0.929   4.483  10.824 -1.0679  1.1854 -0.8935
10292TIP3   OH255070   4.000   3.460  11.830  0.6192 -0.0365 -0.3812
10292TIP3    H155071   3.937   3.469  11.902  0.8586 -3.1862  0.3694
10292TIP3    H255072   3.948   3.475  11.751  0.2141  2.8319  0.3053
10293TIP3   OH255073   4.474   2.556  12.171  0.1278 -0.3442  0.5917
10293TIP3    H155074   4.409   2.614  12.212  0.0231 -1.4249  2.0273
10293TIP3    H255075   4.557   2.581  12.212  0.4706  0.2881 -0.4409
10294TIP3   OH255076   7.701   2.415  12.940 -0.2679  0.1360 -0.0108
10294TIP3    H155077   7.737   2.486  12.994 -0.9852  2.4907 -2.4073
10294TIP3    H255078   7.743   2.336  12.973  0.3883  1.5826  3.0011
10295TIP3   OH255079   5.852   0.979  11.482 -0.1737  0.6277  0.0702
10295TIP3    H155080   5.779   0.970  11.422 -1.0353  0.2679  1.1317
10295TIP3    H255081   5.838   0.911  11.548  0.0030  1.8156  1.3940
10296TIP3   OH255082   4.472   8.048  12.401  0.5958  0.3313 -0.3837
10296TIP3    H155083   4.543   8.073  12.342  0.8940 -0.1023 -0.2078
10296TIP3    H255084   4.484   8.104  12.478 -0.5090  1.7817 -1.1944
10297TIP3   OH255085   0.155   7.628  11.085 -0.0427  0.2413  0.2671
10297TIP3    H155086   0.092   7.697  11.105 -2.2973 -0.8709 -2.3862
10297TIP3    H255087   0.200   7.658  11.007  1.1301 -0.0243  0.8096
10298TIP3   OH255088   6.194   2.706  11.775 -0.3471  0.1158  0.0940
10298TIP3    H155089   6.213   2.641  11.843  0.0076 -0.8728 -0.9168
10298TIP3    H255090   6.104   2.735  11.794 -1.0437 -1.6982 -0.2069
10299TIP3   OH255091   7.765   7.653  11.107 -0.1731  0.1719 -0.4202
10299TIP3    H155092   7.823   7.714  11.062  1.5115 -1.0725 -0.0308
10299TIP3    H255093   7.697   7.632  11.044 -0.8493  2.4889 -0.5270
10300TIP3   OH255094   5.315   4.751  11.147 -0.3053 -0.0603  0.5376
10300TIP3    H155095   5.231   4.716  11.118 -0.7721  1.3862  0.1005
10300TIP3    H255096   5.293   4.817  11.212  0.3424  1.7863 -1.0318
10301TIP3   OH255097   6.804   2.118  11.854 -0.8104  0.4488  0.0043
10301TIP3    H155098   6.866   2.103  11.783 -0.1660  1.4667  0.3314
10301TIP3    H255099   6.852   2.091  11.933 -1.8187 -1.5182  0.0250
10302TIP3   OH255100   0.130   6.593  12.329  0.2847  0.1119  0.0744
10302TIP3    H155101   0.206   6.615  12.274  0.1477  0.7260  0.1261
10302TIP3    H255102   0.143   6.645  12.409  0.8818 -1.3417  0.9632
10303TIP3   OH255103   3.340   2.427  12.161 -0.3777 -0.4834 -0.2196
10303TIP3    H155104   3.391   2.507  12.148 -0.0798 -0.4357  1.0416
10303TIP3    H255105   3.249   2.457  12.165 -0.4394 -0.4459 -1.5010
10304TIP3   OH255106   2.703   1.367  10.935 -0.1047 -0.1757 -0.0682
10304TIP3    H155107   2.758   1.352  10.858 -0.1059 -0.1019 -0.0836
10304TIP3    H255108   2.745   1.317  11.004  2.1627  2.7372  0.8969
10305TIP3   OH255109   5.682   4.993  11.372 -0.1718 -0.8932 -0.0500
10305TIP3    H155110   5.714   4.977  11.461  0.7736  2.6978  0.3792
10305TIP3    H255111   5.758   4.977  11.316  0.7715  1.7226  0.3740
10306TIP3   OH255112   8.060   3.145  12.896 -0.3598  0.0810 -0.2738
10306TIP3    H155113   7.970   3.164  12.923 -0.9423  1.4719 -2.8519
10306TIP3    H255114   8.058   3.054  12.868 -0.3519 -0.5916  1.7699
10307TIP3   OH255115   3.325   6.945  11.762 -0.4999 -0.0497  0.5529
10307TIP3    H155116   3.340   6.888  11.838 -1.1284  0.1323  0.8115
10307TIP3    H255117   3.231   6.941  11.747 -0.2884 -0.7934 -0.7770
10308TIP3   OH255118   0.846   2.366  10.603 -0.0884 -0.6619 -0.4089
10308TIP3    H155119   0.872   2.409  10.521  1.2135  0.3283  0.4718
10308TIP3    H255120   0.928   2.357  10.651 -1.0169  0.1059  1.3867
10309TIP3   OH255121   1.690   2.225  10.778  0.2816 -0.1586  0.1041
10309TIP3    H155122   1.744   2.151  10.806  1.4763  0.4023 -0.5928
10309TIP3    H255123   1.711   2.295  10.841 -1.5082 -0.6359  1.2962
10310TIP3   OH255124   3.357   6.520  11.752  0.2255 -0.6754  0.4712
10310TIP3    H155125   3.297   6.572  11.699 -0.2814 -0.6988  1.0108
10310TIP3    H255126   3.375   6.442  11.700 -0.3659 -0.7543  0.3866
10311TIP3   OH255127   6.877   5.983  12.790  0.3547  0.2432  0.1879
10311TIP3    H155128   6.925   5.936  12.721  0.3336 -0.2118  0.4800
10311TIP3    H255129   6.845   6.062  12.747 -1.1710 -0.8641 -0.8362
10312TIP3   OH255130   2.669   7.391  13.005  0.4483 -0.6385 -0.4375
10312TIP3    H155131   2.694   7.301  12.983  1.4450 -0.3601 -0.4918
10312TIP3    H255132   2.574   7.387  13.018  0.2450 -1.3772 -1.9684
10313TIP3   OH255133   6.291   1.238  10.919 -0.4306  0.7643 -0.1944
10313TIP3    H155134   6.285   1.263  10.827 -0.7092  1.3030 -0.0319
10313TIP3    H255135   6.205   1.258  10.956 -0.3141  0.5787  0.1900
10314TIP3   OH255136   0.000   7.150  12.000  0.0606  0.6252  0.5143
10314TIP3    H155137  -0.050   7.222  11.961  1.2039  1.1999  0.0476
10314TIP3    H255138  -0.021   7.074  11.947 -0.7666  0.7263  0.6918
10315TIP3   OH255139   1.987   8.323  11.671  0.1608 -0.1214 -0.3235
10315TIP3    H155140   1.920   8.386  11.698 -0.5686 -1.4126  1.0144
10315TIP3    H255141   1.952   8.284  11.591 -0.8368 -0.9186  0.4647
10316TIP3   OH255142   6.975   3.678  11.349 -0.3752 -0.4153  0.1309
10316TIP3    H155143   6.970   3.769  11.320  1.0645 -0.7339 -1.2447
10316TIP3    H255144   7.062   3.670  11.389 -0.1841 -1.3609 -0.4378
10317TIP3   OH255145   2.880   7.263  12.317  0.1116  0.6146  0.3733
10317TIP3    H155146   2.871   7.351  12.354 -0.2809  0.3994  0.7931
10317TIP3    H255147   2.799   7.249  12.268  0.6230  0.8942 -0.5773
10318TIP3   OH255148   1.278   0.613  11.251  0.7789 -0.0134  0.1120
10318TIP3    H155149   1.286   0.521  11.276  0.4743 -0.1902 -0.4115
10318TIP3    H255150   1.350   0.627  11.190 -0.3271 -0.4672 -1.3643
10319TIP3   OH255151   8.001   6.863  11.502 -0.0513 -0.2138  0.2495
10319TIP3    H155152   7.922   6.898  11.462  0.2174 -0.9949 -1.0112
10319TIP3    H255153   8.054   6.941  11.521 -0.4337  0.2146 -0.3909
10320TIP3   OH255154   0.400   2.825  10.987 -0.1266  0.3532 -0.1673
10320TIP3    H155155   0.310   2.856  10.980  0.1064  1.7507  2.0010
10320TIP3    H255156   0.452   2.893  10.943 -0.1016 -0.4160 -1.3545
10321TIP3   OH255157   5.834   5.719  12.531 -0.0375 -0.5869 -0.6200
10321TIP3    H155158   5.792   5.728  12.616 -1.1761  0.1898 -1.2353
10321TIP3    H255159   5.928   5.711  12.551  0.1832  3.1145  0.5853
10322TIP3   OH255160   2.748   7.047  11.676 -0.1273 -0.0813 -0.0781
10322TIP3    H155161   2.667   7.097  11.663 -0.1111  0.0397  0.2886
10322TIP3    H255162   2.815   7.114  11.690 -0.0705 -0.1999  0.2163
10323TIP3   OH255163   1.483   5.383  12.404  0.4733  0.1147 -0.1396
10323TIP3    H155164   1.510   5.458  12.458 -0.9248  0.6314 -0.1144
10323TIP3    H255165   1.543   5.313  12.428  2.2322  1.3992 -0.6173
10324TIP3   OH255166   6.976   1.324  11.391  0.4665  0.3321  0.0943
10324TIP3    H155167   6.910   1.391  11.412  0.6994  1.3636 -2.2333
10324TIP3    H255168   6.957   1.253  11.453 -0.3070  2.1680  2.1107
10325TIP3   OH255169   1.536   4.094  10.518 -0.2537 -0.0042  0.5939
10325TIP3    H155170   1.464   4.031  10.527 -0.6586 -0.0196 -2.0600
10325TIP3    H255171   1.504   4.157  10.453  2.1064  0.0157 -0.6432
10326TIP3   OH255172   5.611   2.959  10.644  0.2629 -0.5483 -0.6106
10326TIP3    H155173   5.584   3.048  10.622 -1.5574 -0.8418  0.2574
10326TIP3    H255174   5.644   2.965  10.734  0.2760 -0.7219 -0.6028
10327TIP3   OH255175   6.716   4.046  11.542  0.0906  0.1129 -0.9190
10327TIP3    H155176   6.746   4.107  11.475  1.2848  0.4995 -0.0743
10327TIP3    H255177   6.749   4.083  11.624 -0.5923 -0.8040 -0.2093
10328TIP3   OH255178   1.992   5.159  11.765  0.1066 -0.2476  0.2907
10328TIP3    H155179   1.926   5.119  11.709  0.2582  0.0219 -0.0833
10328TIP3    H255180   1.983   5.113  11.849 -1.3978  0.6083  0.6451
10329TIP3   OH255181   7.231   2.501  12.275 -0.1439  0.4389  0.1823
10329TIP3    H155182   7.234   2.505  12.370  0.1595 -1.0700  0.2580
10329TIP3    H255183   7.139   2.484  12.255 -0.0952  0.0869  0.2489
10330TIP3   OH255184   1.712   1.588  12.544  0.1569  0.9682  0.1387
10330TIP3    H155185   1.621   1.590  12.573  0.4528  0.5124  1.1844
10330TIP3    H255186   1.726   1.498  12.513  0.5573  0.6710  1.1226
10331TIP3   OH255187   5.148   3.573  10.598  0.1446 -0.3276 -0.1512
10331TIP3    H155188   5.168   3.500  10.657  0.6519  0.0529  0.1525
10331TIP3    H255189   5.205   3.644  10.628  0.3448 -0.1057 -1.0445
10332TIP3   OH255190   2.595   5.820  11.542 -0.0062 -0.0316 -0.0581
10332TIP3    H155191   2.578   5.726  11.534  0.4468 -0.3833  2.2903
10332TIP3    H255192   2.541   5.861  11.475 -2.4158 -1.7795  0.7086
10333TIP3   OH255193   6.574   0.641  12.104 -0.0571 -0.2731 -0.1210
10333TIP3    H155194   6.536   0.650  12.016  0.3061  2.3282 -0.1004
10333TIP3    H255195   6.655   0.593  12.090 -0.6246 -1.0170 -0.9925
10334TIP3   OH255196   6.878   0.471  10.841  0.3804 -0.2773  0.0183
10334TIP3    H155197   6.873   0.385  10.883  1.2869 -0.4677 -0.2353
10334TIP3    H255198   6.788   0.504  10.841  0.4675  0.2154  3.0821
10335TIP3   OH255199   7.631   7.147  12.580  0.1400 -0.4255 -0.4480
10335TIP3    H155200   7.595   7.202  12.509 -0.4768 -0.2616 -0.0195
10335TIP3    H255201   7.724   7.141  12.561 -0.0089 -0.3483 -1.2552
10336TIP3   OH255202   7.914   7.660  10.534  0.0163 -0.4213 -0.8058
10336TIP3    H155203   7.884   7.592  10.594  0.0489 -0.2811 -0.6291
10336TIP3    H255204   7.885   7.742  10.575  1.0525 -0.2505 -0.3745
10337TIP3   OH255205   5.536   5.902  10.565  0.1783 -0.1191 -0.2758
10337TIP3    H155206   5.507   5.976  10.617  0.0560 -1.3134  1.4337
10337TIP3    H255207   5.611   5.936  10.515  0.9898  0.8320  1.4823
10338TIP3   OH255208   8.199   4.024  13.076  0.0399 -0.1092 -0.0855
10338TIP3    H155209   8.196   3.935  13.041 -0.1442 -0.4951  0.8800
10338TIP3    H255210   8.157   4.017  13.162  1.3691  0.6093  0.6444
10339TIP3   OH255211   5.357   2.569  10.691  0.1872 -0.0631 -0.0002
10339TIP3    H155212   5.417   2.626  10.643  1.3649 -1.0689  0.2416
10339TIP3    H255213   5.412   2.500  10.727 -1.1273 -1.0693  0.1693
10340TIP3   OH255214   3.756   0.546  12.291 -0.7189  0.4490  0.1164
10340TIP3    H155215   3.772   0.462  12.247  0.9347 -0.6211  2.5514
10340TIP3    H255216   3.822   0.605  12.256 -0.6142  0.1624 -0.1701
10341TIP3   OH255217   6.941   1.152  12.588 -0.0557 -0.3770  0.2256
10341TIP3    H155218   6.853   1.115  12.584 -0.1962 -0.0867  0.5408
10341TIP3    H255219   6.972   1.132  12.676  0.5631 -1.2851 -0.1827
10342TIP3   OH255220   6.350   0.719  11.167  0.0127 -0.3137 -0.0367
10342TIP3    H155221   6.367   0.707  11.261 -2.7563  0.7031  0.7108
10342TIP3    H255222   6.399   0.798  11.144  0.8557 -0.6691  0.4871
10343TIP3   OH255223   7.830   1.703  11.766  0.0313 -0.2035 -0.3964
10343TIP3    H155224   7.848   1.630  11.707 -0.4560 -1.3283  0.8075
10343TIP3    H255225   7.888   1.689  11.841 -1.8898 -0.8752  1.0514
10344TIP3   OH255226   1.549   3.784  10.744 -0.0653 -0.4433  0.2008
10344TIP3    H155227   1.624   3.838  10.721  0.7614 -0.5596  2.3539
10344TIP3    H255228   1.562   3.703  10.696  0.4605  0.0255 -0.4750
10345TIP3   OH255229   4.616   7.596  11.301 -0.1685  0.0535 -0.9325
10345TIP3    H155230   4.694   7.540  11.304 -0.4891 -0.3929  1.6089
10345TIP3    H255231   4.646   7.681  11.334 -0.4943  0.2336 -1.0959
10346TIP3   OH255232   8.366   5.041  10.762  0.0443 -0.4599 -0.4657
10346TIP3    H155233   8.296   4.994  10.717 -1.5442  0.3120  1.0809
10346TIP3    H255234   8.337   5.132  10.763  2.0780  0.2561 -1.5718
10347TIP3   OH255235   3.252   3.943  11.987 -0.0035 -0.0774 -0.3369
10347TIP3    H155236   3.284   3.881  11.922  1.1844 -0.7499  0.8387
10347TIP3    H255237   3.232   3.890  12.064 -0.6543  0.7899  0.1162
10348TIP3   OH255238   2.605   6.090  12.118  0.4734 -0.2174  0.0828
10348TIP3    H155239   2.607   6.109  12.024 -0.0849  0.3260  0.1719
10348TIP3    H255240   2.643   6.167  12.159 -2.5045  1.1715  0.4954
10349TIP3   OH255241   6.946   3.920  11.253  0.3919  0.3900 -0.8584
10349TIP3    H155242   6.891   3.963  11.188 -0.0498 -0.1005 -0.8165
10349TIP3    H255243   6.981   3.991  11.306 -0.3624  0.6936 -0.7641
10350TIP3   OH255244   3.856   0.802  11.318 -0.7223  0.6649 -0.7450
10350TIP3    H155245   3.786   0.768  11.262  0.9565 -0.3637 -2.2974
10350TIP3    H255246   3.832   0.774  11.407 -1.3695 -1.2481 -1.4794
10351TIP3   OH255247   0.513   8.326  11.064  0.2134  0.1503 -0.0306
10351TIP3    H155248   0.498   8.312  10.971 -0.2152 -0.1407  0.0812
10351TIP3    H255249   0.541   8.418  11.070  2.2140 -0.3711 -0.6598
10352TIP3   OH255250   6.297   3.572  10.966  0.0706 -0.4686 -0.2110
10352TIP3    H155251   6.343   3.655  10.972  0.6553 -0.6995 -1.2970
10352TIP3    H255252   6.285   3.557  10.873  0.3320 -1.7921 -0.0577
10353TIP3   OH255253   2.842   6.475  11.521  0.2641  0.1886  0.8105
10353TIP3    H155254   2.883   6.388  11.520  0.4929  0.3011  0.4454
10353TIP3    H255255   2.872   6.514  11.603  0.2310 -0.0402  0.9346
10354TIP3   OH255256   5.215   5.060  12.346 -0.0349  0.6126  0.0463
10354TIP3    H155257   5.285   5.126  12.348 -0.1684  0.7663 -0.2543
10354TIP3    H255258   5.186   5.059  12.255  1.8003 -1.8019 -0.5971
10355TIP3   OH255259   8.187   8.341  11.233 -0.1178 -0.1128  0.4726
10355TIP3    H155260   8.156   8.431  11.218  1.1382  0.4817  1.2364
10355TIP3    H255261   8.228   8.344  11.319  0.4502 -1.2933  0.2636
10356TIP3   OH255262   0.374   1.679  11.967  0.1281 -0.5075 -0.3391
10356TIP3    H155263   0.340   1.601  12.010  0.9776 -1.4718 -1.3631
10356TIP3    H255264   0.297   1.723  11.931 -0.2093 -1.9217 -1.4391
10357TIP3   OH255265   3.452   2.014  10.264 -0.6386  0.3805  0.0324
10357TIP3    H155266   3.424   1.922  10.267 -0.4723  0.2103 -2.2514
10357TIP3    H255267   3.376   2.063  10.295 -1.7108 -0.3811 -1.2864
10358TIP3   OH255268   4.322   1.511  11.081 -0.3565 -0.0450  1.0651
10358TIP3    H155269   4.263   1.447  11.121 -0.2749 -0.3126  0.7581
10358TIP3    H255270   4.408   1.489  11.114 -0.1261 -0.9222 -0.0447
10359TIP3   OH255271   0.647   5.950  10.979 -1.3046  0.5931  0.3002
10359TIP3    H155272   0.723   5.898  10.953 -1.2080 -1.3258  3.7513
10359TIP3    H255273   0.591   5.950  10.901  0.8192 -0.5990 -1.3664
10360TIP3   OH255274   3.214   6.341  12.155  0.1597  0.4321  0.3120
10360TIP3    H155275   3.285   6.351  12.218 -0.7865 -0.0686  1.5179
10360TIP3    H255276   3.139   6.382  12.197 -0.7742 -0.8880  0.0154
10361TIP3   OH255277   2.355   4.686  11.736  0.2948  0.2065 -0.0294
10361TIP3    H155278   2.266   4.670  11.767  1.1641 -0.9379  2.1518
10361TIP3    H255279   2.391   4.598  11.721  1.7905  0.4636  1.6251
10362TIP3   OH255280   1.241   2.376  12.513  0.1997  0.0188 -0.2279
10362TIP3    H155281   1.216   2.424  12.592  1.1361 -1.2467  0.8678
10362TIP3    H255282   1.301   2.436  12.468  0.0652  0.5496  0.2771
10363TIP3   OH255283   7.712   0.932  11.796  0.2832  0.0746 -0.0890
10363TIP3    H155284   7.626   0.966  11.820  0.6325 -0.3584  1.9837
10363TIP3    H255285   7.760   1.009  11.766 -0.7778  0.3249 -1.2638
10364TIP3   OH255286   2.959   3.683  10.426 -0.0947 -0.3564 -0.0589
10364TIP3    H155287   2.951   3.670  10.520 -2.8284 -0.3362 -0.2267
10364TIP3    H255288   2.886   3.634  10.388  1.6634 -1.4260 -2.3109
10365TIP3   OH255289   5.091   7.944  10.376 -0.2563  0.1981 -0.7451
10365TIP3    H155290   5.130   8.002  10.311 -0.7328  1.3843 -0.0156
10365TIP3    H255291   5.071   8.001  10.450  1.0195 -1.2353  0.7851
10366TIP3   OH255292   2.959   6.811  12.617  0.2476 -0.2631  0.7354
10366TIP3    H155293   2.875   6.799  12.662 -0.0323 -0.7090  0.0998
10366TIP3    H255294   2.975   6.906  12.622 -0.8160 -0.0180 -0.0371
10367TIP3   OH255295   1.668   4.866  12.541  0.4102 -0.0463  0.0814
10367TIP3    H155296   1.740   4.819  12.582 -0.5284  0.6954  2.8206
10367TIP3    H255297   1.659   4.826  12.455  2.6161 -1.6632  0.5054
10368TIP3   OH255298   1.639   1.034  12.268 -0.1251 -0.6479 -0.0844
10368TIP3    H155299   1.697   1.108  12.251  0.8494 -1.3286  0.1736
10368TIP3    H255300   1.646   0.979  12.189 -2.5068  0.5358 -1.2253
10369TIP3   OH255301   0.931   3.323  11.598 -0.8457 -0.2121  0.2203
10369TIP3    H155302   0.958   3.308  11.688 -1.2097  0.8490  0.5208
10369TIP3    H255303   0.946   3.239  11.554  1.0177 -0.2541  0.8285
10370TIP3   OH255304   3.242   5.362  11.220  0.2220  0.2227  0.1023
10370TIP3    H155305   3.261   5.307  11.296  0.9487  0.8078  0.3527
10370TIP3    H255306   3.245   5.301  11.146  1.1593 -0.0775  0.3635
10371TIP3   OH255307   7.711   7.923  12.553  0.1300  0.5500 -0.1151
10371TIP3    H155308   7.753   7.946  12.471  0.9429  0.1637  0.1865
10371TIP3    H255309   7.745   7.986  12.616 -1.0026  1.2798 -0.1875
10372TIP3   OH255310   8.390   4.627  11.233 -0.1691 -0.8136  0.3215
10372TIP3    H155311   8.480   4.659  11.226 -0.4994  0.3332  1.0534
10372TIP3    H255312   8.336   4.706  11.237 -1.3899 -1.4671 -1.8040
10373TIP3   OH255313   5.798   0.877  12.709 -0.3948 -0.3884 -0.2731
10373TIP3    H155314   5.887   0.897  12.680 -0.4234  1.8215  0.9909
10373TIP3    H255315   5.742   0.903  12.636 -0.0900 -0.5863 -0.5772
10374TIP3   OH255316   8.179   2.641  12.404  0.1528  0.0194 -0.0606
10374TIP3    H155317   8.129   2.647  12.485 -1.1671  2.6331 -0.9534
10374TIP3    H255318   8.271   2.639  12.433 -0.3035  0.2659  1.5086
10375TIP3   OH255319   7.846   1.159  11.335 -0.0450 -0.5331  0.3871
10375TIP3    H155320   7.941   1.146  11.334 -0.3192 -3.2463  0.9046
10375TIP3    H255321   7.823   1.182  11.245  1.0702 -0.1486  0.1905
10376TIP3   OH255322   7.680   3.475  12.162 -0.0684 -0.2145 -0.0279
10376TIP3    H155323   7.633   3.406  12.115 -0.6776 -0.6353  1.1538
10376TIP3    H255324   7.613   3.540  12.183  0.4215  0.5445 -0.7557
10377TIP3   OH255325   5.831   2.568  12.358  0.0860  0.0040 -0.2615
10377TIP3    H155326   5.788   2.635  12.412 -0.6948 -0.7530  0.0671
10377TIP3    H255327   5.906   2.540  12.410 -1.1066 -1.2992  0.8359
10378TIP3   OH255328   8.046   3.562  12.311 -0.2069  0.6084 -0.1618
10378TIP3    H155329   8.111   3.555  12.242 -0.8305 -0.1724 -0.6958
10378TIP3    H255330   8.051   3.653  12.341  0.5119  0.7811 -0.7884
10379TIP3   OH255331   4.900   3.995  12.426  0.3041 -0.0215  0.0852
10379TIP3    H155332   4.913   4.062  12.493  0.5197  1.9577 -1.8091
10379TIP3    H255333   4.986   3.954  12.416  0.4842  0.2726  0.4195
10380TIP3   OH255334   2.897   5.129  12.032 -0.0971 -0.0742 -0.0206
10380TIP3    H155335   2.943   5.189  12.091  0.8314 -0.5008 -0.2946
10380TIP3    H255336   2.949   5.049  12.033 -2.1174 -1.4950  1.5355
10381TIP3   OH255337   2.704   6.637  11.338  0.2950  0.4583  0.6732
10381TIP3    H155338   2.748   6.575  11.396 -0.2777  0.4703  1.1353
10381TIP3    H255339   2.629   6.589  11.304  0.2866  0.6489  0.4243
10382TIP3   OH255340   7.318   0.489  11.479 -0.7485 -0.9016 -0.0287
10382TIP3    H155341   7.394   0.431  11.480 -0.5980 -0.7062  0.1811
10382TIP3    H255342   7.283   0.485  11.568  0.5655  0.9898  0.6497
10383TIP3   OH255343   6.046   1.069  12.078 -0.3902 -0.7462 -0.2705
10383TIP3    H155344   6.111   1.064  12.148 -0.8175 -0.4725  0.1463
10383TIP3    H255345   6.024   0.978  12.060  0.0232 -0.8353 -0.3336
10384TIP3   OH255346   6.907   6.964  11.860 -0.0546  0.3161  0.2278
10384TIP3    H155347   6.891   7.026  11.789  1.2369  0.6459  0.2079
10384TIP3    H255348   6.934   6.883  11.816 -0.7210  0.0463  0.2982
10385TIP3   OH255349   2.327   4.726  13.043 -0.1721 -0.4642 -0.3193
10385TIP3    H155350   2.319   4.651  12.985  1.6851 -0.8881 -0.0620
10385TIP3    H255351   2.256   4.714  13.107 -0.3448 -1.5987 -0.7050
10386TIP3   OH255352   7.589   1.678  10.783 -0.3655 -0.1502 -0.1400
10386TIP3    H155353   7.648   1.686  10.858  0.0562  0.3807 -0.5285
10386TIP3    H255354   7.629   1.611  10.728 -1.7450 -2.1293  1.0815
10387TIP3   OH255355   3.671   3.906  11.007 -0.0367  0.3757  0.0290
10387TIP3    H155356   3.718   3.899  10.923  0.1863  1.0504  0.0967
10387TIP3    H255357   3.641   3.996  11.010  0.8666  0.6590  1.1563
10388TIP3   OH255358   3.251   1.102  11.842 -0.6905  0.3004  0.4210
10388TIP3    H155359   3.294   1.162  11.781 -0.3912 -0.9453 -0.6503
10388TIP3    H255360   3.318   1.038  11.864 -1.2384 -0.1311  0.8721
10389TIP3   OH255361   2.978   8.075  10.920  0.2006  0.0009  0.0310
10389TIP3    H155362   2.915   8.141  10.946 -0.8472 -0.7564 -0.5324
10389TIP3    H255363   3.037   8.067  10.995 -0.1729  0.9455  0.4354
10390TIP3   OH255364   1.275   4.547  12.397 -0.3565  0.1204  0.4511
10390TIP3    H155365   1.286   4.595  12.314  0.1711  1.0901  1.0660
10390TIP3    H255366   1.240   4.462  12.370  1.1636 -0.1388 -0.9254
10391TIP3   OH255367   4.075   2.085  10.535 -0.2191 -0.4777 -0.7659
10391TIP3    H155368   4.064   2.163  10.590 -0.4321 -0.0901 -1.3446
10391TIP3    H255369   3.986   2.062  10.508 -0.0797 -0.4149 -1.2832
10392TIP3   OH255370   2.789   4.085  11.910  0.2745  0.0543  0.1665
10392TIP3    H155371   2.826   3.997  11.911  2.0897  0.7832  1.9594
10392TIP3    H255372   2.820   4.126  11.990 -0.8889  2.2130 -0.4019
10393TIP3   OH255373   0.496   2.258  11.989 -0.3126 -0.1586  0.2147
10393TIP3    H155374   0.510   2.164  12.001  1.6553 -0.0289 -0.5990
10393TIP3    H255375   0.531   2.276  11.901  0.2868  1.4841  0.7520
10394TIP3   OH255376   3.304   2.235  11.363 -0.2974 -0.4298 -0.4475
10394TIP3    H155377   3.283   2.188  11.282  0.0151  0.1218 -0.8486
10394TIP3    H255378   3.221   2.274  11.390 -0.1487  0.4334 -1.1856
10395TIP3   OH255379   7.716   6.993  10.599  0.3968  0.5085 -0.2685
10395TIP3    H155380   7.794   7.046  10.614  0.1638  0.0481  3.4001
10395TIP3    H255381   7.643   7.052  10.619 -0.1248  0.2900 -1.4567
10396TIP3   OH255382   3.048   7.519  11.939  0.4099 -0.5571 -0.4494
10396TIP3    H155383   3.043   7.426  11.960 -1.0164 -0.7747 -1.5779
10396TIP3    H255384   3.122   7.526  11.879  0.6373 -0.9296 -0.2164
10397TIP3   OH255385   3.076   3.977  12.809 -0.2485  0.3340 -0.5031
10397TIP3    H155386   3.166   3.947  12.826 -0.2193  0.6683 -0.0646
10397TIP3    H255387   3.077   4.070  12.833 -1.2119 -0.0990  1.3665
10398TIP3   OH255388   3.414   7.719  11.376  0.2849 -0.2330  0.0904
10398TIP3    H155389   3.495   7.742  11.330  0.2076  0.6341  0.3736
10398TIP3    H255390   3.437   7.726  11.469  0.2804 -1.4087  0.1904
10399TIP3   OH255391   5.674   5.033  11.754  0.3578 -0.1764  0.0036
10399TIP3    H155392   5.683   4.946  11.793 -1.7860  0.0699  1.1713
10399TIP3    H255393   5.758   5.049  11.711  1.8693 -1.6093  2.2354
10400TIP3   OH255394   3.741   0.254  12.433 -0.3072 -0.3427 -0.5449
10400TIP3    H155395   3.746   0.159  12.420 -0.6202 -0.0955 -3.0075
10400TIP3    H255396   3.742   0.290  12.345 -3.7556  1.7748  0.0786
10401TIP3   OH255397   4.030   2.293  10.716 -0.1466 -0.0797  0.2158
10401TIP3    H155398   4.034   2.377  10.670  1.1536 -0.4866 -0.4599
10401TIP3    H255399   3.943   2.291  10.755  0.3384  2.3007  1.6313
10402TIP3   OH255400   6.222   0.841  12.188  0.3723 -0.2914 -0.2668
10402TIP3    H155401   6.197   0.901  12.259 -0.4198  0.4407 -1.1381
10402TIP3    H255402   6.317   0.852  12.181  0.2864  0.6364 -0.1932
10403TIP3   OH255403   0.650   6.511  11.030  0.0046 -0.2270 -0.6540
10403TIP3    H155404   0.643   6.418  11.008 -1.4518  0.1652 -2.0845
10403TIP3    H255405   0.660   6.554  10.945 -0.2076  0.9874 -0.0782
10404TIP3   OH255406   5.664   2.999  12.045 -0.0120 -0.3701 -0.1437
10404TIP3    H155407   5.683   2.917  12.088  1.9418 -0.2247 -0.6632
10404TIP3    H255408   5.747   3.027  12.006  0.5565  3.8069  3.2417
10405TIP3   OH255409   1.862   4.817  11.777  0.2494 -0.0940 -0.1063
10405TIP3    H155410   1.860   4.807  11.872 -1.8456 -0.6082 -0.1590
10405TIP3    H255411   1.828   4.906  11.761  0.1796 -0.1676 -0.3834
10406TIP3   OH255412   4.715   0.818  10.894 -0.4327  0.0743  0.7021
10406TIP3    H155413   4.702   0.836  10.801 -0.1581  1.2643  0.8805
10406TIP3    H255414   4.627   0.819  10.931 -0.5013  0.0848  0.5390
10407TIP3   OH255415   7.732   6.103  11.190 -0.2883 -0.0482  0.2872
10407TIP3    H155416   7.820   6.082  11.223 -0.0906 -0.1446 -0.2938
10407TIP3    H255417   7.747   6.166  11.120 -0.7589  0.6762  0.8321
10408TIP3   OH255418   4.122   5.021  12.009 -0.4683  0.6403 -0.0747
10408TIP3    H155419   4.134   5.037  11.915 -1.2882 -0.6295 -0.4242
10408TIP3    H255420   4.149   4.930  12.021 -1.5796  0.3829  0.6571
10409TIP3   OH255421   7.585   2.322  11.162  0.3461 -0.0810 -0.4692
10409TIP3    H155422   7.657   2.259  11.163 -0.5198 -1.0938 -0.6837
10409TIP3    H255423   7.519   2.284  11.104 -0.2330  0.9855 -0.5467
10410TIP3   OH255424   0.180   0.388  10.757 -0.3209 -0.4064 -0.3990
10410TIP3    H155425   0.252   0.451  10.756 -1.5369  1.0455 -0.0642
10410TIP3    H255426   0.119   0.421  10.692 -0.2285 -2.2081 -1.4416
10411TIP3   OH255427   5.540   3.534  10.568  0.2072 -0.1357 -0.1448
10411TIP3    H155428   5.457   3.556  10.611 -0.7820  0.7868 -2.3831
10411TIP3    H255429   5.605   3.589  10.611 -1.0799  2.2600 -1.0939
10412TIP3   OH255430   3.591   1.020  10.805 -0.2733  0.0769 -0.3254
10412TIP3    H155431   3.518   1.020  10.867 -0.6628  0.9714 -0.7643
10412TIP3    H255432   3.608   0.927  10.788 -0.3496 -0.1630  0.8817
10413TIP3   OH255433   1.883   3.533  10.568 -0.3639 -0.0491 -0.0099
10413TIP3    H155434   1.938   3.596  10.522 -1.8909  1.0710 -0.3644
10413TIP3    H255435   1.894   3.451  10.519  2.0006 -0.2409  0.7262
10414TIP3   OH255436   6.310   5.457  11.893 -0.3118  0.0813  0.3233
10414TIP3    H155437   6.245   5.525  11.911 -0.1229 -0.3980  3.1510
10414TIP3    H255438   6.299   5.394  11.963  1.6485 -1.2243 -0.4659
10415TIP3   OH255439   4.449   6.346  11.262 -0.2893  0.1840  0.3982
10415TIP3    H155440   4.388   6.419  11.253  0.9323  1.1833 -0.0798
10415TIP3    H255441   4.400   6.280  11.310 -1.8529  0.8184 -0.2426
10416TIP3   OH255442   7.404   4.750  11.223 -0.0841 -1.0318  0.1574
10416TIP3    H155443   7.499   4.758  11.234 -0.2349  0.5187  0.5574
10416TIP3    H255444   7.372   4.840  11.231 -1.7131 -1.6789  1.2599
10417TIP3   OH255445   8.013   5.881  10.875  0.6751  0.7605  0.0653
10417TIP3    H155446   8.030   5.805  10.819 -0.3463 -0.9837  1.9896
10417TIP3    H255447   7.919   5.896  10.867  0.9854  2.4685 -0.9756
10418TIP3   OH255448   6.511   8.162  12.029  0.4061 -0.4810  0.2521
10418TIP3    H155449   6.578   8.143  12.095  0.6099 -1.6501 -0.2625
10418TIP3    H255450   6.545   8.124  11.948 -0.8335 -1.0363 -0.0372
10419TIP3   OH255451   1.562   5.822  10.810  0.1996  0.2476  0.0004
10419TIP3    H155452   1.655   5.808  10.826 -0.2198  0.0225  2.8488
10419TIP3    H255453   1.552   5.917  10.807  0.4414  0.2964  0.5565
10420TIP3   OH255454   1.018   0.849  12.411 -0.5539  0.1646  0.2471
10420TIP3    H155455   1.052   0.765  12.381  1.2787  1.1067 -0.4841
10420TIP3    H255456   1.015   0.903  12.332 -2.1228  0.6897  0.6219
10421TIP3   OH255457   3.741   4.240  10.759 -0.0776 -0.3510 -0.3734
10421TIP3    H155458   3.740   4.324  10.807  0.9121 -0.2730 -0.4651
10421TIP3    H255459   3.664   4.194  10.791 -1.0281  0.8666 -0.8153
10422TIP3   OH255460   2.455   3.791  12.898  0.0172  0.1379 -0.6653
10422TIP3    H155461   2.456   3.701  12.867 -0.1555 -0.4997  1.0408
10422TIP3    H255462   2.409   3.786  12.982  0.5452  1.7191 -0.2572
10423TIP3   OH255463   3.574   0.749  12.387  0.0079 -0.7792  0.1112
10423TIP3    H155464   3.569   0.730  12.480 -0.9159  2.0638  0.7124
10423TIP3    H255465   3.633   0.682  12.352 -1.3058 -3.2581  2.2988
10424TIP3   OH255466   0.988   6.074  12.000 -0.8140 -0.1675 -0.2225
10424TIP3    H155467   1.024   5.985  11.997 -1.4965 -0.4837  0.5807
10424TIP3    H255468   0.920   6.076  11.934  0.2766  0.2755 -1.3840
10425TIP3   OH255469   2.850   8.417  11.757 -0.0332  0.2137 -0.8183
10425TIP3    H155470   2.814   8.337  11.794 -0.8325  1.2446  0.7376
10425TIP3    H255471   2.773   8.473  11.744  0.7218  1.5405  0.2240
10426TIP3   OH255472   7.698   6.320  11.399  0.1089  0.7416  0.1866
10426TIP3    H155473   7.693   6.366  11.315 -0.9044  1.6126  0.7056
10426TIP3    H255474   7.711   6.228  11.375 -0.8142  0.8800 -0.9520
10427TIP3   OH255475   0.653   2.288  12.241  1.0314  0.2664 -0.8094
10427TIP3    H155476   0.636   2.249  12.155 -0.5707  2.0034 -1.3724
10427TIP3    H255477   0.569   2.282  12.286  1.8683 -0.6620  0.6876
10428TIP3   OH255478   0.377   5.730  11.316  0.1483  0.1029 -0.2015
10428TIP3    H155479   0.319   5.788  11.364  2.9370  4.1338 -1.2345
10428TIP3    H255480   0.323   5.699  11.242 -0.9035  3.4912 -1.0366
10429TIP3   OH255481   0.365   3.223  12.332 -0.0532  0.7990 -0.5122
10429TIP3    H155482   0.426   3.236  12.260  0.6802 -0.1888 -0.0885
10429TIP3    H255483   0.279   3.214  12.290  0.7336 -3.2550 -1.6748
10430TIP3   OH255484   6.165   3.605  12.560 -0.5440  0.8458  0.9405
10430TIP3    H155485   6.191   3.609  12.467 -0.6637 -1.0262  0.7818
10430TIP3    H255486   6.248   3.590  12.606 -0.8282 -2.2852  0.6920
10431TIP3   OH255487   0.785   4.723  12.799  0.4692 -0.1673 -0.7333
10431TIP3    H155488   0.738   4.737  12.882  1.1779  0.7058 -0.4607
10431TIP3    H255489   0.792   4.628  12.792  0.8725 -0.2552  0.5001
10432TIP3   OH255490   8.225   2.868  12.996  0.1164 -0.0113  0.1085
10432TIP3    H155491   8.250   2.842  12.907 -0.3882 -1.0478  0.2467
10432TIP3    H255492   8.141   2.825  13.011  0.9635 -1.2802  1.6798
10433TIP3   OH255493   4.266   8.083  11.312 -0.2753 -0.4314  0.2037
10433TIP3    H155494   4.243   7.991  11.320 -0.1365 -0.3584  1.7785
10433TIP3    H255495   4.341   8.084  11.252 -0.2768 -1.3279  0.1711
10434TIP3   OH255496   3.316   4.383  11.507 -0.2884 -0.2597  0.0729
10434TIP3    H155497   3.334   4.470  11.471  1.9095 -0.3649  0.7587
10434TIP3    H255498   3.269   4.399  11.589 -2.3908  0.1072 -1.1285
10435TIP3   OH255499   0.591   5.277  12.298 -0.1475 -0.1057  0.3982
10435TIP3    H155500   0.564   5.185  12.293 -1.2057  0.1372  1.4475
10435TIP3    H255501   0.521   5.321  12.347  0.2480  1.3031 -0.2431
10436TIP3   OH255502   2.799   5.298  11.698  0.4800 -0.0678  0.1405
10436TIP3    H155503   2.809   5.234  11.628 -0.3349  0.3858 -0.4048
10436TIP3    H255504   2.711   5.335  11.685  1.2752  1.8407 -0.1305
10437TIP3   OH255505   5.878   6.614  10.758  0.3186  0.0775  0.2390
10437TIP3    H155506   5.897   6.704  10.786  0.4090 -0.0426  0.5663
10437TIP3    H255507   5.783   6.612  10.746  0.4614  0.6463 -1.2861
10438TIP3   OH255508   0.230   2.903  11.613  0.3110  0.5021 -0.4710
10438TIP3    H155509   0.272   2.928  11.531 -0.6524  2.5933 -0.3895
10438TIP3    H255510   0.283   2.830  11.646  1.7632  0.7805 -2.0556
10439TIP3   OH255511   4.822   7.003  10.335 -0.3058 -0.4992 -0.0029
10439TIP3    H155512   4.757   6.935  10.353  0.4543 -0.9588  1.1590
10439TIP3    H255513   4.872   6.969  10.261 -0.4444 -0.8384  0.0552
   8.44854   8.44854  30.00000
