Title
55513
    1DOPE     N    1   3.769   3.588  11.693  0.2234 -0.2790 -0.2957
    1DOPE   HN1    2   3.714   3.543  11.770  1.1866 -1.8015 -0.4655
    1DOPE   HN2    3   3.871   3.571  11.703  0.3997 -0.5215 -2.1474
    1DOPE   HN3    4   3.764   3.692  11.693 -0.2304 -0.2620 -2.6707
    1DOPE   C12    5   3.743   3.515  11.562  0.1476  0.1204  0.7441
    1DOPE  H12A    6   3.793   3.416  11.568  3.5054  1.6463  0.2047
    1DOPE  H12B    7   3.790   3.579  11.485 -0.2648  0.2554  0.6046
    1DOPE   C11    8   3.588   3.500  11.540  0.3781  0.2482 -0.2912
    1DOPE  H11A    9   3.550   3.423  11.611  0.9330 -0.9026 -1.2116
    1DOPE  H11B   10   3.562   3.442  11.449  0.3040 -0.1380 -0.0264
    1DOPE     P   11   3.537   3.745  11.464 -0.3024  0.3489  0.0709
    1DOPE   O13   12   3.661   3.796  11.524  0.4269  0.1278  0.2345
    1DOPE   O14   13   3.418   3.829  11.449  0.0732  0.0344 -0.0760
    1DOPE   O11   14   3.577   3.701  11.318 -0.7234  0.6366 -0.8860
    1DOPE   O12   15   3.508   3.613  11.543  0.5284  0.0461 -0.7217
    1DOPE    C1   16   3.477   3.643  11.227 -0.3143  0.2338  0.3344
    1DOPE    HA   17   3.379   3.694  11.236 -0.2655  0.9915 -2.5112
    1DOPE    HB   18   3.473   3.532  11.239 -1.2028  0.3821  1.5097
    1DOPE    C2   19   3.530   3.675  11.084  0.0921  0.2026 -0.0845
    1DOPE    HS   20   3.616   3.609  11.061  1.3510  1.8045 -0.1169
    1DOPE   O21   21   3.548   3.815  11.083 -0.3889 -0.3205 -0.2627
    1DOPE   C21   22   3.672   3.859  11.101 -0.4643 -0.0829 -0.4118
    1DOPE   O22   23   3.773   3.786  11.103 -0.5409  0.0682 -0.6006
    1DOPE   C22   24   3.684   4.007  11.113 -0.1170 -0.2209  0.0554
    1DOPE   H2R   25   3.700   4.030  11.221  1.6282 -1.8063  0.2016
    1DOPE   H2S   26   3.588   4.056  11.086 -1.2340 -1.9677  0.7030
    1DOPE    C3   27   3.419   3.651  10.972 -0.6920  0.5328 -0.1860
    1DOPE    HX   28   3.348   3.735  10.987 -2.4141  0.0330 -4.3732
    1DOPE    HY   29   3.363   3.555  10.981  1.5137 -0.7385  1.2336
    1DOPE   O31   30   3.470   3.663  10.840  0.2851  0.0528 -0.0091
    1DOPE   C31   31   3.554   3.560  10.806  0.7180  0.5935  0.0191
    1DOPE   O32   32   3.563   3.456  10.867 -0.5694 -0.7129 -0.1765
    1DOPE   C32   33   3.626   3.608  10.677  0.1812 -0.0933 -0.3438
    1DOPE   H2X   34   3.561   3.686  10.632 -0.7875 -0.1119  0.9697
    1DOPE   H2Y   35   3.719   3.660  10.710  0.4256  1.1669 -2.7844
    1DOPE   C23   36   3.808   4.055  11.041  0.2190  0.1506 -0.4556
    1DOPE   H3R   37   3.894   3.987  11.059 -1.9727 -2.8013 -0.3647
    1DOPE   H3S   38   3.836   4.155  11.082 -1.0493 -0.4178  1.9565
    1DOPE   C24   39   3.800   4.046  10.892 -0.4158 -0.7965  0.1331
    1DOPE   H4R   40   3.718   4.100  10.840 -0.3169 -0.7194  0.0560
    1DOPE   H4S   41   3.781   3.943  10.856 -0.2778 -0.6035 -0.5136
    1DOPE   C25   42   3.929   4.088  10.825 -0.4080 -0.4111  0.2741
    1DOPE   H5R   43   4.011   4.025  10.866  0.2898 -1.0227 -1.9246
    1DOPE   H5S   44   3.942   4.192  10.860 -1.4705 -1.1284  3.0727
    1DOPE   C26   45   3.933   4.081  10.671  0.0916 -0.0177  0.5577
    1DOPE   H6R   46   3.864   4.156  10.625  2.1297  1.1306 -0.7565
    1DOPE   H6S   47   3.896   3.981  10.640 -0.7559 -0.2198  2.0919
    1DOPE   C27   48   4.079   4.108  10.624 -0.4904  0.0714 -0.2749
    1DOPE   H7R   49   4.098   4.052  10.530 -0.4015  1.2344 -0.9625
    1DOPE   H7S   50   4.162   4.092  10.696 -1.3279  1.7016  1.1106
    1DOPE   C28   51   4.103   4.252  10.566  0.1368  0.5502  0.2518
    1DOPE   H8R   52   4.039   4.264  10.476  0.8487  3.6028  0.0442
    1DOPE   H8S   53   4.205   4.255  10.522 -0.6623  0.3956 -1.7213
    1DOPE   C29   54   4.080   4.362  10.673 -0.2777 -1.1626  0.3707
    1DOPE   H9R   55   3.994   4.350  10.740  0.8778 -0.2824  2.1001
    1DOPE  C210   56   4.151   4.473  10.684  0.5770 -0.2987 -0.3864
    1DOPE  H10R   57   4.117   4.556  10.748  0.2463  1.0090 -2.2069
    1DOPE  C211   58   4.279   4.496  10.607 -0.2052 -0.0714 -0.8392
    1DOPE  H11R   59   4.313   4.428  10.526  2.8805 -1.1172  1.1482
    1DOPE  H11S   60   4.371   4.499  10.669  1.1756  0.6139 -2.8074
    1DOPE  C212   61   4.259   4.646  10.556 -0.1915 -0.6639  0.0837
    1DOPE  H12R   62   4.265   4.703  10.651  0.0677 -0.9540  0.2426
    1DOPE  H12S   63   4.161   4.666  10.508 -0.6704  2.1423  2.0090
    1DOPE  C213   64   4.364   4.700  10.462  0.3503 -1.1208 -0.0752
    1DOPE  H13R   65   4.364   4.619  10.386 -0.0589 -0.8501 -0.3696
    1DOPE  H13S   66   4.465   4.696  10.507  0.1386 -0.6880  0.4450
    1DOPE  C214   67   4.341   4.842  10.403  0.4923  0.3436  0.1848
    1DOPE  H14R   68   4.246   4.856  10.346  0.9819 -0.6401 -0.9170
    1DOPE  H14S   69   4.423   4.875  10.336  2.6208  1.4369  3.1486
    1DOPE  C215   70   4.346   4.959  10.510  0.1543 -0.2656  0.0632
    1DOPE  H15R   71   4.444   4.951  10.562 -0.3213 -0.6160  0.9165
    1DOPE  H15S   72   4.262   4.927  10.575 -1.1717 -0.1978 -1.5741
    1DOPE  C216   73   4.323   5.101  10.445  0.6030  0.4594  0.4073
    1DOPE  H16R   74   4.226   5.101  10.390 -0.4513 -1.1212  2.1589
    1DOPE  H16S   75   4.401   5.107  10.366  1.0829  0.4792  0.8760
    1DOPE  C217   76   4.324   5.217  10.548 -0.6037 -0.5635 -0.0141
    1DOPE  H17R   77   4.400   5.213  10.629  0.1903  2.8702 -0.4339
    1DOPE  H17S   78   4.221   5.233  10.588 -1.3941  1.0480 -2.4093
    1DOPE  C218   79   4.329   5.355  10.479 -0.1960  0.1156 -0.2273
    1DOPE  H18R   80   4.423   5.361  10.419 -0.0375  0.5056  0.0553
    1DOPE  H18S   81   4.326   5.422  10.567  1.5861  0.0379 -0.0568
    1DOPE  H18T   82   4.242   5.375  10.413  0.7759  3.2681 -0.7405
    1DOPE   C33   83   3.664   3.499  10.566  1.1213 -0.4613 -0.3325
    1DOPE   H3X   84   3.574   3.461  10.512  0.8544 -0.7008  0.2745
    1DOPE   H3Y   85   3.711   3.408  10.608 -1.0157 -1.5168 -0.0914
    1DOPE   C34   86   3.760   3.556  10.455  0.2311  0.7733 -0.8985
    1DOPE   H4X   87   3.859   3.587  10.492  0.2432  1.3857 -1.4370
    1DOPE   H4Y   88   3.778   3.478  10.378 -2.3444 -1.4952  0.5773
    1DOPE   C35   89   3.697   3.676  10.382 -0.4670  0.1653  0.2443
    1DOPE   H5X   90   3.677   3.758  10.455  1.0043  0.3125  0.5240
    1DOPE   H5Y   91   3.604   3.650  10.327  0.0119 -0.0516 -0.4785
    1DOPE   C36   92   3.784   3.753  10.274 -0.1458 -0.1589  0.0815
    1DOPE   H6X   93   3.716   3.826  10.225 -1.6481 -1.5287  0.0269
    1DOPE   H6Y   94   3.818   3.681  10.196  0.0124  1.3791 -1.3267
    1DOPE   C37   95   3.904   3.823  10.345 -0.1071  0.8945 -0.5450
    1DOPE   H7X   96   3.866   3.904  10.411  0.4100 -0.9209  2.1905
    1DOPE   H7Y   97   3.954   3.744  10.406  0.6023  1.1334 -0.8108
    1DOPE   C38   98   3.999   3.863  10.238 -0.1302 -0.8527  0.2533
    1DOPE   H8X   99   3.939   3.941  10.187 -0.1116 -0.0431  1.4237
    1DOPE   H8Y  100   3.997   3.774  10.172 -0.7182 -0.7484  0.1290
    1DOPE   C39  101   4.134   3.895  10.283 -0.3436 -0.4384  0.3579
    1DOPE   H9X  102   4.198   3.810  10.311  0.6368  0.5078  1.0916
    1DOPE  C310  103   4.186   4.018  10.258 -0.5662  0.1743  0.1143
    1DOPE  H10X  104   4.294   4.017  10.281 -0.9293 -1.3368  2.0342
    1DOPE  C311  105   4.120   4.145  10.211 -0.1436  0.9804 -0.2234
    1DOPE  H11X  106   4.011   4.136  10.187 -0.1668 -1.8325  0.5763
    1DOPE  H11Y  107   4.128   4.230  10.282 -2.3844  0.6297  0.5581
    1DOPE  C312  108   4.181   4.195  10.078  0.1469 -0.1404  0.1506
    1DOPE  H12X  109   4.166   4.119   9.998  0.7308  1.3402 -1.4303
    1DOPE  H12Y  110   4.290   4.185  10.093  0.1005 -0.3033  0.3739
    1DOPE  C313  111   4.145   4.336  10.035  0.0938 -0.1808  0.1344
    1DOPE  H13X  112   4.144   4.329   9.924 -2.5690 -2.9328  0.2088
    1DOPE  H13Y  113   4.040   4.370  10.048 -0.7210 -1.5137 -2.3154
    1DOPE  C314  114   4.236   4.443  10.094 -0.3175  0.3595 -0.4428
    1DOPE  H14X  115   4.227   4.435  10.204  0.0118 -0.0046 -0.4407
    1DOPE  H14Y  116   4.192   4.540  10.063 -0.3475 -0.1799 -2.2450
    1DOPE  C315  117   4.383   4.438  10.053 -0.5832  0.3790 -0.2754
    1DOPE  H15X  118   4.417   4.341  10.095 -1.3907  0.5600  0.8430
    1DOPE  H15Y  119   4.454   4.517  10.087  0.2566 -0.4647 -0.0079
    1DOPE  C316  120   4.414   4.439   9.906 -0.2874 -0.7515 -0.0110
    1DOPE  H16X  121   4.347   4.357   9.871  0.0087 -0.6987 -0.7155
    1DOPE  H16Y  122   4.521   4.408   9.904 -0.1672 -0.3891  0.4428
    1DOPE  C317  123   4.396   4.572   9.839 -0.3637  0.0268 -1.2872
    1DOPE  H17X  124   4.292   4.606   9.861  0.2193  1.1420 -0.1150
    1DOPE  H17Y  125   4.460   4.651   9.884 -0.7356  0.9346 -2.2925
    1DOPE  C318  126   4.416   4.566   9.689  0.3000  0.2311  0.3625
    1DOPE  H18X  127   4.525   4.548   9.675  0.2154 -0.1840  0.2446
    1DOPE  H18Y  128   4.358   4.493   9.628 -0.9089  1.4681 -0.0263
    1DOPE  H18Z  129   4.391   4.664   9.641 -1.3979 -0.1216  0.4519
    2DOPE     N  130   4.236   4.177  11.357 -0.7596 -0.0364 -0.4211
    2DOPE   HN1  131   4.233   4.183  11.461  2.0887  0.1649 -0.2810
    2DOPE   HN2  132   4.328   4.209  11.322 -0.7721  1.7498  0.9799
    2DOPE   HN3  133   4.161   4.241  11.323 -0.6760 -0.1619 -0.8390
    2DOPE   C12  134   4.193   4.033  11.319  0.1788  0.4233 -0.1048
    2DOPE  H12A  135   4.203   4.038  11.208  0.5712  0.9390 -0.0502
    2DOPE  H12B  136   4.089   4.017  11.356  0.7366 -1.0435  0.8807
    2DOPE   C11  137   4.279   3.920  11.379 -0.7793 -0.3007  0.5471
    2DOPE  H11A  138   4.233   3.829  11.332  0.2918 -0.7272  0.2957
    2DOPE  H11B  139   4.276   3.918  11.490  2.0863 -0.1772  0.7025
    2DOPE     P  140   4.528   3.855  11.372  0.2468  0.0200  0.0902
    2DOPE   O13  141   4.517   3.819  11.514  0.0697  0.5057  0.4821
    2DOPE   O14  142   4.660   3.911  11.335  0.7264 -0.1472  0.3031
    2DOPE   O11  143   4.490   3.722  11.294  0.0571 -0.1663 -0.1834
    2DOPE   O12  144   4.415   3.948  11.329  0.2011  0.0051  0.2421
    2DOPE    C1  145   4.531   3.699  11.163 -0.2153  0.4473  0.6221
    2DOPE    HA  146   4.539   3.592  11.134  1.9489  1.0338 -1.1763
    2DOPE    HB  147   4.632   3.735  11.136 -0.2203 -0.5165 -0.8304
    2DOPE    C2  148   4.432   3.763  11.060 -0.0740 -0.1719 -0.4168
    2DOPE    HS  149   4.433   3.874  11.067 -0.4012 -0.1465 -0.7184
    2DOPE   O21  150   4.296   3.718  11.084 -0.2579 -0.1160 -0.5001
    2DOPE   C21  151   4.211   3.795  11.022  0.2175 -0.1140  0.2072
    2DOPE   O22  152   4.221   3.913  10.997  0.1233 -0.3207 -0.0944
    2DOPE   C22  153   4.082   3.714  11.002 -0.4119  0.1567  0.3626
    2DOPE   H2R  154   3.995   3.760  11.053 -0.8158  1.9139 -1.7258
    2DOPE   H2S  155   4.101   3.608  11.029  1.0850  0.0555 -0.9306
    2DOPE    C3  156   4.464   3.737  10.910 -0.8778 -0.2810  0.2410
    2DOPE    HX  157   4.412   3.815  10.850  1.7235  0.3224 -1.4210
    2DOPE    HY  158   4.425   3.635  10.891  0.1917 -0.8152  0.8367
    2DOPE   O31  159   4.608   3.748  10.884  0.1303  1.1035  0.0012
    2DOPE   C31  160   4.647   3.867  10.864  0.2689  0.3023 -0.3548
    2DOPE   O32  161   4.570   3.962  10.861  0.1280  0.6826 -0.0860
    2DOPE   C32  162   4.796   3.871  10.840  0.1486 -0.5903 -0.0208
    2DOPE   H2X  163   4.850   3.826  10.927  0.1135  1.7129  1.2755
    2DOPE   H2Y  164   4.819   3.814  10.748  0.1247 -1.6957  0.6301
    2DOPE   C23  165   4.030   3.718  10.857  0.2378  0.4404 -0.4467
    2DOPE   H3R  166   3.997   3.822  10.832  1.9781  1.0702 -0.2560
    2DOPE   H3S  167   3.931   3.668  10.854  1.2245 -1.5325 -2.3252
    2DOPE   C24  168   4.124   3.666  10.747 -0.2496 -0.0722 -0.6594
    2DOPE   H4R  169   4.225   3.712  10.742  0.4683 -1.5368 -0.0719
    2DOPE   H4S  170   4.067   3.684  10.653 -2.3740 -2.4641  0.0599
    2DOPE   C25  171   4.148   3.515  10.755 -0.1844 -0.0734 -1.1462
    2DOPE   H5R  172   4.197   3.495  10.853  0.9750 -0.2021 -1.7346
    2DOPE   H5S  173   4.211   3.478  10.672 -0.4545 -0.3766 -1.2185
    2DOPE   C26  174   4.025   3.421  10.763 -0.7180 -0.1188 -0.4399
    2DOPE   H6R  175   3.966   3.451  10.674  0.0983 -0.0018 -0.9446
    2DOPE   H6S  176   3.975   3.433  10.862  3.1787  2.1471  1.4996
    2DOPE   C27  177   4.060   3.266  10.751 -0.5164  0.2924 -0.1573
    2DOPE   H7R  178   4.126   3.254  10.840 -0.6353  1.6294  0.1360
    2DOPE   H7S  179   4.102   3.258  10.649 -2.3788 -1.6925 -0.8490
    2DOPE   C28  180   3.930   3.185  10.744  0.3664 -0.2510 -0.3630
    2DOPE   H8R  181   3.863   3.223  10.664  1.2803 -0.7243 -1.3868
    2DOPE   H8S  182   3.875   3.214  10.836 -1.0713 -0.0119 -1.2672
    2DOPE   C29  183   3.958   3.040  10.729  0.1786 -0.0661 -0.2776
    2DOPE   H9R  184   3.958   2.989  10.827 -2.6486 -1.4120 -0.8801
    2DOPE  C210  185   3.992   2.981  10.613 -0.3205 -0.2958  0.1162
    2DOPE  H10R  186   4.024   2.876  10.614  0.2037 -0.1440  1.8360
    2DOPE  C211  187   3.990   3.052  10.480  0.5062  0.6749 -0.7175
    2DOPE  H11R  188   4.067   3.131  10.487  2.3659 -1.1266  0.3943
    2DOPE  H11S  189   3.897   3.110  10.464  0.8533  1.3557 -0.3084
    2DOPE  C212  190   4.025   2.942  10.373  0.6009 -0.6676 -0.2168
    2DOPE  H12R  191   3.967   2.975  10.284 -0.8021  3.4516  1.9737
    2DOPE  H12S  192   3.989   2.842  10.405 -0.1343 -0.2136  0.4085
    2DOPE  C213  193   4.177   2.932  10.334 -0.1993  0.0058 -0.1008
    2DOPE  H13R  194   4.235   2.903  10.424  1.9414  0.4602 -1.2774
    2DOPE  H13S  195   4.218   3.031  10.305  0.6629 -0.6700 -1.2595
    2DOPE  C214  196   4.222   2.841  10.223  0.6036 -0.0268  0.3441
    2DOPE  H14R  197   4.333   2.829  10.227  0.9190  1.7838 -1.5444
    2DOPE  H14S  198   4.204   2.891  10.126  2.3390  2.4434  1.1963
    2DOPE  C215  199   4.150   2.705  10.213 -0.0460  0.5612  0.2827
    2DOPE  H15R  200   4.039   2.712  10.218 -0.2636 -1.0167 -1.3346
    2DOPE  H15S  201   4.187   2.637  10.293 -2.2929 -2.6531 -1.1757
    2DOPE  C216  202   4.169   2.634  10.077  0.4769 -0.5881 -0.2328
    2DOPE  H16R  203   4.112   2.691  10.000  0.8239  0.4627  0.2788
    2DOPE  H16S  204   4.130   2.531  10.085 -0.9215  0.0458  1.5305
    2DOPE  C217  205   4.318   2.621  10.022 -0.9701  0.1574 -0.3899
    2DOPE  H17R  206   4.357   2.725  10.019  1.1273 -0.4224  2.3639
    2DOPE  H17S  207   4.328   2.583   9.918 -1.6377  0.7781 -0.6872
    2DOPE  C218  208   4.401   2.535  10.120  0.2581  0.0787  0.0783
    2DOPE  H18R  209   4.441   2.594  10.205 -0.2595  1.7624 -0.7868
    2DOPE  H18S  210   4.481   2.486  10.060  0.4908 -0.0035  0.4588
    2DOPE  H18T  211   4.331   2.457  10.157  0.2738  0.4072  0.8056
    2DOPE   C33  212   4.853   4.018  10.836  0.5389 -0.3738 -0.1104
    2DOPE   H3X  213   4.828   4.058  10.937  0.6061  1.0088 -0.6211
    2DOPE   H3Y  214   4.812   4.087  10.759  0.5414 -0.4428 -0.1734
    2DOPE   C34  215   5.006   4.032  10.813  0.0489 -0.1417 -0.4931
    2DOPE   H4X  216   5.042   4.137  10.822 -2.1324  0.4875  2.2881
    2DOPE   H4Y  217   5.070   3.977  10.885  0.9228  0.7993 -0.5208
    2DOPE   C35  218   5.043   3.964  10.683 -0.1178  0.3202 -0.1879
    2DOPE   H5X  219   5.016   3.857  10.697 -1.4001  0.9011  2.3288
    2DOPE   H5Y  220   5.151   3.972  10.658 -0.0870 -1.6095 -0.8004
    2DOPE   C36  221   4.972   4.014  10.555  0.1463 -0.7278 -0.9743
    2DOPE   H6X  222   4.984   4.125  10.556  0.5496 -0.7594 -1.7563
    2DOPE   H6Y  223   4.865   3.989  10.569  0.2649 -0.1263  1.4413
    2DOPE   C37  224   5.017   3.946  10.425 -0.6012  0.2363  0.6797
    2DOPE   H7X  225   5.128   3.945  10.436 -0.7088  2.3494  2.8238
    2DOPE   H7Y  226   4.976   3.843  10.429 -3.0474  1.0550 -1.1502
    2DOPE   C38  227   4.973   4.022  10.292 -0.6419  0.1652 -1.5520
    2DOPE   H8X  228   5.024   4.120  10.291 -0.0170 -0.0591  1.1903
    2DOPE   H8Y  229   4.868   4.040  10.322  0.3578  3.4247  0.5105
    2DOPE   C39  230   4.997   3.932  10.172 -0.3526  0.1467 -0.0115
    2DOPE   H9X  231   5.105   3.928  10.148 -0.2391  2.4992 -0.1231
    2DOPE  C310  232   4.912   3.902  10.073  0.1149  0.7971 -0.0332
    2DOPE  H10X  233   4.956   3.837   9.996  1.2091  1.6141 -0.1259
    2DOPE  C311  234   4.765   3.947  10.073 -0.0864  0.2031 -0.0853
    2DOPE  H11X  235   4.733   3.974  10.175  0.9099  2.4782 -0.2994
    2DOPE  H11Y  236   4.749   4.036  10.008  1.4787 -0.2878 -1.2137
    2DOPE  C312  237   4.672   3.837  10.019 -0.2042 -0.4767 -0.2211
    2DOPE  H12X  238   4.675   3.749  10.087  0.2957 -0.0360  0.3421
    2DOPE  H12Y  239   4.722   3.802   9.927  1.6333  1.0768  0.1128
    2DOPE  C313  240   4.529   3.899  10.000  0.3536  0.6815  0.1519
    2DOPE  H13X  241   4.493   3.939  10.098  0.7910  0.0484  0.5807
    2DOPE  H13Y  242   4.540   3.991   9.939  1.4053  0.6198  0.2353
    2DOPE  C314  243   4.433   3.809   9.926 -0.3000  0.8608 -0.0434
    2DOPE  H14X  244   4.427   3.709   9.973 -0.0175  0.5835 -0.5843
    2DOPE  H14Y  245   4.483   3.802   9.827  2.0422  0.3927  1.1023
    2DOPE  C315  246   4.291   3.862   9.906  0.2572 -0.2333  0.2859
    2DOPE  H15X  247   4.294   3.955   9.845 -1.1300 -1.4635 -1.8143
    2DOPE  H15Y  248   4.243   3.885  10.004  1.2757 -0.9730  0.9680
    2DOPE  C316  249   4.187   3.772   9.822  0.3655  0.9252  0.1179
    2DOPE  H16X  250   4.145   3.688   9.882 -3.5670  3.4214  1.2163
    2DOPE  H16Y  251   4.255   3.727   9.746  2.2559  0.7168  1.8327
    2DOPE  C317  252   4.069   3.845   9.759 -0.0666  0.3143  0.1462
    2DOPE  H17X  253   4.023   3.910   9.836  1.9075  2.1694 -0.1648
    2DOPE  H17Y  254   4.103   3.920   9.685 -0.4005 -0.8213 -1.2151
    2DOPE  C318  255   3.972   3.748   9.683 -0.2296 -0.4381 -0.0869
    2DOPE  H18X  256   3.923   3.674   9.750  0.1124  0.6765  1.4403
    2DOPE  H18Y  257   3.890   3.808   9.638 -2.8162 -1.0998  3.3670
    2DOPE  H18Z  258   4.026   3.687   9.607  0.1000 -0.7447  0.3851
    3DOPE     N  259   2.602   4.181  11.026  0.0727  0.0923 -0.1419
    3DOPE   HN1  260   2.636   4.111  11.096  0.5558 -0.4375 -0.8881
    3DOPE   HN2  261   2.580   4.134  10.936  1.5476 -1.5690  0.3089
    3DOPE   HN3  262   2.685   4.241  11.006 -0.5829  1.6797  1.6503
    3DOPE   C12  263   2.491   4.264  11.091  0.5509  0.0351 -0.3492
    3DOPE  H12A  264   2.398   4.204  11.076 -0.8103  1.5985  1.2620
    3DOPE  H12B  265   2.494   4.361  11.039  0.7858  0.4182  0.3602
    3DOPE   C11  266   2.516   4.298  11.242  0.2584 -0.4853  0.1407
    3DOPE  H11A  267   2.527   4.203  11.298  2.3301  0.7850  2.0815
    3DOPE  H11B  268   2.435   4.363  11.283  1.6402  0.4879  1.4498
    3DOPE     P  269   2.655   4.514  11.260 -0.5677 -0.2507 -0.0773
    3DOPE   O13  270   2.796   4.552  11.294  0.2086  0.9267 -0.7434
    3DOPE   O14  271   2.548   4.565  11.350  0.2345  0.9127  0.6244
    3DOPE   O11  272   2.626   4.563  11.110  0.5146  0.6655 -0.0840
    3DOPE   O12  273   2.648   4.359  11.245 -0.0864 -0.3699 -0.2336
    3DOPE    C1  274   2.734   4.544  11.025  0.4487 -0.4567 -0.0760
    3DOPE    HA  275   2.765   4.438  11.014 -0.4316 -0.6501 -0.8005
    3DOPE    HB  276   2.822   4.608  11.050  0.2948 -0.1928 -0.2059
    3DOPE    C2  277   2.691   4.592  10.878  0.1359  0.3711  0.2575
    3DOPE    HS  278   2.659   4.697  10.893  1.2775  1.0064 -1.4225
    3DOPE   O21  279   2.589   4.504  10.826 -0.4996  0.1454  0.3798
    3DOPE   C21  280   2.502   4.555  10.737 -0.5883 -0.4556  0.0598
    3DOPE   O22  281   2.507   4.674  10.700 -0.4701 -0.3970  0.2065
    3DOPE   C22  282   2.403   4.451  10.692 -0.5209  0.2184  0.7659
    3DOPE   H2R  283   2.299   4.490  10.697  0.3040  3.1043 -1.5299
    3DOPE   H2S  284   2.416   4.368  10.763  0.2536 -0.9438 -0.6878
    3DOPE    C3  285   2.821   4.598  10.788  0.2999  0.6059  0.2989
    3DOPE    HX  286   2.870   4.499  10.795 -1.6303 -0.3475  1.0808
    3DOPE    HY  287   2.879   4.676  10.841 -2.1129  1.5714  1.6923
    3DOPE   O31  288   2.800   4.644  10.654  0.4332 -0.6294 -0.2198
    3DOPE   C31  289   2.805   4.547  10.557 -0.2804  0.1508 -0.8540
    3DOPE   O32  290   2.802   4.427  10.582  0.2082 -0.0539  0.3396
    3DOPE   C32  291   2.809   4.603  10.424 -0.1070 -1.2834  0.2153
    3DOPE   H2X  292   2.711   4.650  10.401  1.1905  0.6844 -1.8683
    3DOPE   H2Y  293   2.886   4.683  10.419 -2.8911  1.5215 -0.9141
    3DOPE   C23  294   2.420   4.402  10.554  0.4482  0.9370 -1.3351
    3DOPE   H3R  295   2.373   4.303  10.537  0.2860  0.7658 -0.0365
    3DOPE   H3S  296   2.523   4.368  10.531 -0.4371 -1.3449 -2.2552
    3DOPE   C24  297   2.363   4.503  10.449  0.4129 -0.6604  0.1268
    3DOPE   H4R  298   2.430   4.591  10.453  1.8018 -1.6076 -0.8737
    3DOPE   H4S  299   2.256   4.517  10.475  1.0946 -0.1999  3.0102
    3DOPE   C25  300   2.349   4.455  10.302  0.1468  0.4225  0.0586
    3DOPE   H5R  301   2.446   4.424  10.258  1.8069  5.5062 -0.5255
    3DOPE   H5S  302   2.317   4.548  10.251 -0.4809  0.6443  0.8430
    3DOPE   C26  303   2.246   4.335  10.273  0.4382 -0.6791  0.0310
    3DOPE   H6R  304   2.267   4.254  10.346 -2.7672 -0.8464  0.9227
    3DOPE   H6S  305   2.282   4.295  10.176  1.5047  1.4172 -0.5113
    3DOPE   C27  306   2.104   4.386  10.267 -0.0242 -0.0953 -0.6980
    3DOPE   H7R  307   2.088   4.485  10.220 -0.1507 -0.3672 -1.2387
    3DOPE   H7S  308   2.077   4.407  10.373  0.3451 -2.5217 -0.0627
    3DOPE   C28  309   2.011   4.291  10.189 -0.3920 -1.0677 -0.6650
    3DOPE   H8R  310   2.049   4.291  10.084 -0.0606 -1.0911 -0.5476
    3DOPE   H8S  311   1.914   4.343  10.182  0.3612  0.8272  1.5848
    3DOPE   C29  312   1.997   4.156  10.247  0.1062  0.4407 -0.4496
    3DOPE   H9R  313   2.016   4.156  10.355  0.3948  1.5467 -0.4904
    3DOPE  C210  314   2.002   4.041  10.180  0.4083  0.3948 -0.2943
    3DOPE  H10R  315   1.981   3.955  10.245 -1.3072 -1.0146 -2.5435
    3DOPE  C211  316   1.998   4.016  10.034  0.3500  0.5178  0.5438
    3DOPE  H11R  317   2.014   4.114   9.985  1.3576 -0.3982 -1.0801
    3DOPE  H11S  318   1.893   3.990  10.007  1.1470 -3.4328  0.5727
    3DOPE  C212  319   2.109   3.920   9.985  0.8128 -0.0777  0.1566
    3DOPE  H12R  320   2.095   3.826  10.042  0.5910  0.0917  0.3841
    3DOPE  H12S  321   2.198   3.970  10.030  0.0577  0.3093  1.2797
    3DOPE  C213  322   2.128   3.904   9.831 -0.3736 -1.0395  0.7818
    3DOPE  H13R  323   2.041   3.851   9.785  0.1007 -0.8256 -0.3725
    3DOPE  H13S  324   2.224   3.849   9.820 -0.7440 -1.2715 -1.9979
    3DOPE  C214  325   2.155   4.035   9.760 -0.2786  0.2544  0.1489
    3DOPE  H14R  326   2.230   4.099   9.811  0.0390 -1.6462  2.2073
    3DOPE  H14S  327   2.056   4.085   9.747 -0.7925 -1.3372 -3.2178
    3DOPE  C215  328   2.218   4.010   9.623  0.1018 -0.1563  0.4473
    3DOPE  H15R  329   2.309   3.946   9.630 -0.4685 -1.0911 -0.4435
    3DOPE  H15S  330   2.254   4.106   9.580 -2.7423  1.4508  1.3708
    3DOPE  C216  331   2.125   3.958   9.517 -0.2799 -0.2743  0.2297
    3DOPE  H16R  332   2.050   4.039   9.512  0.2411  0.1504 -1.4407
    3DOPE  H16S  333   2.080   3.860   9.546  1.4481 -1.2503 -0.2099
    3DOPE  C217  334   2.189   3.952   9.379 -0.2123 -0.4099  0.2584
    3DOPE  H17R  335   2.214   3.845   9.361 -1.7289 -0.5384 -1.3831
    3DOPE  H17S  336   2.282   4.012   9.365 -0.5755 -0.4226 -3.1025
    3DOPE  C218  337   2.093   3.995   9.262 -0.1547 -0.2555 -0.3909
    3DOPE  H18R  338   1.990   3.961   9.287 -0.3625  0.1516 -0.6709
    3DOPE  H18S  339   2.127   3.950   9.166  0.7660 -2.1683  0.7943
    3DOPE  H18T  340   2.096   4.106   9.264  0.0229 -0.2771  1.1816
    3DOPE   C33  341   2.841   4.490  10.315  0.7929 -0.4049 -0.7410
    3DOPE   H3X  342   2.751   4.432  10.289  0.5658 -0.5661  0.3375
    3DOPE   H3Y  343   2.915   4.418  10.355  0.9127 -0.2702 -0.7178
    3DOPE   C34  344   2.895   4.554  10.192  0.7211 -0.1865 -0.3613
    3DOPE   H4X  345   2.991   4.608  10.205  1.0163 -0.5103 -1.1260
    3DOPE   H4Y  346   2.931   4.471  10.128  0.2665 -0.9208  0.3130
    3DOPE   C35  347   2.782   4.649  10.132  0.4530  0.4921  0.2495
    3DOPE   H5X  348   2.824   4.699  10.041 -1.2559  1.5289 -0.0010
    3DOPE   H5Y  349   2.723   4.718  10.195 -1.5045  0.1844 -1.1782
    3DOPE   C36  350   2.679   4.556  10.069 -0.0415  0.4871  0.1299
    3DOPE   H6X  351   2.632   4.494  10.148 -0.6274 -1.8099 -1.9003
    3DOPE   H6Y  352   2.722   4.477  10.003  0.6646  0.9879 -0.0252
    3DOPE   C37  353   2.575   4.632   9.988  0.1356 -0.3806 -0.4343
    3DOPE   H7X  354   2.520   4.706  10.049 -0.1936 -0.9484 -0.0332
    3DOPE   H7Y  355   2.629   4.704   9.922  2.8658  0.5195  2.4806
    3DOPE   C38  356   2.479   4.543   9.902 -0.4538  0.0015 -1.1343
    3DOPE   H8X  357   2.415   4.482   9.968 -2.5785  2.4021 -0.8055
    3DOPE   H8Y  358   2.538   4.468   9.844 -0.8970  0.8890 -2.8164
    3DOPE   C39  359   2.398   4.613   9.794  0.0498 -0.2354 -0.9985
    3DOPE   H9X  360   2.457   4.678   9.727 -1.6643  0.0854 -2.2660
    3DOPE  C310  361   2.259   4.622   9.777  0.3982  0.4830  0.5254
    3DOPE  H10X  362   2.224   4.698   9.706  1.1326 -2.3391 -3.1545
    3DOPE  C311  363   2.163   4.559   9.874  0.7801 -0.6105 -0.5547
    3DOPE  H11X  364   2.204   4.490   9.951 -0.8467  0.7642  1.6648
    3DOPE  H11Y  365   2.129   4.649   9.931  2.2688  0.7951 -1.8098
    3DOPE  C312  366   2.038   4.507   9.802 -1.1487 -0.0605 -0.1064
    3DOPE  H12X  367   1.975   4.590   9.762  0.4711  1.8534  1.1314
    3DOPE  H12Y  368   1.983   4.444   9.876 -2.3549  1.2121  0.1201
    3DOPE  C313  369   2.074   4.409   9.688  0.1865  0.0858  0.3618
    3DOPE  H13X  370   2.156   4.447   9.624 -0.1936 -0.0563 -0.2146
    3DOPE  H13Y  371   2.110   4.313   9.731 -1.2417  0.3115  2.2018
    3DOPE  C314  372   1.957   4.391   9.575 -0.1773 -0.3318 -1.1015
    3DOPE  H14X  373   1.912   4.492   9.575 -0.6090 -0.5216 -1.5888
    3DOPE  H14Y  374   1.877   4.321   9.607 -0.8822 -1.3862 -4.6860
    3DOPE  C315  375   2.020   4.352   9.443  0.0192  0.5152 -0.8972
    3DOPE  H15X  376   2.052   4.246   9.449 -1.0674  0.2133 -0.2653
    3DOPE  H15Y  377   2.106   4.417   9.416 -0.1244  0.5114 -1.3636
    3DOPE  C316  378   1.916   4.348   9.330  0.5190 -0.1103 -0.4686
    3DOPE  H16X  379   1.960   4.336   9.229 -0.7240  0.8158 -1.1460
    3DOPE  H16Y  380   1.861   4.445   9.335 -0.9938 -0.9039 -1.0525
    3DOPE  C317  381   1.802   4.243   9.345  0.5745  0.4210 -0.1756
    3DOPE  H17X  382   1.856   4.166   9.403  0.6881 -0.4354 -1.3728
    3DOPE  H17Y  383   1.727   4.279   9.419  1.5812  1.9285  0.1546
    3DOPE  C318  384   1.752   4.175   9.217 -0.2699 -0.1705 -0.0920
    3DOPE  H18X  385   1.678   4.097   9.244  0.4947 -1.8881 -2.5737
    3DOPE  H18Y  386   1.715   4.253   9.147 -0.8059 -0.4856 -0.1628
    3DOPE  H18Z  387   1.832   4.118   9.164  1.8733 -0.0766  2.8020
    4DOPE     N  388   4.813   2.582  11.356 -0.0339  0.1292 -0.0387
    4DOPE   HN1  389   4.786   2.614  11.451  1.4672 -2.8554  1.5276
    4DOPE   HN2  390   4.779   2.484  11.346  0.9388 -0.2391  0.1823
    4DOPE   HN3  391   4.917   2.579  11.352 -0.0563 -0.7194 -0.0846
    4DOPE   C12  392   4.746   2.656  11.247 -0.1578 -0.0260  0.1572
    4DOPE  H12A  393   4.804   2.645  11.153 -0.6422  2.0102 -0.4375
    4DOPE  H12B  394   4.740   2.763  11.277 -0.5245 -0.1803  0.6439
    4DOPE   C11  395   4.598   2.616  11.224  0.1447  0.2828  0.4089
    4DOPE  H11A  396   4.551   2.669  11.138 -1.6757  1.8261  2.2448
    4DOPE  H11B  397   4.545   2.648  11.317 -2.3780 -0.8679 -0.5323
    4DOPE     P  398   4.452   2.404  11.221  0.2021  0.0074 -0.2208
    4DOPE   O13  399   4.354   2.495  11.286 -0.1192  0.3440 -0.2102
    4DOPE   O14  400   4.469   2.270  11.277 -0.5266 -0.1861 -0.4493
    4DOPE   O11  401   4.400   2.382  11.076  0.3593  0.1785 -0.2056
    4DOPE   O12  402   4.591   2.473  11.200 -0.4641  0.2895  0.5649
    4DOPE    C1  403   4.482   2.310  10.985 -0.9969 -0.9353 -0.2392
    4DOPE    HA  404   4.461   2.201  10.980  0.5101 -1.1858 -2.3910
    4DOPE    HB  405   4.589   2.316  11.016 -0.5491 -0.2376 -1.8488
    4DOPE    C2  406   4.462   2.357  10.842 -0.6002 -0.6514 -0.5621
    4DOPE    HS  407   4.535   2.300  10.780 -0.7422 -1.7599  0.2813
    4DOPE   O21  408   4.481   2.502  10.838 -0.0300  0.2739 -0.3128
    4DOPE   C21  409   4.612   2.533  10.848  0.1586  0.1169  0.2117
    4DOPE   O22  410   4.707   2.463  10.870  0.0577  0.1467  0.2100
    4DOPE   C22  411   4.627   2.689  10.849  0.0431 -0.0457  0.8416
    4DOPE   H2R  412   4.673   2.715  10.947  2.1256 -1.1143  0.2076
    4DOPE   H2S  413   4.521   2.722  10.845  0.1901  0.3121 -0.4421
    4DOPE    C3  414   4.316   2.328  10.790 -0.0860  0.6159  0.5270
    4DOPE    HX  415   4.255   2.408  10.838 -0.7176  0.3444  0.1884
    4DOPE    HY  416   4.294   2.225  10.822  0.5865  0.3568  0.1774
    4DOPE   O31  417   4.300   2.342  10.643  0.5680  0.0885 -0.3808
    4DOPE   C31  418   4.174   2.320  10.605  0.0595  0.5841 -0.1731
    4DOPE   O32  419   4.080   2.299  10.673  0.1723 -0.0614 -0.3442
    4DOPE   C32  420   4.159   2.329  10.449 -0.1716  0.0111 -1.3955
    4DOPE   H2X  421   4.071   2.382  10.407  0.5666  2.4142 -0.1101
    4DOPE   H2Y  422   4.240   2.397  10.416 -1.6648  2.3190 -0.5735
    4DOPE   C23  423   4.720   2.741  10.739  1.0590 -0.9035  0.3245
    4DOPE   H3R  424   4.802   2.668  10.722  1.1338 -0.9432  0.8595
    4DOPE   H3S  425   4.760   2.841  10.763  0.2808 -0.4672 -0.1300
    4DOPE   C24  426   4.629   2.768  10.617  0.6269 -0.1367  0.6898
    4DOPE   H4R  427   4.534   2.826  10.626  1.6466  1.8887 -0.8573
    4DOPE   H4S  428   4.597   2.673  10.568 -1.4729  0.8403  0.0395
    4DOPE   C25  429   4.716   2.838  10.506  1.1142 -0.0280  0.1861
    4DOPE   H5R  430   4.810   2.784  10.482  0.6207 -0.6680 -0.3650
    4DOPE   H5S  431   4.745   2.936  10.549  0.1892 -0.6768  2.4351
    4DOPE   C26  432   4.631   2.863  10.377  0.3201  0.1321 -0.0627
    4DOPE   H6R  433   4.538   2.918  10.402 -0.8171 -1.9014  0.4188
    4DOPE   H6S  434   4.592   2.766  10.339 -0.2314  0.0557  0.6646
    4DOPE   C27  435   4.692   2.933  10.255 -0.5837  0.3283 -0.6213
    4DOPE   H7R  436   4.729   3.033  10.286 -3.7796  1.5734 -0.4036
    4DOPE   H7S  437   4.607   2.955  10.187 -1.5953  0.0302  0.4967
    4DOPE   C28  438   4.804   2.852  10.187 -0.2922  0.1211 -0.0276
    4DOPE   H8R  439   4.746   2.761  10.161 -1.7544  0.1702  2.6695
    4DOPE   H8S  440   4.889   2.828  10.255 -0.0433  2.8830  0.7608
    4DOPE   C29  441   4.842   2.919  10.057 -0.6949 -0.6625  0.1564
    4DOPE   H9R  442   4.922   2.992  10.072 -1.5900  0.3197  0.2301
    4DOPE  C210  443   4.763   2.918   9.948  0.0887  0.1320  0.6244
    4DOPE  H10R  444   4.808   2.972   9.863  1.5887 -0.4286  1.0319
    4DOPE  C211  445   4.634   2.844   9.931  0.3562  0.3661 -0.5169
    4DOPE  H11R  446   4.589   2.817  10.029  0.3786 -0.9029 -0.8449
    4DOPE  H11S  447   4.659   2.751   9.875  1.3065 -0.3426  1.0034
    4DOPE  C212  448   4.528   2.906   9.841  0.1408  0.0971 -0.5134
    4DOPE  H12R  449   4.446   2.832   9.828  0.8718 -0.6922 -0.7202
    4DOPE  H12S  450   4.579   2.920   9.743  1.2391  0.5641  0.1067
    4DOPE  C213  451   4.468   3.040   9.888  0.0676 -0.1223  0.5300
    4DOPE  H13R  452   4.551   3.106   9.922 -0.5994  0.5777  0.8374
    4DOPE  H13S  453   4.407   3.022   9.979 -0.6554 -1.0533 -0.1194
    4DOPE  C214  454   4.392   3.128   9.789 -0.1326  0.0185 -1.1230
    4DOPE  H14R  455   4.294   3.079   9.774  0.2464 -1.8586  1.7373
    4DOPE  H14S  456   4.446   3.131   9.692  0.1857 -1.1610 -1.0016
    4DOPE  C215  457   4.365   3.269   9.846 -0.0898  0.3185  0.3488
    4DOPE  H15R  458   4.465   3.303   9.879 -0.3012 -0.1016  1.4421
    4DOPE  H15S  459   4.295   3.244   9.929 -1.2153 -0.0479 -0.6768
    4DOPE  C216  460   4.296   3.364   9.753  0.0849  0.2404  0.4139
    4DOPE  H16R  461   4.360   3.350   9.662  2.3078  1.1323  1.7512
    4DOPE  H16S  462   4.307   3.469   9.788  2.4667  0.2726 -0.1934
    4DOPE  C217  463   4.152   3.330   9.717  0.7280 -0.0984  0.1124
    4DOPE  H17R  464   4.090   3.408   9.766  0.1780 -1.6054  1.9869
    4DOPE  H17S  465   4.123   3.232   9.762 -1.7316  0.2541 -0.5757
    4DOPE  C218  466   4.130   3.332   9.564  0.3324  0.0953 -0.0213
    4DOPE  H18R  467   4.024   3.309   9.541 -0.3483 -0.1129  2.9989
    4DOPE  H18S  468   4.195   3.253   9.519 -0.2206 -0.8512  0.8052
    4DOPE  H18T  469   4.164   3.429   9.521 -0.1843 -0.2763 -1.3300
    4DOPE   C33  470   4.154   2.191  10.387  0.2471  0.8847  0.2785
    4DOPE   H3X  471   4.086   2.120  10.440  0.8115 -0.0169 -0.1792
    4DOPE   H3Y  472   4.251   2.138  10.393 -0.6527 -0.7962  0.8318
    4DOPE   C34  473   4.093   2.191  10.243  0.5440 -0.0542 -0.5873
    4DOPE   H4X  474   3.995   2.241  10.247 -0.9167 -2.7831  0.8987
    4DOPE   H4Y  475   4.152   2.257  10.176 -0.5614  1.5277 -0.0507
    4DOPE   C35  476   4.068   2.051  10.189 -0.3688 -0.1043 -0.4387
    4DOPE   H5X  477   3.983   1.999  10.239  0.4675 -1.9297 -0.8636
    4DOPE   H5Y  478   4.160   1.990  10.199 -0.4205 -0.1111  0.0466
    4DOPE   C36  479   4.031   2.044  10.038  0.2301  0.3380 -0.5471
    4DOPE   H6X  480   4.112   2.092   9.979 -0.4023  0.3668 -1.3993
    4DOPE   H6Y  481   3.943   2.111  10.029  0.4217  0.8723  1.1852
    4DOPE   C37  482   3.996   1.896   9.992  0.2607  0.3907  0.0999
    4DOPE   H7X  483   4.090   1.837   9.995  0.8627  1.3543  1.3613
    4DOPE   H7Y  484   3.929   1.861  10.073  0.7419 -1.9353 -0.4344
    4DOPE   C38  485   3.930   1.883   9.857  0.2397 -0.5657  0.1478
    4DOPE   H8X  486   3.833   1.937   9.869  0.7638  0.5873 -0.6082
    4DOPE   H8Y  487   3.889   1.788   9.818 -0.5512  0.2772 -1.1577
    4DOPE   C39  488   4.011   1.935   9.740  0.2561 -1.1550 -0.1513
    4DOPE   H9X  489   4.103   1.878   9.720  0.9942 -0.4750  1.2001
    4DOPE  C310  490   3.996   2.054   9.671 -0.9787  0.5543 -0.2488
    4DOPE  H10X  491   4.053   2.073   9.579 -0.6797  2.9594  0.3492
    4DOPE  C311  492   3.881   2.143   9.687  0.3502 -0.0939 -0.3001
    4DOPE  H11X  493   3.797   2.112   9.621  0.0198  2.2166 -1.0439
    4DOPE  H11Y  494   3.846   2.146   9.792  0.5121  0.8909 -0.2666
    4DOPE  C312  495   3.916   2.289   9.653  0.6929 -0.1154  1.4042
    4DOPE  H12X  496   3.825   2.351   9.670  0.2967 -0.3856  0.3550
    4DOPE  H12Y  497   3.938   2.296   9.544  0.1003  0.9794  1.3341
    4DOPE  C313  498   4.032   2.347   9.742  0.5645  0.1845  0.3663
    4DOPE  H13X  499   3.992   2.342   9.845 -0.8116 -1.0527 -0.1974
    4DOPE  H13Y  500   4.116   2.274   9.745 -0.4786 -1.0204  2.1146
    4DOPE  C314  501   4.077   2.492   9.710 -0.2177  0.4972 -0.6490
    4DOPE  H14X  502   4.123   2.531   9.803 -0.7646 -0.5811  0.0879
    4DOPE  H14Y  503   3.982   2.545   9.688 -0.2898  1.3301  1.4906
    4DOPE  C315  504   4.179   2.507   9.597 -0.4702 -0.8255 -0.2802
    4DOPE  H15X  505   4.117   2.494   9.506 -0.6848  2.0056 -0.6320
    4DOPE  H15Y  506   4.252   2.423   9.597  1.3278  0.6758  0.4068
    4DOPE  C316  507   4.263   2.640   9.571  0.6643 -0.5743 -0.1737
    4DOPE  H16X  508   4.319   2.620   9.477  1.0561 -0.8073  0.1086
    4DOPE  H16Y  509   4.328   2.659   9.659 -0.8956  1.8092  0.5674
    4DOPE  C317  510   4.185   2.768   9.562  0.5649  0.1578 -0.2947
    4DOPE  H17X  511   4.119   2.775   9.473  0.9596 -0.1026 -0.6119
    4DOPE  H17Y  512   4.116   2.784   9.647  0.4385  2.7580 -0.7954
    4DOPE  C318  513   4.288   2.888   9.553  0.6586  0.4141  0.0038
    4DOPE  H18X  514   4.366   2.878   9.632  1.0965  1.3810 -0.2912
    4DOPE  H18Y  515   4.345   2.897   9.458  0.2479 -0.2762 -0.3122
    4DOPE  H18Z  516   4.239   2.986   9.571  1.2912  0.6615  0.4348
    5DOPE     N  517   1.837   3.557  11.093  0.3058 -0.3452 -0.2348
    5DOPE   HN1  518   1.856   3.500  11.178 -0.4057 -0.5437 -0.2041
    5DOPE   HN2  519   1.878   3.652  11.098 -0.0027 -0.2011 -0.4440
    5DOPE   HN3  520   1.735   3.577  11.087  0.9990  4.1451 -0.7450
    5DOPE   C12  521   1.895   3.493  10.970  0.5941  0.4029  0.0356
    5DOPE  H12A  522   1.804   3.466  10.913 -0.2646 -0.9400  1.9367
    5DOPE  H12B  523   1.938   3.398  11.008  0.0643  0.2143  0.1761
    5DOPE   C11  524   1.979   3.590  10.895 -0.3178  0.7040  0.4963
    5DOPE  H11A  525   1.922   3.681  10.866  1.7140  2.0332  0.4265
    5DOPE  H11B  526   2.018   3.554  10.797  3.7200 -1.1180  2.5027
    5DOPE     P  527   2.109   3.771  11.018  0.0821  0.3651 -0.2201
    5DOPE   O13  528   2.219   3.783  11.114 -0.1763 -0.0053  0.1781
    5DOPE   O14  529   1.973   3.805  11.077  0.0691  0.7157 -0.4484
    5DOPE   O11  530   2.145   3.845  10.879  0.0005  0.6208 -0.3370
    5DOPE   O12  531   2.097   3.621  10.976 -0.5767  0.3732 -0.2625
    5DOPE    C1  532   2.086   3.963  10.827  0.5212 -0.0374  0.3752
    5DOPE    HA  533   2.153   4.047  10.853  2.7417 -1.9917  1.2692
    5DOPE    HB  534   1.985   3.987  10.867  0.7066  1.6477 -0.0832
    5DOPE    C2  535   2.077   3.965  10.672 -0.3601  0.5607 -0.3022
    5DOPE    HS  536   2.029   4.060  10.640  2.1165  1.1303 -2.7559
    5DOPE   O21  537   2.017   3.843  10.626  0.4666  0.0512 -0.3839
    5DOPE   C21  538   1.886   3.853  10.581 -0.0299  0.0041  0.5009
    5DOPE   O22  539   1.822   3.955  10.586  0.4882  0.4418  0.0457
    5DOPE   C22  540   1.832   3.717  10.526 -0.1037  0.6214 -0.1205
    5DOPE   H2R  541   1.818   3.649  10.613 -0.3858  0.8967  0.0529
    5DOPE   H2S  542   1.908   3.663  10.467 -0.8496  0.7587 -1.2456
    5DOPE    C3  543   2.221   3.962  10.618 -0.2402  0.2262 -0.5952
    5DOPE    HX  544   2.269   3.874  10.665 -1.8362  0.8244  2.4016
    5DOPE    HY  545   2.268   4.050  10.669 -0.9195  0.5014 -0.4331
    5DOPE   O31  546   2.237   3.961  10.477  0.4972 -0.3320  0.1799
    5DOPE   C31  547   2.360   3.984  10.436 -0.3518  0.2423 -0.7498
    5DOPE   O32  548   2.454   4.020  10.509 -0.0592 -0.3618 -0.0415
    5DOPE   C32  549   2.380   3.964  10.290  0.0881 -0.5685  0.1218
    5DOPE   H2X  550   2.391   3.856  10.267  0.2582 -0.5403  0.0758
    5DOPE   H2Y  551   2.283   3.995  10.245 -0.7025 -1.0479  1.4186
    5DOPE   C23  552   1.699   3.726  10.447  0.5633  1.0032 -0.7005
    5DOPE   H3R  553   1.642   3.817  10.475  1.4653  1.4134 -0.1495
    5DOPE   H3S  554   1.633   3.641  10.474  1.4930 -0.2502 -2.1764
    5DOPE   C24  555   1.722   3.747  10.305  0.7414 -0.2502  0.0287
    5DOPE   H4R  556   1.782   3.666  10.258 -0.7379 -1.1550 -0.3520
    5DOPE   H4S  557   1.765   3.849  10.290 -0.8255  0.5459  0.6674
    5DOPE   C25  558   1.589   3.732  10.219 -0.7889 -0.6781  0.0168
    5DOPE   H5R  559   1.528   3.823  10.234  1.9545  1.2734  0.0229
    5DOPE   H5S  560   1.535   3.652  10.274  0.1045 -0.5260  1.1588
    5DOPE   C26  561   1.606   3.691  10.074  0.0534 -0.0770 -0.3977
    5DOPE   H6R  562   1.501   3.691  10.037  0.0481 -0.6256 -0.3922
    5DOPE   H6S  563   1.639   3.586  10.058 -0.7570 -0.7730  2.0985
    5DOPE   C27  564   1.685   3.792   9.987  0.0707 -0.0484 -0.3124
    5DOPE   H7R  565   1.789   3.761  10.013 -0.8946 -2.8510  0.6051
    5DOPE   H7S  566   1.680   3.897  10.022 -1.7532 -0.6979  1.5538
    5DOPE   C28  567   1.669   3.780   9.830  0.0607  0.2308 -0.5655
    5DOPE   H8R  568   1.698   3.880   9.793 -0.1780  0.9273  1.0210
    5DOPE   H8S  569   1.560   3.763   9.817  0.1827  1.4315 -3.9563
    5DOPE   C29  570   1.747   3.664   9.767  0.7029 -0.0446 -0.1477
    5DOPE   H9R  571   1.791   3.593   9.838 -2.2206 -0.9415  0.8862
    5DOPE  C210  572   1.787   3.649   9.643 -0.7939  0.1569 -0.6411
    5DOPE  H10R  573   1.854   3.566   9.616 -2.5829 -1.5725  0.0133
    5DOPE  C211  574   1.765   3.754   9.547 -0.4366 -0.1011  0.4656
    5DOPE  H11R  575   1.801   3.854   9.581 -0.7924  0.2723 -0.2310
    5DOPE  H11S  576   1.658   3.769   9.520 -0.6516  1.3163  1.9283
    5DOPE  C212  577   1.843   3.746   9.407 -0.3120  0.2280  0.0751
    5DOPE  H12R  578   1.949   3.717   9.428 -0.1821  0.1884 -0.6286
    5DOPE  H12S  579   1.842   3.846   9.359  1.0819 -1.2655 -3.3891
    5DOPE  C213  580   1.784   3.653   9.305 -0.0196  0.0080  0.1248
    5DOPE  H13R  581   1.694   3.700   9.261 -1.2419 -0.7365  1.7118
    5DOPE  H13S  582   1.754   3.556   9.350 -1.1990  0.8363  1.2282
    5DOPE  C214  583   1.873   3.629   9.183 -0.8735 -0.9457  0.1906
    5DOPE  H14R  584   1.969   3.588   9.221 -0.4427 -2.0079 -1.9007
    5DOPE  H14S  585   1.882   3.727   9.131 -1.0127  0.0907  2.0122
    5DOPE  C215  586   1.811   3.525   9.088 -0.5778 -0.3433  0.3224
    5DOPE  H15R  587   1.810   3.575   8.988  1.6516 -1.2195 -0.2091
    5DOPE  H15S  588   1.707   3.501   9.114 -0.2138 -1.9817  0.3434
    5DOPE  C216  589   1.883   3.387   9.069  0.6574  0.1961  0.2996
    5DOPE  H16R  590   1.990   3.410   9.045  0.4974  0.1462 -0.4863
    5DOPE  H16S  591   1.829   3.340   8.985 -1.2604 -0.4052  1.8111
    5DOPE  C217  592   1.885   3.301   9.198 -0.3505 -0.3944  1.2129
    5DOPE  H17R  593   1.807   3.350   9.261 -0.9727 -0.4777  0.5206
    5DOPE  H17S  594   1.986   3.311   9.243  0.1844  1.2727 -0.2725
    5DOPE  C218  595   1.846   3.154   9.174  0.1402  0.2455  0.2621
    5DOPE  H18R  596   1.923   3.108   9.107  1.4382  0.9203  1.2396
    5DOPE  H18S  597   1.747   3.158   9.124  0.3604 -2.8391 -0.6261
    5DOPE  H18T  598   1.840   3.095   9.268 -3.4561 -1.8279 -1.0850
    5DOPE   C33  599   2.488   4.058  10.239 -1.0716 -0.3369 -0.4389
    5DOPE   H3X  600   2.591   4.030  10.270 -0.7720 -0.4537 -1.4757
    5DOPE   H3Y  601   2.464   4.164  10.261 -1.0086 -0.8795  2.7365
    5DOPE   C34  602   2.495   4.044  10.083  0.5731 -0.1837  0.2128
    5DOPE   H4X  603   2.511   3.939  10.052  2.2529  0.3487 -0.9233
    5DOPE   H4Y  604   2.407   4.097  10.041 -0.4497  0.0041  2.4673
    5DOPE   C35  605   2.608   4.128  10.022  0.3456 -0.2902  0.4483
    5DOPE   H5X  606   2.700   4.066  10.031  2.2212  1.7430 -2.8696
    5DOPE   H5Y  607   2.628   4.211  10.093  2.6105 -0.1498 -0.2859
    5DOPE   C36  608   2.599   4.168   9.871 -0.0099  0.3152 -0.4575
    5DOPE   H6X  609   2.698   4.205   9.839  0.3276 -0.1177  0.0554
    5DOPE   H6Y  610   2.530   4.252   9.848  0.9904  0.6983 -2.2084
    5DOPE   C37  611   2.578   4.049   9.773  0.3572 -0.7853 -0.3626
    5DOPE   H7X  612   2.663   3.978   9.782  1.1485  0.0751 -0.8137
    5DOPE   H7Y  613   2.482   4.003   9.805 -1.5937  0.7704 -3.4818
    5DOPE   C38  614   2.564   4.095   9.626  0.5929  0.0749 -0.0408
    5DOPE   H8X  615   2.480   4.167   9.623 -1.9457 -2.6911  0.5552
    5DOPE   H8Y  616   2.531   4.002   9.575  2.5649 -2.2953  2.6858
    5DOPE   C39  617   2.682   4.163   9.562  0.1781 -0.3723 -0.3080
    5DOPE   H9X  618   2.742   4.215   9.638 -0.6876  2.2414 -1.2857
    5DOPE  C310  619   2.712   4.155   9.434  0.1998  0.4001 -0.9738
    5DOPE  H10X  620   2.805   4.197   9.394  1.4026 -0.1765  1.0910
    5DOPE  C311  621   2.638   4.085   9.324 -0.1184  0.3533 -0.6108
    5DOPE  H11X  622   2.534   4.066   9.361  0.7374 -2.8076  0.4547
    5DOPE  H11Y  623   2.631   4.148   9.233 -0.7423  1.0287 -0.1141
    5DOPE  C312  624   2.685   3.938   9.304 -0.3407 -0.0078  0.4633
    5DOPE  H12X  625   2.626   3.903   9.217  0.4594 -0.8470  0.2361
    5DOPE  H12Y  626   2.654   3.880   9.393  1.7216  0.1366  1.3182
    5DOPE  C313  627   2.830   3.911   9.273 -0.0583 -0.3801  0.5001
    5DOPE  H13X  628   2.892   4.003   9.268 -0.6939  0.0016 -0.6383
    5DOPE  H13Y  629   2.867   3.853   9.360 -0.6175 -0.2765  0.8127
    5DOPE  C314  630   2.862   3.830   9.143  0.6254 -0.3667 -0.0626
    5DOPE  H14X  631   2.822   3.883   9.054 -0.1982 -0.9757 -0.0594
    5DOPE  H14Y  632   2.804   3.735   9.144  0.0899 -0.0447  0.9436
    5DOPE  C315  633   3.011   3.796   9.135  0.0676 -0.5198  0.1906
    5DOPE  H15X  634   3.069   3.867   9.198  1.9694 -1.6694 -0.1892
    5DOPE  H15Y  635   3.062   3.799   9.036 -0.1114  1.3853  0.1083
    5DOPE  C316  636   3.035   3.659   9.191  0.0583  0.3607  1.0186
    5DOPE  H16X  637   2.983   3.584   9.128  0.0079  0.4245  0.9847
    5DOPE  H16Y  638   2.993   3.644   9.293 -0.4235  0.3560  0.8207
    5DOPE  C317  639   3.189   3.623   9.196  0.6426  0.4554 -0.0559
    5DOPE  H17X  640   3.198   3.513   9.209  1.4312  0.3784 -1.0984
    5DOPE  H17Y  641   3.224   3.650   9.094  1.9002  0.5379  0.3741
    5DOPE  C318  642   3.266   3.695   9.301  0.1361 -0.2928 -0.6070
    5DOPE  H18X  643   3.257   3.805   9.292  0.6886 -0.1758  0.0904
    5DOPE  H18Y  644   3.210   3.673   9.395 -1.6593 -2.6983 -2.1261
    5DOPE  H18Z  645   3.375   3.672   9.301  0.6457  1.7025  1.3226
    6DOPE     N  646   1.854   4.913  11.168 -0.4363  0.1213 -0.1769
    6DOPE   HN1  647   1.938   4.922  11.230 -0.4326 -0.4269 -0.0929
    6DOPE   HN2  648   1.853   5.003  11.118  1.6702 -0.5380 -1.5600
    6DOPE   HN3  649   1.767   4.915  11.225  0.3562 -0.3753  1.0996
    6DOPE   C12  650   1.885   4.804  11.059  0.6640 -0.5633  0.3503
    6DOPE  H12A  651   1.990   4.821  11.027  1.1500 -2.4570  0.8553
    6DOPE  H12B  652   1.818   4.827  10.974  0.9209  0.0832  0.3145
    6DOPE   C11  653   1.895   4.661  11.114 -0.1207  1.0398 -0.7068
    6DOPE  H11A  654   1.992   4.667  11.168 -0.4487 -1.2509  0.2360
    6DOPE  H11B  655   1.917   4.587  11.034  1.8131 -0.5283  1.1546
    6DOPE     P  656   1.645   4.555  11.139 -0.2618 -0.0565 -0.1382
    6DOPE   O13  657   1.543   4.568  11.245  0.3589  0.0404  0.1485
    6DOPE   O14  658   1.672   4.418  11.085  0.2558  0.2236  0.5363
    6DOPE   O11  659   1.611   4.646  11.005 -0.0978 -0.3790 -0.0445
    6DOPE   O12  660   1.774   4.621  11.188  0.1715 -0.1905 -0.3611
    6DOPE    C1  661   1.524   4.758  11.035 -0.6113 -0.2993 -0.1632
    6DOPE    HA  662   1.577   4.837  11.092 -1.6769 -1.9743  3.4433
    6DOPE    HB  663   1.433   4.728  11.091 -0.4111  0.3299  0.5235
    6DOPE    C2  664   1.466   4.830  10.908 -0.2720 -0.0907 -0.3923
    6DOPE    HS  665   1.381   4.897  10.931  0.3404  1.0938 -1.4172
    6DOPE   O21  666   1.418   4.740  10.807  0.3095  0.3385  0.0474
    6DOPE   C21  667   1.330   4.645  10.844 -0.0942  0.7964 -0.3313
    6DOPE   O22  668   1.274   4.652  10.953 -0.8678  0.3080 -0.1033
    6DOPE   C22  669   1.301   4.540  10.735 -0.0060 -1.1972  0.7970
    6DOPE   H2R  670   1.374   4.459  10.753 -1.1077 -2.3363  0.2907
    6DOPE   H2S  671   1.316   4.597  10.641  0.4018 -1.5710  0.6356
    6DOPE    C3  672   1.564   4.927  10.837 -0.3947  0.1442 -0.7882
    6DOPE    HX  673   1.655   4.867  10.816 -0.4498 -0.4448  0.5259
    6DOPE    HY  674   1.592   5.006  10.910 -0.0271 -0.3628 -0.3732
    6DOPE   O31  675   1.504   4.986  10.719  0.1195  0.4165  0.7013
    6DOPE   C31  676   1.424   5.087  10.741 -0.1564 -0.1233  0.3530
    6DOPE   O32  677   1.403   5.147  10.847 -0.2344 -0.5056  0.0245
    6DOPE   C32  678   1.360   5.117  10.597  0.7223 -0.2668 -0.1081
    6DOPE   H2X  679   1.453   5.142  10.541  1.2614  1.2904  1.3843
    6DOPE   H2Y  680   1.316   5.026  10.554 -0.9693  0.7125 -0.5304
    6DOPE   C23  681   1.158   4.484  10.745  0.5425 -0.3154 -0.4727
    6DOPE   H3R  682   1.081   4.559  10.718 -0.7052 -0.4537  2.3289
    6DOPE   H3S  683   1.124   4.462  10.849 -0.1401  0.9199 -0.4199
    6DOPE   C24  684   1.135   4.376  10.647 -0.0995  0.0183  0.1196
    6DOPE   H4R  685   1.135   4.421  10.546  0.7274  1.5707  0.7747
    6DOPE   H4S  686   1.038   4.323  10.654  0.6780 -1.7679 -1.5880
    6DOPE   C25  687   1.236   4.257  10.647  0.1086 -0.1257 -0.2147
    6DOPE   H5R  688   1.257   4.233  10.754  0.2070  3.6393  0.7435
    6DOPE   H5S  689   1.327   4.294  10.595  0.3135 -0.6546 -0.2405
    6DOPE   C26  690   1.188   4.129  10.576  0.4800 -0.0049  0.4429
    6DOPE   H6R  691   1.113   4.092  10.649 -0.9162 -0.3076 -1.1140
    6DOPE   H6S  692   1.271   4.056  10.573 -0.3705 -0.9812  0.3506
    6DOPE   C27  693   1.127   4.152  10.432  0.4974  0.3544  0.1293
    6DOPE   H7R  694   1.045   4.227  10.433 -0.1312 -0.2598 -1.6666
    6DOPE   H7S  695   1.088   4.055  10.394  0.4009  0.4663 -0.0588
    6DOPE   C28  696   1.231   4.210  10.336 -0.0495  0.0903  0.2221
    6DOPE   H8R  697   1.276   4.304  10.375  1.2167 -0.2872 -0.2745
    6DOPE   H8S  698   1.174   4.245  10.247  1.4607  2.7265  0.2037
    6DOPE   C29  699   1.328   4.106  10.296 -0.2346 -0.3722 -0.1342
    6DOPE   H9R  700   1.289   4.004  10.284  0.9695 -0.8167 -0.5001
    6DOPE  C210  701   1.464   4.122  10.306 -0.0297  0.3900  0.4599
    6DOPE  H10R  702   1.525   4.033  10.285  1.2521  0.6106  2.9176
    6DOPE  C211  703   1.550   4.247  10.331  0.9299  0.2954 -1.0346
    6DOPE  H11R  704   1.592   4.226  10.431 -0.4976 -1.5217 -0.7706
    6DOPE  H11S  705   1.479   4.329  10.355 -0.9298 -1.8751  1.3525
    6DOPE  C212  706   1.642   4.259  10.215 -0.2275  0.3236  0.3212
    6DOPE  H12R  707   1.710   4.172  10.197  1.5191  1.6825 -0.0012
    6DOPE  H12S  708   1.712   4.344  10.230 -0.3024  0.2885  0.8695
    6DOPE  C213  709   1.570   4.282  10.070 -0.7533  0.0929 -0.5997
    6DOPE  H13R  710   1.500   4.368  10.074 -1.2488 -0.3397  0.1843
    6DOPE  H13S  711   1.509   4.190  10.058  0.7358 -0.9258 -0.5765
    6DOPE  C214  712   1.672   4.300   9.960 -0.3080  0.2667 -0.3637
    6DOPE  H14R  713   1.738   4.211   9.972 -1.2654 -0.1275  2.8639
    6DOPE  H14S  714   1.735   4.388   9.986  1.4396 -1.4257  1.4795
    6DOPE  C215  715   1.606   4.317   9.823 -0.1393 -1.0351 -0.3945
    6DOPE  H15R  716   1.670   4.359   9.742 -0.0610  1.0420  0.6953
    6DOPE  H15S  717   1.519   4.385   9.837  0.3884 -0.3624 -0.3143
    6DOPE  C216  718   1.547   4.186   9.780 -0.0462 -0.2392  0.3411
    6DOPE  H16R  719   1.470   4.147   9.850  1.0102 -0.7540  1.2435
    6DOPE  H16S  720   1.628   4.112   9.767  0.7604  1.1124 -3.9092
    6DOPE  C217  721   1.470   4.201   9.651 -0.2722  0.1500  0.5754
    6DOPE  H17R  722   1.452   4.096   9.622  0.9446 -0.2440  1.1599
    6DOPE  H17S  723   1.543   4.244   9.579  0.9432 -0.4501  1.4162
    6DOPE  C218  724   1.339   4.277   9.656  0.2277  0.4347 -0.7055
    6DOPE  H18R  725   1.279   4.238   9.740 -2.0548 -0.8920 -2.8264
    6DOPE  H18S  726   1.289   4.275   9.556 -0.2915  1.8200 -0.5077
    6DOPE  H18T  727   1.349   4.385   9.682 -1.7721  0.6913 -0.8680
    6DOPE   C33  728   1.253   5.226  10.585 -0.3227  0.3096  0.5875
    6DOPE   H3X  729   1.300   5.321  10.617  0.9028 -0.6986  1.8945
    6DOPE   H3Y  730   1.158   5.211  10.640 -1.1810 -0.3490 -0.9870
    6DOPE   C34  731   1.209   5.260  10.438  0.2529 -0.2839 -0.1592
    6DOPE   H4X  732   1.129   5.185  10.424  1.5549 -1.6642 -0.5301
    6DOPE   H4Y  733   1.181   5.367  10.437 -1.5921 -0.6168  2.7156
    6DOPE   C35  734   1.307   5.239  10.322  0.3146 -0.0617 -0.2094
    6DOPE   H5X  735   1.305   5.131  10.299  0.0539 -0.2577  0.7129
    6DOPE   H5Y  736   1.410   5.273  10.347  0.6705 -1.7759  0.8089
    6DOPE   C36  737   1.248   5.291  10.186 -0.0875 -0.4513  0.4511
    6DOPE   H6X  738   1.275   5.399  10.181  0.4822 -0.5580  1.1509
    6DOPE   H6Y  739   1.140   5.269  10.173 -0.0353 -0.8089  0.6182
    6DOPE   C37  740   1.321   5.225  10.069 -0.3131 -0.1733  0.0342
    6DOPE   H7X  741   1.426   5.236  10.106 -0.1665 -2.4152  0.4227
    6DOPE   H7Y  742   1.294   5.118  10.069 -1.7079  0.0778  3.1763
    6DOPE   C38  743   1.308   5.284   9.934  0.4172 -0.6203 -0.0062
    6DOPE   H8X  744   1.385   5.248   9.862  1.0950  1.4083 -0.3544
    6DOPE   H8Y  745   1.332   5.392   9.938  0.7886 -0.5966 -1.9428
    6DOPE   C39  746   1.174   5.268   9.875  0.5781  1.0353  0.0919
    6DOPE   H9X  747   1.088   5.323   9.916  0.3465  0.6881  0.0728
    6DOPE  C310  748   1.140   5.178   9.782 -0.6084  0.2608  0.6630
    6DOPE  H10X  749   1.033   5.177   9.756 -0.4280  1.0324 -0.1316
    6DOPE  C311  750   1.217   5.070   9.702  1.5126  0.0575  0.0341
    6DOPE  H11X  751   1.326   5.085   9.691  2.0713 -2.8466  0.8220
    6DOPE  H11Y  752   1.205   4.976   9.760 -0.4370  0.1993 -0.0728
    6DOPE  C312  753   1.148   5.034   9.563  0.2046 -0.2746  0.1333
    6DOPE  H12X  754   1.039   5.015   9.574 -0.3725  1.9481 -0.9490
    6DOPE  H12Y  755   1.198   4.941   9.530 -0.1418 -0.4028 -0.0249
    6DOPE  C313  756   1.154   5.142   9.458 -0.0867  0.2076 -0.8449
    6DOPE  H13X  757   1.052   5.157   9.417 -0.3052 -0.4260 -0.5550
    6DOPE  H13Y  758   1.201   5.233   9.500 -0.6674  0.6883 -1.2233
    6DOPE  C314  759   1.238   5.094   9.334 -0.1018  0.1234  0.6930
    6DOPE  H14X  760   1.223   5.177   9.262 -0.0142  2.2751  3.0028
    6DOPE  H14Y  761   1.195   4.996   9.303  0.4271  0.0190  0.2794
    6DOPE  C315  762   1.388   5.079   9.366 -0.3639 -0.3747  0.4107
    6DOPE  H15X  763   1.415   5.003   9.442 -0.1441  1.7737  2.5624
    6DOPE  H15Y  764   1.405   5.176   9.416 -1.8011 -0.4652  1.1277
    6DOPE  C316  765   1.465   5.063   9.229 -0.2207  0.6209 -0.5777
    6DOPE  H16X  766   1.420   5.129   9.152 -0.7391  0.5382 -0.3530
    6DOPE  H16Y  767   1.454   4.956   9.200  0.1736 -0.1513  1.8661
    6DOPE  C317  768   1.619   5.105   9.244  0.6918 -0.5115  0.8124
    6DOPE  H17X  769   1.664   5.084   9.145 -1.7282 -1.4246 -0.1638
    6DOPE  H17Y  770   1.615   5.216   9.247  0.9420 -0.3313 -2.4973
    6DOPE  C318  771   1.698   5.037   9.350  0.7428 -0.4647 -0.1108
    6DOPE  H18X  772   1.794   5.092   9.349  0.1770  0.5719  0.6578
    6DOPE  H18Y  773   1.638   5.047   9.443 -1.1412  0.0597 -1.3164
    6DOPE  H18Z  774   1.701   4.929   9.324 -0.2233 -0.0642 -2.0605
    7DOPE     N  775   5.473   5.521  11.210  0.1004 -0.7025  0.3671
    7DOPE   HN1  776   5.418   5.606  11.186 -0.0212 -0.1442  2.4403
    7DOPE   HN2  777   5.539   5.540  11.288 -0.5933  0.0319  0.7880
    7DOPE   HN3  778   5.533   5.490  11.131  0.0583  1.0147 -0.3770
    7DOPE   C12  779   5.378   5.411  11.234  0.3058  0.0315  0.0979
    7DOPE  H12A  780   5.420   5.352  11.318 -0.4441  0.0691  0.5021
    7DOPE  H12B  781   5.389   5.346  11.144 -0.9830  1.7040 -1.3521
    7DOPE   C11  782   5.232   5.458  11.262  0.2472 -0.3326  0.3304
    7DOPE  H11A  783   5.237   5.526  11.349 -1.0365  1.9642 -1.2960
    7DOPE  H11B  784   5.173   5.369  11.294  1.3086 -0.1363  3.0993
    7DOPE     P  785   5.149   5.678  11.130 -0.3832 -0.1458 -0.1484
    7DOPE   O13  786   5.284   5.735  11.100 -0.2014 -0.0476 -0.4179
    7DOPE   O14  787   5.073   5.729  11.249 -0.6413 -0.5363 -0.0768
    7DOPE   O11  788   5.055   5.688  11.001  0.0450 -0.6313  0.5591
    7DOPE   O12  789   5.168   5.517  11.150  0.5058  0.4804 -0.6751
    7DOPE    C1  790   5.092   5.623  10.883 -0.1343 -0.1064 -0.0157
    7DOPE    HA  791   5.103   5.514  10.902  0.2471 -0.0795 -0.0711
    7DOPE    HB  792   5.187   5.660  10.838  0.1288  0.3627  0.8972
    7DOPE    C2  793   4.975   5.643  10.779 -0.5891 -0.5370  0.1251
    7DOPE    HS  794   4.996   5.590  10.684 -0.5041  1.7876 -1.2215
    7DOPE   O21  795   4.962   5.787  10.764 -0.0175  0.1092  0.0373
    7DOPE   C21  796   5.052   5.841  10.675 -0.2515 -0.1813 -0.2508
    7DOPE   O22  797   5.112   5.773  10.593  0.7678 -0.4036 -0.1732
    7DOPE   C22  798   5.066   5.996  10.702 -0.6288 -0.3021  0.1612
    7DOPE   H2R  799   5.173   6.026  10.707 -0.9694  0.9971 -0.1527
    7DOPE   H2S  800   5.028   6.025  10.802  2.0249  0.7864  0.9621
    7DOPE    C3  801   4.837   5.600  10.834 -0.0541 -0.2485  0.4002
    7DOPE    HX  802   4.811   5.668  10.918  0.0649 -1.1877  1.2049
    7DOPE    HY  803   4.848   5.500  10.880 -1.2769  0.1658  1.6715
    7DOPE   O31  804   4.734   5.593  10.729 -0.0384 -0.0216 -0.3810
    7DOPE   C31  805   4.748   5.485  10.654  0.2535  0.2232  0.3684
    7DOPE   O32  806   4.834   5.400  10.666 -0.1031  0.1907 -0.0603
    7DOPE   C32  807   4.641   5.491  10.539  0.0701 -0.5827 -0.2448
    7DOPE   H2X  808   4.619   5.386  10.512  1.6782 -0.7761 -0.8699
    7DOPE   H2Y  809   4.550   5.542  10.579  0.0275 -0.3434 -0.6474
    7DOPE   C23  810   5.001   6.086  10.599 -0.0647  0.8246 -0.2912
    7DOPE   H3R  811   4.989   6.187  10.643  3.3201  1.6485 -1.0102
    7DOPE   H3S  812   4.896   6.055  10.580  0.7019 -2.5055  0.2952
    7DOPE   C24  813   5.094   6.098  10.480  0.0180  0.4253  0.4880
    7DOPE   H4R  814   5.121   5.996  10.445 -1.2402  0.5133 -0.8557
    7DOPE   H4S  815   5.187   6.148  10.514 -0.2745  1.6783 -0.4774
    7DOPE   C25  816   5.018   6.144  10.350 -0.1501  0.0868  0.1061
    7DOPE   H5R  817   4.986   6.250  10.350  0.1993  0.2676  2.9113
    7DOPE   H5S  818   4.935   6.071  10.342  1.2309 -1.4217 -1.4317
    7DOPE   C26  819   5.114   6.127  10.228 -0.5001  0.3123  0.3847
    7DOPE   H6R  820   5.164   6.029  10.242 -0.4264  0.2555 -0.2462
    7DOPE   H6S  821   5.183   6.214  10.226  0.1420 -0.1519  1.4960
    7DOPE   C27  822   5.037   6.135  10.094  0.0336 -0.5848  0.1938
    7DOPE   H7R  823   5.018   6.243  10.078  3.5156  0.1350  0.1260
    7DOPE   H7S  824   4.948   6.070  10.107  1.2041 -1.9478  1.8504
    7DOPE   C28  825   5.112   6.099   9.961 -0.0113 -0.2295 -0.0091
    7DOPE   H8R  826   5.126   5.989   9.973  1.6557 -0.1053 -0.5862
    7DOPE   H8S  827   5.212   6.146   9.969  0.9982 -2.0881 -1.0064
    7DOPE   C29  828   5.041   6.150   9.835 -0.1417  0.5892 -0.1154
    7DOPE   H9R  829   5.001   6.252   9.844 -1.3649  0.0506  0.7764
    7DOPE  C210  830   5.016   6.079   9.721  0.0295 -0.8174 -0.3404
    7DOPE  H10R  831   4.949   6.126   9.648 -0.3859 -1.0035 -0.0768
    7DOPE  C211  832   5.062   5.937   9.697 -0.1027  1.0625 -0.2606
    7DOPE  H11R  833   4.989   5.862   9.736 -0.0987  0.6417 -1.0497
    7DOPE  H11S  834   5.155   5.924   9.756 -1.2690 -0.5744  1.3472
    7DOPE  C212  835   5.089   5.907   9.548 -0.3952 -0.1259 -0.3651
    7DOPE  H12R  836   5.175   5.971   9.519 -1.2585  0.6019 -1.3470
    7DOPE  H12S  837   5.003   5.937   9.485  0.5901  0.1353 -1.6427
    7DOPE  C213  838   5.132   5.763   9.524  0.0608  0.3162  0.5575
    7DOPE  H13R  839   5.204   5.728   9.601  0.3332 -1.0681 -0.2685
    7DOPE  H13S  840   5.190   5.756   9.429  0.0147  1.1817  0.4643
    7DOPE  C214  841   5.008   5.661   9.525  0.3898 -1.5336  0.0295
    7DOPE  H14R  842   4.962   5.667   9.424  0.8440  1.0802 -0.0773
    7DOPE  H14S  843   4.944   5.717   9.597 -0.2418  1.3888 -2.5750
    7DOPE  C215  844   5.046   5.518   9.556  0.4375 -0.5180 -0.1377
    7DOPE  H15R  845   5.139   5.490   9.502  1.5119 -0.0054  1.3821
    7DOPE  H15S  846   4.965   5.450   9.521 -0.7263  1.1480 -0.8200
    7DOPE  C216  847   5.075   5.492   9.702 -0.9835 -0.1333  0.1684
    7DOPE  H16R  848   4.989   5.514   9.768  0.6878  0.2953  2.3369
    7DOPE  H16S  849   5.148   5.569   9.737 -1.2779  1.1399 -1.8248
    7DOPE  C217  850   5.134   5.347   9.728  0.0896 -0.2553 -0.1853
    7DOPE  H17R  851   5.186   5.336   9.826 -1.7045 -0.0003  0.8492
    7DOPE  H17S  852   5.205   5.324   9.646  0.7312 -1.8246  0.7677
    7DOPE  C218  853   5.020   5.234   9.748  0.2318 -0.1416  0.2676
    7DOPE  H18R  854   5.072   5.142   9.783  1.8872 -0.3979 -2.5046
    7DOPE  H18S  855   4.989   5.201   9.646 -0.0690 -2.4850  1.0669
    7DOPE  H18T  856   4.936   5.271   9.810 -0.0724  1.2085 -0.8891
    7DOPE   C33  857   4.682   5.554  10.409  0.5081 -0.1065  0.3920
    7DOPE   H3X  858   4.591   5.557  10.344  1.6389  0.3915 -1.2225
    7DOPE   H3Y  859   4.754   5.480  10.368 -0.5759 -2.5604  2.6087
    7DOPE   C34  860   4.750   5.685  10.407 -0.1285  0.1542  0.8619
    7DOPE   H4X  861   4.697   5.746  10.484 -0.6797  0.5413  0.1808
    7DOPE   H4Y  862   4.855   5.677  10.444  0.1782 -1.1563 -0.2233
    7DOPE   C35  863   4.740   5.755  10.270  0.8951 -0.2553  0.7032
    7DOPE   H5X  864   4.790   5.854  10.271 -1.2519  0.8747  0.6404
    7DOPE   H5Y  865   4.637   5.786  10.242  1.2800 -0.6811 -1.3112
    7DOPE   C36  866   4.811   5.681  10.150  0.6645 -0.2772 -0.1629
    7DOPE   H6X  867   4.804   5.748  10.061  2.0003 -1.8566 -1.5311
    7DOPE   H6Y  868   4.753   5.591  10.122  1.7456 -2.7909  4.5820
    7DOPE   C37  869   4.962   5.643  10.179  0.9945  0.1470  0.2698
    7DOPE   H7X  870   4.969   5.579  10.269  0.6744  1.3677  1.1928
    7DOPE   H7Y  871   4.986   5.575  10.094 -1.4011 -0.9240  0.3641
    7DOPE   C38  872   5.056   5.765  10.192 -0.6405  0.0433 -0.6369
    7DOPE   H8X  873   5.027   5.838  10.270 -0.9155  0.1725 -0.8576
    7DOPE   H8Y  874   5.065   5.828  10.101 -0.9040 -0.6916 -1.1788
    7DOPE   C39  875   5.189   5.715  10.237 -0.4265  0.4637 -0.2675
    7DOPE   H9X  876   5.197   5.705  10.346  1.0459 -2.1968 -0.5440
    7DOPE  C310  877   5.296   5.695  10.161 -0.0486  0.3915  0.1390
    7DOPE  H10X  878   5.380   5.637  10.204  2.0026  2.5901 -0.6945
    7DOPE  C311  879   5.294   5.683  10.010 -0.2108  0.3106 -0.6804
    7DOPE  H11X  880   5.196   5.674   9.958 -0.6750 -0.6751  0.3362
    7DOPE  H11Y  881   5.345   5.771   9.965 -0.0364  0.2911 -0.5236
    7DOPE  C312  882   5.357   5.556   9.954 -0.6852 -0.6053 -0.1840
    7DOPE  H12X  883   5.342   5.553   9.844  1.5338  2.5992 -0.7046
    7DOPE  H12Y  884   5.311   5.465  10.000  1.1121 -0.6317  1.7477
    7DOPE  C313  885   5.507   5.548   9.969  0.0853  1.6097 -0.5545
    7DOPE  H13X  886   5.552   5.648   9.950 -0.6955  1.9113 -0.8756
    7DOPE  H13Y  887   5.530   5.522  10.075 -1.6115 -0.6212 -0.6548
    7DOPE  C314  888   5.564   5.434   9.883 -0.0741 -0.8256  0.0069
    7DOPE  H14X  889   5.530   5.457   9.779  1.5729  3.1948  0.1666
    7DOPE  H14Y  890   5.518   5.338   9.914 -1.2171 -0.9555 -1.8994
    7DOPE  C315  891   5.721   5.422   9.872  0.4897 -0.1931 -0.3777
    7DOPE  H15X  892   5.761   5.388   9.970  0.2667  2.5986  0.7809
    7DOPE  H15Y  893   5.757   5.527   9.860  0.4564  0.5738  4.3371
    7DOPE  C316  894   5.766   5.338   9.755  0.1013  0.1614 -0.1480
    7DOPE  H16X  895   5.706   5.364   9.665 -0.7234  0.4427  0.4728
    7DOPE  H16Y  896   5.738   5.231   9.772  2.9945 -1.0274 -2.0572
    7DOPE  C317  897   5.919   5.335   9.740 -0.2802  0.3732  0.0733
    7DOPE  H17X  898   5.945   5.267   9.656 -2.5530 -0.4128 -0.0617
    7DOPE  H17Y  899   5.947   5.438   9.708 -0.2811 -0.1119 -1.6161
    7DOPE  C318  900   5.996   5.284   9.863 -0.0534  0.1323 -0.1604
    7DOPE  H18X  901   5.959   5.185   9.897  0.5056  0.0335  0.1709
    7DOPE  H18Y  902   6.101   5.259   9.837 -0.2338  1.3214 -2.2608
    7DOPE  H18Z  903   5.996   5.350   9.952 -0.0467  0.5412 -0.4581
    8DOPE     N  904   6.097   5.310  11.003 -0.0174 -0.1172  0.1346
    8DOPE   HN1  905   6.064   5.362  11.087  0.2767  1.3701 -0.6503
    8DOPE   HN2  906   6.197   5.283  11.005 -0.3919 -1.5675  1.9070
    8DOPE   HN3  907   6.089   5.381  10.927  0.1635 -0.9255 -0.6652
    8DOPE   C12  908   6.004   5.187  10.971 -0.8748 -1.1129 -0.7742
    8DOPE  H12A  909   6.046   5.108  11.036 -0.3655  0.8793  1.4819
    8DOPE  H12B  910   6.013   5.155  10.865 -0.2227 -1.5139 -0.6002
    8DOPE   C11  911   5.865   5.247  11.009  0.0319 -0.7640 -0.2126
    8DOPE  H11A  912   5.874   5.315  11.096  0.3133  0.4657 -1.1825
    8DOPE  H11B  913   5.794   5.168  11.043 -2.1045  1.7187  1.4616
    8DOPE     P  914   5.678   5.397  10.904  0.3725  0.1236 -0.0825
    8DOPE   O13  915   5.657   5.476  11.030 -0.0293 -0.3496  0.0550
    8DOPE   O14  916   5.565   5.306  10.870  0.0850 -0.0782  0.5150
    8DOPE   O11  917   5.702   5.498  10.779 -0.1125  0.4104  0.2010
    8DOPE   O12  918   5.813   5.324  10.905  0.3485  0.3944  0.6252
    8DOPE    C1  919   5.713   5.436  10.649  0.5276 -0.4644  0.6732
    8DOPE    HA  920   5.763   5.337  10.655  0.3571 -0.6370 -0.4559
    8DOPE    HB  921   5.782   5.498  10.587  2.1732 -2.8723 -0.0235
    8DOPE    C2  922   5.574   5.424  10.576 -0.0795 -0.2939 -0.8828
    8DOPE    HS  923   5.519   5.349  10.637  0.2668 -1.5542 -2.0795
    8DOPE   O21  924   5.596   5.364  10.449 -0.0072  0.4351  0.0619
    8DOPE   C21  925   5.527   5.253  10.417 -0.0331 -0.1504 -0.1927
    8DOPE   O22  926   5.466   5.178  10.494  0.4934 -0.4021 -0.1835
    8DOPE   C22  927   5.542   5.218  10.267 -0.2046 -0.5064 -0.1430
    8DOPE   H2R  928   5.603   5.125  10.268 -0.1512 -0.4743 -0.4719
    8DOPE   H2S  929   5.599   5.300  10.219  2.0314 -1.4249  0.8154
    8DOPE    C3  930   5.491   5.556  10.568 -0.1083 -0.2914  0.0061
    8DOPE    HX  931   5.555   5.633  10.519 -1.9376  0.3627 -1.4761
    8DOPE    HY  932   5.461   5.586  10.670 -1.5043  0.4342 -0.5824
    8DOPE   O31  933   5.377   5.528  10.478  0.7694  0.3296 -0.1507
    8DOPE   C31  934   5.274   5.466  10.534  0.0872  0.4757 -0.1217
    8DOPE   O32  935   5.259   5.448  10.655 -0.2117 -0.1699  0.3923
    8DOPE   C32  936   5.169   5.426  10.426 -0.0310  0.4265  0.2282
    8DOPE   H2X  937   5.091   5.504  10.435  0.7489  1.2028  0.3881
    8DOPE   H2Y  938   5.205   5.430  10.321  1.6578 -2.4747  0.5720
    8DOPE   C23  939   5.412   5.189  10.189  0.7448  0.0960  0.3420
    8DOPE   H3R  940   5.375   5.292  10.166 -0.0678  0.3578  2.5392
    8DOPE   H3S  941   5.340   5.131  10.250  1.6241 -2.2394 -0.7452
    8DOPE   C24  942   5.437   5.101  10.058 -0.2104 -0.2397  0.2764
    8DOPE   H4R  943   5.457   4.996  10.089  0.3526 -0.6775 -1.4343
    8DOPE   H4S  944   5.527   5.129   9.999 -0.3964  2.1172  1.0227
    8DOPE   C25  945   5.318   5.096   9.958 -0.2136 -0.0428  0.8556
    8DOPE   H5R  946   5.261   5.192   9.956 -0.1352  0.0212  1.4901
    8DOPE   H5S  947   5.245   5.031  10.011 -1.2151  0.1467 -0.2274
    8DOPE   C26  948   5.346   5.018   9.826 -0.1504  0.3372  0.2499
    8DOPE   H6R  949   5.255   4.982   9.773  0.6541  0.9229 -1.6267
    8DOPE   H6S  950   5.398   4.923   9.849 -1.2611 -0.1028  1.0807
    8DOPE   C27  951   5.421   5.095   9.721  0.2096 -0.1854  0.0592
    8DOPE   H7R  952   5.523   5.122   9.755  0.5388  0.0236 -1.0600
    8DOPE   H7S  953   5.365   5.191   9.712 -0.1505 -0.5943 -2.8261
    8DOPE   C28  954   5.437   5.027   9.583  0.5748  0.1490 -0.5349
    8DOPE   H8R  955   5.334   5.000   9.550 -1.3467  3.2053  2.3177
    8DOPE   H8S  956   5.494   4.934   9.601 -0.7223 -0.7406 -0.9050
    8DOPE   C29  957   5.507   5.129   9.497  0.2539 -0.0630  0.3173
    8DOPE   H9R  958   5.442   5.217   9.488 -0.2175 -0.4226  0.1416
    8DOPE  C210  959   5.624   5.118   9.432 -0.6044 -0.6169  0.1983
    8DOPE  H10R  960   5.658   5.207   9.376 -0.6729 -1.0332 -0.5152
    8DOPE  C211  961   5.712   4.995   9.413 -0.7489 -0.1958  0.0042
    8DOPE  H11R  962   5.717   4.949   9.311 -0.1189 -2.7638  1.1011
    8DOPE  H11S  963   5.674   4.912   9.476 -2.1490  0.7235  0.4071
    8DOPE  C212  964   5.855   5.022   9.460 -0.5734 -0.0141  0.2330
    8DOPE  H12R  965   5.849   5.065   9.562 -0.2382  0.3949  0.0831
    8DOPE  H12S  966   5.903   5.104   9.403 -0.5305  1.8515  2.7643
    8DOPE  C213  967   5.948   4.898   9.455  0.9977  0.5862 -0.6585
    8DOPE  H13R  968   5.901   4.831   9.380 -2.7068  0.7263  1.2978
    8DOPE  H13S  969   5.929   4.840   9.549  0.7130  1.9291  0.1357
    8DOPE  C214  970   6.090   4.912   9.412 -0.2784  0.2056  0.1758
    8DOPE  H14R  971   6.134   4.974   9.493  1.1296  1.2353 -1.3091
    8DOPE  H14S  972   6.093   4.978   9.323 -1.1579  1.2271  0.8778
    8DOPE  C215  973   6.181   4.796   9.385 -0.4015  0.8301 -0.0547
    8DOPE  H15R  974   6.289   4.820   9.376  0.6220 -2.5077  1.7861
    8DOPE  H15S  975   6.151   4.755   9.286 -2.9416  0.0366  0.9479
    8DOPE  C216  976   6.164   4.679   9.485  0.0024  0.4189 -0.2578
    8DOPE  H16R  977   6.224   4.590   9.457 -0.1612 -0.0251  0.7558
    8DOPE  H16S  978   6.055   4.654   9.488 -0.0219  0.4708 -0.6785
    8DOPE  C217  979   6.219   4.704   9.623 -0.2103  0.4365 -0.7070
    8DOPE  H17R  980   6.148   4.758   9.690  0.6354 -0.5441  1.0664
    8DOPE  H17S  981   6.304   4.774   9.617  0.4234 -0.1333  0.9486
    8DOPE  C218  982   6.266   4.573   9.678  0.6362  0.2415  0.4082
    8DOPE  H18R  983   6.174   4.510   9.678 -1.3607  2.9900 -0.1391
    8DOPE  H18S  984   6.304   4.576   9.782  0.5612  0.1157  0.4400
    8DOPE  H18T  985   6.349   4.525   9.620  1.3203  4.1351 -2.1893
    8DOPE   C33  986   5.099   5.292  10.459 -0.0152 -0.6504  0.6623
    8DOPE   H3X  987   5.056   5.298  10.561  5.1760 -2.6048  3.2967
    8DOPE   H3Y  988   5.180   5.216  10.455 -0.6619 -1.3441 -2.7070
    8DOPE   C34  989   4.995   5.246  10.358  0.2253 -0.1385  0.8519
    8DOPE   H4X  990   4.920   5.326  10.336  1.8382  1.5532  1.2394
    8DOPE   H4Y  991   5.048   5.241  10.261 -0.2090 -1.8983  0.6771
    8DOPE   C35  992   4.937   5.107  10.392 -1.0755  0.1300  0.1069
    8DOPE   H5X  993   4.871   5.119  10.481  0.3637 -0.2564  1.2589
    8DOPE   H5Y  994   5.024   5.046  10.423  1.5215  3.9680  1.1881
    8DOPE   C36  995   4.858   5.046  10.272 -0.9063  0.3217 -0.0250
    8DOPE   H6X  996   4.853   4.935  10.278  0.2459  0.2749  0.3357
    8DOPE   H6Y  997   4.899   5.075  10.173 -3.5871  1.0012 -1.0007
    8DOPE   C37  998   4.709   5.093  10.269  0.2689 -0.5035 -0.2241
    8DOPE   H7X  999   4.647   5.041  10.345 -0.5648  2.5685  1.3658
    8DOPE   H7Y 1000   4.711   5.204  10.282 -2.6426 -0.4631  0.6279
    8DOPE   C38 1001   4.637   5.072  10.130 -0.0352 -0.3602 -0.6040
    8DOPE   H8X 1002   4.711   5.111  10.057 -0.1340  2.0073  0.4431
    8DOPE   H8Y 1003   4.553   5.142  10.113  0.0419  0.5817  2.2983
    8DOPE   C39 1004   4.598   4.930  10.113  0.1729 -0.7288 -0.3418
    8DOPE   H9X 1005   4.662   4.858  10.166 -1.7722 -0.9778  1.8630
    8DOPE  C310 1006   4.497   4.884  10.041  0.2489  0.6276  0.1047
    8DOPE  H10X 1007   4.473   4.778  10.054  0.8224  0.6561  1.6323
    8DOPE  C311 1008   4.396   4.966   9.967 -0.0114 -0.0977  0.1230
    8DOPE  H11X 1009   4.425   5.072   9.959 -2.3101  0.7005  1.5002
    8DOPE  H11Y 1010   4.387   4.929   9.862  0.5123  0.1107  0.0068
    8DOPE  C312 1011   4.251   4.968  10.023 -0.2881 -0.6247  0.8152
    8DOPE  H12X 1012   4.194   5.040   9.960  0.4551 -0.6347  0.1266
    8DOPE  H12Y 1013   4.245   5.016  10.123 -0.9770 -0.2068  0.5839
    8DOPE  C313 1014   4.172   4.838  10.022 -0.2957  0.0965  0.1872
    8DOPE  H13X 1015   4.164   4.801   9.918  0.9178  0.1271  0.0667
    8DOPE  H13Y 1016   4.227   4.776  10.096  0.4520  0.4772 -0.0350
    8DOPE  C314 1017   4.030   4.871  10.073 -0.7277 -0.4475  0.6338
    8DOPE  H14X 1018   3.980   4.931   9.994 -0.6916  0.0729  1.0043
    8DOPE  H14Y 1019   4.036   4.931  10.167  0.0142 -0.5701  0.6678
    8DOPE  C315 1020   3.928   4.753  10.092  0.6675 -0.0120  0.4410
    8DOPE  H15X 1021   3.934   4.688  10.002 -0.0657 -1.9989  1.7599
    8DOPE  H15Y 1022   3.822   4.789  10.097 -0.2413 -2.4605  0.1215
    8DOPE  C316 1023   3.955   4.663  10.214 -0.3694  0.7681 -0.3610
    8DOPE  H16X 1024   3.928   4.722  10.305 -0.2576  3.0394 -1.7198
    8DOPE  H16Y 1025   4.065   4.647  10.215 -0.1523  1.7518  2.4180
    8DOPE  C317 1026   3.867   4.540  10.220 -0.1535  0.1428 -0.2236
    8DOPE  H17X 1027   3.760   4.568  10.227 -0.0048  1.1594 -1.6627
    8DOPE  H17Y 1028   3.877   4.492  10.120 -0.4589 -0.4003  0.0002
    8DOPE  C318 1029   3.904   4.446  10.336  0.0964 -0.2721 -0.0150
    8DOPE  H18X 1030   4.003   4.403  10.309  0.9167  0.8156  1.1690
    8DOPE  H18Y 1031   3.836   4.359  10.351 -1.4443  1.1404  1.7196
    8DOPE  H18Z 1032   3.911   4.499  10.433 -0.5113 -0.8078  0.3263
    9DOPE     N 1033   1.128   3.676  11.331  0.2849 -0.3327  0.5368
    9DOPE   HN1 1034   1.098   3.674  11.430  0.1802 -1.2635  0.5024
    9DOPE   HN2 1035   1.187   3.761  11.320  0.6976 -0.5785  0.8503
    9DOPE   HN3 1036   1.042   3.700  11.277  0.8244 -1.2636 -0.7898
    9DOPE   C12 1037   1.192   3.548  11.296 -0.4194  0.5578 -0.2912
    9DOPE  H12A 1038   1.112   3.471  11.297 -0.1980  0.3171 -1.0659
    9DOPE  H12B 1039   1.261   3.523  11.380  1.0976  1.1224 -1.3319
    9DOPE   C11 1040   1.258   3.563  11.161  0.4029  0.8561 -0.1008
    9DOPE  H11A 1041   1.169   3.570  11.094  2.2607 -2.1697 -3.1722
    9DOPE  H11B 1042   1.316   3.472  11.139 -0.0868  0.8854 -1.6222
    9DOPE     P 1043   1.481   3.694  11.091  0.3495  0.1049  0.3677
    9DOPE   O13 1044   1.565   3.577  11.121  0.4356 -0.5336  0.2174
    9DOPE   O14 1045   1.533   3.823  11.145  0.5190  0.3377 -0.4826
    9DOPE   O11 1046   1.453   3.706  10.937  0.3576  0.3975  0.1771
    9DOPE   O12 1047   1.336   3.677  11.152 -0.0452 -1.0920 -0.3494
    9DOPE    C1 1048   1.365   3.804  10.888 -0.3769 -0.4531  0.7919
    9DOPE    HA 1049   1.431   3.889  10.860  0.2152 -1.3141 -0.4876
    9DOPE    HB 1050   1.284   3.831  10.960 -0.9209  1.3872 -0.4408
    9DOPE    C2 1051   1.300   3.751  10.750  0.6305 -0.0159 -1.2534
    9DOPE    HS 1052   1.283   3.842  10.689  0.6794  1.4430  0.8454
    9DOPE   O21 1053   1.170   3.688  10.770 -0.4811  0.3346 -0.5885
    9DOPE   C21 1054   1.066   3.764  10.796 -0.0671 -0.0686  0.1070
    9DOPE   O22 1055   1.067   3.889  10.794  0.4543 -0.4413 -0.1441
    9DOPE   C22 1056   0.946   3.673  10.832  0.6780  0.0769 -0.1039
    9DOPE   H2R 1057   0.869   3.738  10.878 -0.7986 -0.3801 -1.8078
    9DOPE   H2S 1058   0.971   3.611  10.921  1.3304  0.4643 -0.0080
    9DOPE    C3 1059   1.393   3.662  10.670  0.1699 -0.3778  0.1783
    9DOPE    HX 1060   1.435   3.577  10.727  0.7712  0.2570  0.7058
    9DOPE    HY 1061   1.482   3.724  10.647  0.4046 -0.0728  1.7858
    9DOPE   O31 1062   1.332   3.624  10.543  0.5342  0.1499 -0.1804
    9DOPE   C31 1063   1.307   3.717  10.450 -0.9439 -0.2091 -0.0366
    9DOPE   O32 1064   1.338   3.835  10.458  0.2169  0.5600  0.3800
    9DOPE   C32 1065   1.231   3.657  10.341  0.1189 -0.2923  0.1410
    9DOPE   H2X 1066   1.293   3.574  10.300 -0.1296  0.2133 -1.3330
    9DOPE   H2Y 1067   1.139   3.616  10.388 -1.7541 -0.3497 -3.2397
    9DOPE   C23 1068   0.903   3.583  10.714  0.2483 -0.1021 -0.2642
    9DOPE   H3R 1069   0.830   3.510  10.755 -1.3460  2.1450  1.1327
    9DOPE   H3S 1070   0.984   3.528  10.661 -0.3801 -2.3572  0.9915
    9DOPE   C24 1071   0.849   3.676  10.611  0.0292 -0.4469  0.0064
    9DOPE   H4R 1072   0.920   3.745  10.561  0.1350  0.3175  1.1657
    9DOPE   H4S 1073   0.770   3.739  10.658  0.0377  1.4339 -2.2674
    9DOPE   C25 1074   0.767   3.600  10.503 -0.4801  0.1433  0.2113
    9DOPE   H5R 1075   0.663   3.639  10.490 -0.1949  0.4222 -1.5315
    9DOPE   H5S 1076   0.746   3.492  10.517 -2.3171  0.5721  1.0734
    9DOPE   C26 1077   0.819   3.615  10.355 -0.6471 -0.3096 -0.0609
    9DOPE   H6R 1078   0.922   3.574  10.356 -0.5696 -0.1130  0.8962
    9DOPE   H6S 1079   0.830   3.721  10.324 -2.5687 -0.7965 -2.7430
    9DOPE   C27 1080   0.735   3.513  10.269 -0.3123  0.6877 -0.3844
    9DOPE   H7R 1081   0.625   3.529  10.273 -0.2929  1.1768 -1.5545
    9DOPE   H7S 1082   0.759   3.409  10.299  1.7540  0.9482 -0.9701
    9DOPE   C28 1083   0.764   3.532  10.116 -0.0464 -0.5132 -0.5165
    9DOPE   H8R 1084   0.730   3.432  10.083  1.6703 -2.0094  1.9657
    9DOPE   H8S 1085   0.875   3.526  10.117 -0.0635 -1.0674 -1.0500
    9DOPE   C29 1086   0.726   3.662  10.041 -0.2555  0.8104 -0.0754
    9DOPE   H9R 1087   0.699   3.749  10.103  0.5720  1.3032 -0.3926
    9DOPE  C210 1088   0.704   3.660   9.906  0.2584 -0.3628 -0.1020
    9DOPE  H10R 1089   0.655   3.752   9.870  1.8499  0.6118  0.1161
    9DOPE  C211 1090   0.692   3.549   9.800 -0.1168 -0.0083  0.1144
    9DOPE  H11R 1091   0.603   3.582   9.742 -0.2329 -0.6902 -0.1050
    9DOPE  H11S 1092   0.676   3.445   9.837 -1.1167 -0.3418 -1.1585
    9DOPE  C212 1093   0.806   3.551   9.697 -0.2490 -0.7044 -0.1681
    9DOPE  H12R 1094   0.895   3.514   9.752 -0.1538 -1.2244 -0.6646
    9DOPE  H12S 1095   0.835   3.651   9.659 -0.8827 -1.1020 -1.7984
    9DOPE  C213 1096   0.770   3.476   9.567 -1.0803  0.1945 -0.0767
    9DOPE  H13R 1097   0.703   3.544   9.509 -1.5024 -0.7090 -0.6677
    9DOPE  H13S 1098   0.724   3.378   9.594  0.8350 -0.9911 -0.9207
    9DOPE  C214 1099   0.894   3.440   9.478  0.0073  0.1929 -0.0284
    9DOPE  H14R 1100   0.977   3.406   9.543 -0.5139 -0.6311  0.2179
    9DOPE  H14S 1101   0.925   3.533   9.425  2.5676  0.5967  1.9833
    9DOPE  C215 1102   0.855   3.327   9.378 -0.8872  0.5462  0.1175
    9DOPE  H15R 1103   0.833   3.233   9.433 -0.0561 -1.3492 -2.5893
    9DOPE  H15S 1104   0.943   3.312   9.312 -1.6466 -1.5052 -0.5056
    9DOPE  C216 1105   0.753   3.359   9.271  1.0301 -0.4069 -0.6057
    9DOPE  H16R 1106   0.793   3.432   9.198 -0.0137 -0.0482 -0.8286
    9DOPE  H16S 1107   0.664   3.401   9.321  0.6352  0.0235 -1.6544
    9DOPE  C217 1108   0.683   3.240   9.202  0.0895  0.0541  0.1683
    9DOPE  H17R 1109   0.647   3.171   9.281  1.2503  0.9745  1.5374
    9DOPE  H17S 1110   0.752   3.177   9.141  0.8197  2.7154 -1.9615
    9DOPE  C218 1111   0.562   3.274   9.104 -0.3992  0.8944 -0.2531
    9DOPE  H18R 1112   0.602   3.277   9.000 -1.2442 -2.8226 -0.8045
    9DOPE  H18S 1113   0.515   3.369   9.139  1.3361  0.5420  3.5222
    9DOPE  H18T 1114   0.495   3.187   9.117  2.4365 -1.9283 -2.8721
    9DOPE   C33 1115   1.185   3.751  10.225 -0.9668 -0.2600  0.3475
    9DOPE   H3X 1116   1.266   3.817  10.188  0.6951 -1.5204  1.5919
    9DOPE   H3Y 1117   1.100   3.811  10.265 -0.9058 -0.2049  0.3961
    9DOPE   C34 1118   1.135   3.678  10.104  0.2113 -0.3707 -0.3375
    9DOPE   H4X 1119   1.227   3.623  10.071  0.7335 -0.6500  1.4596
    9DOPE   H4Y 1120   1.058   3.604  10.137 -0.1740 -0.6499 -1.8056
    9DOPE   C35 1121   1.081   3.776  10.000  0.0648 -0.0556 -0.1007
    9DOPE   H5X 1122   1.009   3.850  10.040 -0.1180  0.5491 -1.4919
    9DOPE   H5Y 1123   1.036   3.704   9.928  2.9222  0.2464 -2.3672
    9DOPE   C36 1124   1.198   3.844   9.925 -0.0503  0.0072 -0.5886
    9DOPE   H6X 1125   1.278   3.771   9.901 -2.0739 -2.4261 -0.3173
    9DOPE   H6Y 1126   1.223   3.921  10.001 -3.3506 -0.0469  0.7486
    9DOPE   C37 1127   1.156   3.925   9.803 -0.0936 -0.0603  0.9367
    9DOPE   H7X 1128   1.109   4.015   9.847 -4.8805 -1.5082 -0.5546
    9DOPE   H7Y 1129   1.248   3.954   9.748 -0.5632  1.7868  1.0766
    9DOPE   C38 1130   1.054   3.864   9.707  0.2184  0.3102 -0.1226
    9DOPE   H8X 1131   0.962   3.849   9.767  0.4443  1.2966  0.5009
    9DOPE   H8Y 1132   1.096   3.767   9.672  0.4241  0.1228  0.6204
    9DOPE   C39 1133   1.020   3.965   9.596  0.0811  0.5169 -0.4784
    9DOPE   H9X 1134   1.031   4.071   9.626  1.4549  0.0630  0.7381
    9DOPE  C310 1135   0.954   3.943   9.484  0.0099  0.6252  0.1316
    9DOPE  H10X 1136   0.935   4.022   9.410  0.6430 -1.0573 -1.9150
    9DOPE  C311 1137   0.927   3.805   9.432  0.5412 -0.2442  0.8475
    9DOPE  H11X 1138   0.978   3.729   9.495 -2.0064 -0.9818  2.1647
    9DOPE  H11Y 1139   0.821   3.777   9.452 -0.1570  1.9604  0.4924
    9DOPE  C312 1140   0.942   3.806   9.279 -0.4100 -0.0191  0.0615
    9DOPE  H12X 1141   0.959   3.699   9.253  1.3693  0.3155 -0.2350
    9DOPE  H12Y 1142   1.030   3.865   9.245 -1.3462  0.6699 -1.2676
    9DOPE  C313 1143   0.815   3.857   9.205 -0.0250 -0.6603 -0.5813
    9DOPE  H13X 1144   0.731   3.840   9.275 -0.9823  4.6316 -0.0277
    9DOPE  H13Y 1145   0.826   3.961   9.169 -0.1530 -1.5556 -3.4122
    9DOPE  C314 1146   0.797   3.779   9.074  0.4185 -0.1141 -0.3536
    9DOPE  H14X 1147   0.797   3.670   9.095 -0.4413 -0.2234 -0.8660
    9DOPE  H14Y 1148   0.880   3.808   9.007  1.6374 -3.0296 -0.2511
    9DOPE  C315 1149   0.659   3.817   9.008  0.1235 -0.1260  0.3329
    9DOPE  H15X 1150   0.664   3.810   8.897  0.8507 -0.1598  0.3669
    9DOPE  H15Y 1151   0.627   3.920   9.034  2.0185  0.7078 -0.4955
    9DOPE  C316 1152   0.542   3.714   9.032  0.9206 -0.3527 -0.0788
    9DOPE  H16X 1153   0.502   3.716   9.135  1.8270 -1.4328  0.3210
    9DOPE  H16Y 1154   0.591   3.615   9.016  0.9378 -0.7749  2.2065
    9DOPE  C317 1155   0.421   3.734   8.952  0.6331  0.4355  0.9625
    9DOPE  H17X 1156   0.424   3.740   8.841 -1.8032  0.5204  0.8482
    9DOPE  H17Y 1157   0.352   3.649   8.973  1.5695 -0.3775  0.8004
    9DOPE  C318 1158   0.340   3.856   8.982 -0.3961 -0.1996  0.5216
    9DOPE  H18X 1159   0.397   3.949   8.959  0.6168 -1.0339 -0.4610
    9DOPE  H18Y 1160   0.245   3.861   8.926 -0.2541  0.6988  0.3400
    9DOPE  H18Z 1161   0.319   3.859   9.091  2.8472  0.7414  1.2403
   10DOPE     N 1162   1.989   5.373  11.289  0.6995  0.2167 -0.1648
   10DOPE   HN1 1163   1.966   5.336  11.383  2.6837  0.0091  0.2696
   10DOPE   HN2 1164   2.061   5.447  11.299  0.2552  0.5402  0.7321
   10DOPE   HN3 1165   1.904   5.420  11.251  1.1454 -0.0681 -1.5684
   10DOPE   C12 1166   2.042   5.269  11.198 -0.4900  0.6325  0.5462
   10DOPE  H12A 1167   1.984   5.174  11.203 -0.6764  0.7307  0.3143
   10DOPE  H12B 1168   2.143   5.233  11.226 -1.3181 -2.6741 -0.2321
   10DOPE   C11 1169   2.043   5.313  11.054 -0.6081 -0.1555  0.2645
   10DOPE  H11A 1170   2.085   5.235  10.987  1.7851 -0.3655  1.8952
   10DOPE  H11B 1171   2.108   5.403  11.050  0.0077 -0.5122  1.7400
   10DOPE     P 1172   1.797   5.259  10.982  0.1059 -0.0208 -0.1670
   10DOPE   O13 1173   1.674   5.315  11.043 -0.8024 -0.1432 -0.2033
   10DOPE   O14 1174   1.834   5.121  11.025 -0.0505 -0.3747 -0.2183
   10DOPE   O11 1175   1.793   5.282  10.833  0.2292  0.3448  0.9559
   10DOPE   O12 1176   1.912   5.355  11.019  0.3974 -0.6916 -0.2115
   10DOPE    C1 1177   1.718   5.389  10.766 -0.2760 -0.7186 -0.6151
   10DOPE    HA 1178   1.690   5.462  10.844  3.7439 -0.8174  1.1512
   10DOPE    HB 1179   1.627   5.341  10.725 -0.4710 -1.6310  0.8289
   10DOPE    C2 1180   1.802   5.461  10.658  0.0875 -0.2126  0.9650
   10DOPE    HS 1181   1.741   5.529  10.595 -0.2003  0.0403  1.5071
   10DOPE   O21 1182   1.872   5.367  10.574 -0.4478 -0.8844 -0.1600
   10DOPE   C21 1183   1.804   5.322  10.469 -0.3056 -0.7359 -0.1932
   10DOPE   O22 1184   1.704   5.366  10.423 -0.0599 -0.7023  0.2399
   10DOPE   C22 1185   1.888   5.208  10.417 -0.2115  0.4601 -0.0200
   10DOPE   H2R 1186   1.879   5.134  10.500 -0.3534 -0.4756 -0.8393
   10DOPE   H2S 1187   1.995   5.237  10.414  0.9232 -2.8841  2.1034
   10DOPE    C3 1188   1.908   5.557  10.712  0.4427 -0.2096 -0.1122
   10DOPE    HX 1189   1.983   5.491  10.760  0.4023  0.3270  0.7154
   10DOPE    HY 1190   1.855   5.624  10.784  1.1484 -1.3298  1.5026
   10DOPE   O31 1191   1.962   5.632  10.602 -0.2534 -0.2880 -0.0802
   10DOPE   C31 1192   1.894   5.740  10.555 -0.4005  0.2020 -0.2008
   10DOPE   O32 1193   1.789   5.780  10.603  0.1103 -0.2940  0.0269
   10DOPE   C32 1194   1.956   5.791  10.426  0.0136  0.5978  0.3992
   10DOPE   H2X 1195   1.920   5.895  10.415  0.0575  0.7707  1.7602
   10DOPE   H2Y 1196   2.063   5.787  10.454  0.0357 -0.4722  0.2144
   10DOPE   C23 1197   1.837   5.151  10.287 -0.2417  0.1828 -0.1231
   10DOPE   H3R 1198   1.730   5.130  10.267  0.3930 -2.8887 -0.8241
   10DOPE   H3S 1199   1.869   5.045  10.295  1.4025  0.7171  0.7557
   10DOPE   C24 1200   1.901   5.217  10.169 -0.3920  0.1022 -0.1525
   10DOPE   H4R 1201   2.012   5.212  10.170 -0.4332 -1.5500  1.2408
   10DOPE   H4S 1202   1.860   5.320  10.172 -1.6674 -0.4041  0.7702
   10DOPE   C25 1203   1.861   5.158  10.034  0.2149 -0.3733  0.4080
   10DOPE   H5R 1204   1.753   5.133  10.036 -0.5616  2.5307 -0.4006
   10DOPE   H5S 1205   1.908   5.060  10.011 -1.6004 -1.8591  2.5138
   10DOPE   C26 1206   1.880   5.257   9.921  0.1413 -0.4237 -1.4537
   10DOPE   H6R 1207   1.988   5.284   9.931 -0.4524  1.5242  0.4178
   10DOPE   H6S 1208   1.818   5.346   9.946 -0.1544 -1.0544  0.1762
   10DOPE   C27 1209   1.839   5.205   9.785  0.3540  0.0698  0.5181
   10DOPE   H7R 1210   1.729   5.192   9.791  0.3954  0.1318  1.6690
   10DOPE   H7S 1211   1.883   5.104   9.767 -1.8012 -0.3062 -3.8624
   10DOPE   C28 1212   1.879   5.294   9.670 -0.2049 -0.1670 -0.3841
   10DOPE   H8R 1213   1.847   5.258   9.570 -1.4844  2.0104 -0.8231
   10DOPE   H8S 1214   1.991   5.297   9.669  0.0333 -3.0221  2.1962
   10DOPE   C29 1215   1.812   5.424   9.682 -0.4554 -0.0173 -0.6154
   10DOPE   H9R 1216   1.871   5.502   9.732 -1.9827 -0.2019  1.6290
   10DOPE  C210 1217   1.684   5.460   9.640 -0.4304  0.0501 -0.5063
   10DOPE  H10R 1218   1.648   5.562   9.656 -0.4026 -0.2755  2.1924
   10DOPE  C211 1219   1.577   5.369   9.574 -0.3920 -0.4583 -0.2472
   10DOPE  H11R 1220   1.544   5.283   9.635  0.6957  0.5411  1.8507
   10DOPE  H11S 1221   1.630   5.330   9.485  1.9150 -0.7371  1.1719
   10DOPE  C212 1222   1.453   5.456   9.543  0.4646 -0.6895  0.8480
   10DOPE  H12R 1223   1.409   5.505   9.632 -1.4524  2.7276 -1.7468
   10DOPE  H12S 1224   1.367   5.395   9.506 -2.4820  2.9649  1.0646
   10DOPE  C213 1225   1.484   5.563   9.439  0.8202 -0.6717  0.2581
   10DOPE  H13R 1226   1.561   5.518   9.372  3.4923  0.7961  2.1286
   10DOPE  H13S 1227   1.525   5.655   9.486 -0.7643  0.5024 -0.5652
   10DOPE  C214 1228   1.357   5.619   9.357 -0.3508  0.4274 -0.6306
   10DOPE  H14R 1229   1.295   5.683   9.423 -0.1204  1.1150 -1.0811
   10DOPE  H14S 1230   1.295   5.539   9.312  0.4283 -0.3369 -0.3916
   10DOPE  C215 1231   1.413   5.717   9.250  0.5250 -0.0453 -0.2308
   10DOPE  H15R 1232   1.509   5.750   9.296  0.4981 -1.4791  0.9342
   10DOPE  H15S 1233   1.341   5.802   9.246  0.5929 -0.0500 -1.8349
   10DOPE  C216 1234   1.438   5.656   9.111  0.2146 -0.1071 -0.1090
   10DOPE  H16R 1235   1.480   5.554   9.126 -0.3781 -0.1986  1.0711
   10DOPE  H16S 1236   1.521   5.713   9.065  0.8479 -0.7650  0.1939
   10DOPE  C217 1237   1.316   5.655   9.020 -0.0149 -0.1922  0.0931
   10DOPE  H17R 1238   1.235   5.596   9.069 -1.2023 -1.5880 -3.2138
   10DOPE  H17S 1239   1.333   5.611   8.919 -0.2605  0.0028 -0.0331
   10DOPE  C218 1240   1.244   5.786   8.983  0.9664 -0.1438 -0.1583
   10DOPE  H18R 1241   1.319   5.856   8.940  3.7551 -2.4683  0.5959
   10DOPE  H18S 1242   1.204   5.824   9.079  0.4110  0.4033 -0.5976
   10DOPE  H18T 1243   1.156   5.759   8.920 -0.7190 -0.1117  2.0743
   10DOPE   C33 1244   1.901   5.719  10.299  0.4677  0.7847  0.5791
   10DOPE   H3X 1245   1.912   5.608  10.304  0.7889  0.8536  1.5648
   10DOPE   H3Y 1246   1.965   5.748  10.213  2.0040 -2.3980  0.4791
   10DOPE   C34 1247   1.756   5.744  10.256  0.7123 -0.0440 -0.5345
   10DOPE   H4X 1248   1.685   5.714  10.336  1.5025  0.3802  0.3563
   10DOPE   H4Y 1249   1.738   5.852  10.235  2.3534  0.3452 -0.0822
   10DOPE   C35 1250   1.715   5.655  10.138  0.2026  0.1574  0.2047
   10DOPE   H5X 1251   1.742   5.550  10.161  1.5092  0.7112  1.3254
   10DOPE   H5Y 1252   1.786   5.689  10.060 -0.9480  0.0127 -0.9531
   10DOPE   C36 1253   1.581   5.681  10.079  0.5015  0.2109 -0.3928
   10DOPE   H6X 1254   1.523   5.760  10.132  1.1918 -0.8964  2.1630
   10DOPE   H6Y 1255   1.526   5.586  10.064  2.3115 -0.4023 -4.4197
   10DOPE   C37 1256   1.601   5.724   9.937  0.7551 -0.3861  0.3334
   10DOPE   H7X 1257   1.634   5.830   9.945 -3.0508  0.9380  0.4697
   10DOPE   H7Y 1258   1.687   5.667   9.896  0.7406 -1.2405  1.4609
   10DOPE   C38 1259   1.475   5.723   9.847  0.1821  0.5389  0.2776
   10DOPE   H8X 1260   1.436   5.619   9.839 -0.5105  0.8939 -1.3361
   10DOPE   H8Y 1261   1.503   5.752   9.744 -1.5230 -1.9308 -0.9687
   10DOPE   C39 1262   1.357   5.800   9.904  0.5143 -0.3602 -0.0757
   10DOPE   H9X 1263   1.344   5.796  10.013 -2.4116  0.3678 -0.3158
   10DOPE  C310 1264   1.277   5.892   9.846  0.3748  0.0263  0.0100
   10DOPE  H10X 1265   1.187   5.935   9.892  0.1734 -0.6979  0.2953
   10DOPE  C311 1266   1.288   5.929   9.702 -0.0201 -0.9573 -0.4094
   10DOPE  H11X 1267   1.390   5.970   9.686 -0.4229  0.2168 -0.0548
   10DOPE  H11Y 1268   1.286   5.845   9.629 -1.4672  0.7528 -2.4647
   10DOPE  C312 1269   1.170   6.033   9.655 -0.4114  0.8990  0.2297
   10DOPE  H12X 1270   1.180   6.134   9.702  0.8679  2.5644 -3.2723
   10DOPE  H12Y 1271   1.068   5.994   9.674  0.8434 -1.7490  2.1476
   10DOPE  C313 1272   1.191   6.064   9.503  0.0537  0.1659 -0.1809
   10DOPE  H13X 1273   1.196   5.961   9.464 -1.3355  0.2208 -0.5534
   10DOPE  H13Y 1274   1.106   6.124   9.464  1.9954  1.8546 -2.0828
   10DOPE  C314 1275   1.306   6.153   9.452 -0.2113 -0.2697  0.0987
   10DOPE  H14X 1276   1.404   6.117   9.490  0.5724  0.2234 -1.3907
   10DOPE  H14Y 1277   1.292   6.247   9.509  0.1521  0.2522 -0.6564
   10DOPE  C315 1278   1.313   6.155   9.296 -0.2622  0.0812  0.1111
   10DOPE  H15X 1279   1.210   6.185   9.266  0.3235  1.6514 -0.4324
   10DOPE  H15Y 1280   1.329   6.046   9.279  0.7178 -0.0419  1.6077
   10DOPE  C316 1281   1.423   6.227   9.227  0.1199  0.2775  0.6473
   10DOPE  H16X 1282   1.521   6.175   9.235 -1.5826 -3.1591  1.4361
   10DOPE  H16Y 1283   1.432   6.331   9.265  0.3877  1.1103 -1.5886
   10DOPE  C317 1284   1.391   6.243   9.080  0.7408 -0.7061  0.2676
   10DOPE  H17X 1285   1.360   6.152   9.024  1.7856 -0.2882 -1.0400
   10DOPE  H17Y 1286   1.308   6.316   9.069  0.7619 -0.5732  0.9854
   10DOPE  C318 1287   1.509   6.312   9.007  0.3593  1.2160  0.1299
   10DOPE  H18X 1288   1.560   6.378   9.080 -2.3180  1.7374  1.6622
   10DOPE  H18Y 1289   1.578   6.234   8.970 -1.8837 -0.8208 -0.0465
   10DOPE  H18Z 1290   1.478   6.377   8.922  1.0921 -0.4234 -1.4664
   11DOPE     N 1291   0.650   2.438  11.516 -0.0976  0.7236  0.0754
   11DOPE   HN1 1292   0.629   2.357  11.454 -0.1596  0.6662  0.1719
   11DOPE   HN2 1293   0.650   2.403  11.613  0.9528  0.1942 -0.0987
   11DOPE   HN3 1294   0.579   2.512  11.497 -2.2617 -0.6975  2.1305
   11DOPE   C12 1295   0.786   2.486  11.469  0.3713  0.1011 -0.2142
   11DOPE  H12A 1296   0.867   2.412  11.489  0.6181  0.7213  1.2219
   11DOPE  H12B 1297   0.803   2.581  11.525 -2.4888  0.9696 -0.6703
   11DOPE   C11 1298   0.784   2.522  11.318 -0.1937  0.0451  0.0635
   11DOPE  H11A 1299   0.754   2.425  11.273  1.6521 -0.5306  0.0192
   11DOPE  H11B 1300   0.889   2.550  11.296  0.2127 -1.1135  0.4710
   11DOPE     P 1301   0.618   2.657  11.166  0.0308  0.5172 -0.1512
   11DOPE   O13 1302   0.568   2.791  11.172 -0.3206 -0.3899 -0.0197
   11DOPE   O14 1303   0.517   2.551  11.135 -0.0994  0.2477  0.4267
   11DOPE   O11 1304   0.734   2.643  11.059  0.0031  0.4558  0.5494
   11DOPE   O12 1305   0.689   2.620  11.303 -0.3208 -0.1377  0.7498
   11DOPE    C1 1306   0.823   2.748  11.038  0.0718  0.3822 -0.6121
   11DOPE    HA 1307   0.914   2.689  11.064 -1.5637 -1.3504  1.5608
   11DOPE    HB 1308   0.830   2.824  11.118  2.5212  2.6709 -2.7940
   11DOPE    C2 1309   0.828   2.806  10.898  0.5074  0.4050  0.3015
   11DOPE    HS 1310   0.727   2.843  10.869  0.6308 -0.8939 -2.0377
   11DOPE   O21 1311   0.879   2.713  10.800 -0.2118 -0.7028  0.6799
   11DOPE   C21 1312   0.826   2.723  10.684 -0.2914  0.2264  0.0713
   11DOPE   O22 1313   0.754   2.811  10.639 -0.4409  0.1091 -0.0909
   11DOPE   C22 1314   0.861   2.597  10.606  0.2098  0.2356 -0.3072
   11DOPE   H2R 1315   0.835   2.512  10.672 -2.1174  0.2633 -1.0860
   11DOPE   H2S 1316   0.969   2.593  10.584 -0.0979  0.8062 -2.1007
   11DOPE    C3 1317   0.926   2.931  10.889 -0.3332 -0.0468  0.3364
   11DOPE    HX 1318   1.020   2.876  10.909  0.2923  1.0246  0.4079
   11DOPE    HY 1319   0.893   2.997  10.973  0.3082 -1.0540  1.4060
   11DOPE   O31 1320   0.929   3.006  10.761 -0.0132  0.4330 -0.7429
   11DOPE   C31 1321   0.838   3.098  10.744 -0.0422  0.3481  0.0333
   11DOPE   O32 1322   0.751   3.131  10.829 -0.7727 -0.1584  0.0753
   11DOPE   C32 1323   0.852   3.143  10.599  0.1272 -0.0611 -0.2159
   11DOPE   H2X 1324   0.806   3.068  10.531 -1.6456 -0.6381  1.5302
   11DOPE   H2Y 1325   0.793   3.236  10.584  1.9268  1.3485  0.9839
   11DOPE   C23 1326   0.784   2.584  10.473 -0.7373  0.2497  0.0023
   11DOPE   H3R 1327   0.679   2.619  10.484 -0.2493  1.0887  2.8782
   11DOPE   H3S 1328   0.792   2.476  10.451 -2.0582  0.4666 -1.7529
   11DOPE   C24 1329   0.845   2.671  10.365 -0.6723 -0.1431  1.0354
   11DOPE   H4R 1330   0.953   2.644  10.358 -0.8765 -0.5405 -2.9374
   11DOPE   H4S 1331   0.831   2.779  10.383 -0.3752  0.2434 -0.7708
   11DOPE   C25 1332   0.788   2.623  10.228 -0.0975  0.6597 -1.1078
   11DOPE   H5R 1333   0.678   2.641  10.228 -0.4127 -1.0744  0.2055
   11DOPE   H5S 1334   0.799   2.516  10.204 -2.2583  0.6586 -2.4064
   11DOPE   C26 1335   0.853   2.690  10.113 -0.4412 -0.0754  0.0115
   11DOPE   H6R 1336   0.958   2.654  10.105 -0.2499  0.4597  0.0871
   11DOPE   H6S 1337   0.859   2.799  10.134  0.2503 -0.2656  0.8721
   11DOPE   C27 1338   0.789   2.661   9.976 -0.9823  0.9646  0.8022
   11DOPE   H7R 1339   0.703   2.729   9.961 -1.6729 -0.4692 -2.7712
   11DOPE   H7S 1340   0.762   2.556   9.951  0.4719  0.6713  0.3162
   11DOPE   C28 1341   0.897   2.697   9.866  0.1381 -0.5597  0.5096
   11DOPE   H8R 1342   0.990   2.639   9.884 -0.0708 -0.7995  0.8407
   11DOPE   H8S 1343   0.921   2.803   9.885  0.6896 -0.5713 -0.0789
   11DOPE   C29 1344   0.843   2.679   9.724  0.1626 -0.5405 -0.0897
   11DOPE   H9R 1345   0.748   2.730   9.700 -0.7556 -1.7702  0.7854
   11DOPE  C210 1346   0.909   2.623   9.622 -0.3667  0.6449  0.1662
   11DOPE  H10R 1347   0.849   2.627   9.530  0.3395 -2.8930 -0.6030
   11DOPE  C211 1348   1.048   2.555   9.621 -0.6369 -0.7061 -0.3217
   11DOPE  H11R 1349   1.043   2.446   9.644 -1.7111 -0.4044  1.0252
   11DOPE  H11S 1350   1.119   2.599   9.693  1.4092 -0.9607 -2.0986
   11DOPE  C212 1351   1.107   2.568   9.483  0.1782 -0.2756  0.2043
   11DOPE  H12R 1352   1.115   2.675   9.458  1.2697 -0.4030 -0.0521
   11DOPE  H12S 1353   1.048   2.523   9.400  0.5329  0.4905 -0.4751
   11DOPE  C213 1354   1.242   2.497   9.467 -0.4734 -0.1449  0.6621
   11DOPE  H13R 1355   1.227   2.391   9.497  0.5210 -0.4452  0.1438
   11DOPE  H13S 1356   1.305   2.546   9.545  1.1544  0.5944 -1.0315
   11DOPE  C214 1357   1.310   2.523   9.330 -0.6528  0.3429 -0.6189
   11DOPE  H14R 1358   1.417   2.492   9.323  0.3292  2.7557  1.9193
   11DOPE  H14S 1359   1.326   2.633   9.321  1.7960 -0.0113 -1.5661
   11DOPE  C215 1360   1.225   2.460   9.213  0.1697 -0.4442  0.1016
   11DOPE  H15R 1361   1.124   2.507   9.209  1.1402  1.8089  0.2860
   11DOPE  H15S 1362   1.214   2.351   9.231  0.8947 -0.9215 -2.0127
   11DOPE  C216 1363   1.290   2.481   9.070  0.5044 -0.3585  0.5038
   11DOPE  H16R 1364   1.400   2.479   9.083  0.5424  0.3047  0.3304
   11DOPE  H16S 1365   1.265   2.584   9.036 -0.0461 -0.2716  1.1533
   11DOPE  C217 1366   1.241   2.387   8.962  0.1561  0.3514  0.1776
   11DOPE  H17R 1367   1.243   2.283   9.001  0.8195  0.2692 -0.0554
   11DOPE  H17S 1368   1.324   2.381   8.889  0.6894 -0.4629  0.8272
   11DOPE  C218 1369   1.103   2.403   8.893 -0.3732  0.1438  0.3768
   11DOPE  H18R 1370   1.060   2.499   8.929  0.5262  0.0500  1.7569
   11DOPE  H18S 1371   1.046   2.312   8.920  1.7002 -0.6046  2.4628
   11DOPE  H18T 1372   1.117   2.397   8.783  1.3162  0.1539  0.5696
   11DOPE   C33 1373   0.994   3.187  10.575  0.0108  0.1350 -0.0905
   11DOPE   H3X 1374   1.068   3.105  10.592  1.4443  0.8618 -2.2940
   11DOPE   H3Y 1375   1.016   3.265  10.651  0.8089 -1.6474  1.6159
   11DOPE   C34 1376   1.034   3.235  10.434 -0.0139  0.4450  1.0144
   11DOPE   H4X 1377   0.980   3.332  10.427 -1.9794 -0.7182 -3.0267
   11DOPE   H4Y 1378   1.141   3.253  10.411 -0.3292  0.3231 -0.6869
   11DOPE   C35 1379   0.967   3.152  10.319  0.3604  0.9649  0.0819
   11DOPE   H5X 1380   0.856   3.157  10.320  0.2552  3.6387 -3.6088
   11DOPE   H5Y 1381   0.994   3.045  10.311  2.2095  1.3254  1.0078
   11DOPE   C36 1382   0.995   3.213  10.178  0.1466 -0.0529  0.3009
   11DOPE   H6X 1383   1.103   3.205  10.153  0.8999  0.2234  3.0649
   11DOPE   H6Y 1384   0.973   3.321  10.181  0.2991  0.0526 -1.6310
   11DOPE   C37 1385   0.905   3.143  10.075 -0.3236  0.3497 -0.2678
   11DOPE   H7X 1386   0.930   3.034  10.077  0.7853  0.5765 -0.8171
   11DOPE   H7Y 1387   0.803   3.148  10.119  0.7917  0.8858  2.4081
   11DOPE   C38 1388   0.924   3.209   9.939 -0.1062  1.0440  0.7863
   11DOPE   H8X 1389   1.032   3.203   9.913 -0.1136  0.2602  0.9371
   11DOPE   H8Y 1390   0.902   3.318   9.951  0.1431  1.1132  0.6265
   11DOPE   C39 1391   0.834   3.159   9.830 -0.3053  0.5341  0.4873
   11DOPE   H9X 1392   0.725   3.167   9.845 -0.6955 -2.9755  0.3495
   11DOPE  C310 1393   0.869   3.078   9.728  0.3130 -0.9603  0.3865
   11DOPE  H10X 1394   0.795   3.047   9.653  1.6057  0.4901 -1.5998
   11DOPE  C311 1395   1.007   3.028   9.708  0.1542  0.0694 -0.5394
   11DOPE  H11X 1396   1.046   3.008   9.809 -2.9835  0.8656  0.9623
   11DOPE  H11Y 1397   1.010   2.925   9.666 -1.4573  0.8070 -2.6624
   11DOPE  C312 1398   1.096   3.122   9.624 -0.5165 -0.2859 -0.4546
   11DOPE  H12X 1399   1.122   3.223   9.661  0.4500  0.1365 -2.2069
   11DOPE  H12Y 1400   1.036   3.144   9.533 -1.1904  2.7394  0.6038
   11DOPE  C313 1401   1.232   3.054   9.591 -0.1850  0.2501 -0.0061
   11DOPE  H13X 1402   1.291   3.046   9.685  1.6973 -2.1691 -1.2963
   11DOPE  H13Y 1403   1.201   2.952   9.561 -1.2788 -0.1128  2.1269
   11DOPE  C314 1404   1.309   3.131   9.478  0.7414 -0.3565 -0.2571
   11DOPE  H14X 1405   1.313   3.240   9.501 -3.3681  0.0421 -0.6120
   11DOPE  H14Y 1406   1.252   3.119   9.383 -0.9060  0.9753  0.5101
   11DOPE  C315 1407   1.460   3.092   9.477  0.2748 -0.0925  0.6715
   11DOPE  H15X 1408   1.511   3.115   9.573  2.0950  0.9349 -0.4633
   11DOPE  H15Y 1409   1.511   3.158   9.403  2.4866 -0.4857  1.7448
   11DOPE  C316 1410   1.473   2.945   9.432 -0.6474  0.2533  0.1252
   11DOPE  H16X 1411   1.410   2.925   9.343 -0.9086 -0.4705  0.4664
   11DOPE  H16Y 1412   1.427   2.894   9.519 -1.0445  0.7235  0.1939
   11DOPE  C317 1413   1.615   2.898   9.408 -0.5171 -0.1853 -0.8743
   11DOPE  H17X 1414   1.673   2.977   9.355  2.1428 -1.5674 -0.1778
   11DOPE  H17Y 1415   1.674   2.879   9.500 -0.0625 -0.9043 -1.3012
   11DOPE  C318 1416   1.624   2.778   9.317  0.1687 -0.2350  0.2421
   11DOPE  H18X 1417   1.731   2.749   9.306 -0.0175 -0.7734 -0.2114
   11DOPE  H18Y 1418   1.560   2.695   9.355 -0.9972  0.9410  0.9011
   11DOPE  H18Z 1419   1.586   2.813   9.218 -1.1841 -0.2939  0.7201
   12DOPE     N 1420   3.399   6.215  11.460  0.0789  0.0560 -0.1992
   12DOPE   HN1 1421   3.413   6.301  11.402  0.7801  1.6667  2.2058
   12DOPE   HN2 1422   3.465   6.234  11.538 -0.4576 -0.1496  0.3128
   12DOPE   HN3 1423   3.422   6.131  11.403  1.2281 -0.7272  1.3632
   12DOPE   C12 1424   3.259   6.200  11.502 -0.2996  0.2335 -0.5327
   12DOPE  H12A 1425   3.222   6.300  11.533 -0.3928  0.2025 -0.5451
   12DOPE  H12B 1426   3.253   6.127  11.585 -1.2733  2.6176  1.6168
   12DOPE   C11 1427   3.163   6.165  11.384  0.0503 -0.0066  0.4261
   12DOPE  H11A 1428   3.173   6.228  11.294 -2.4787 -0.7751 -0.4575
   12DOPE  H11B 1429   3.062   6.184  11.425 -0.8052 -2.8838 -0.0719
   12DOPE     P 1430   3.039   5.943  11.331 -0.0708  0.2207 -0.1602
   12DOPE   O13 1431   2.927   6.023  11.382 -0.5909 -0.7491  0.8383
   12DOPE   O14 1432   3.062   5.807  11.383  0.5851  0.2500  0.0375
   12DOPE   O11 1433   3.023   5.950  11.174  0.3113  0.0462 -0.1564
   12DOPE   O12 1434   3.174   6.025  11.362 -0.2967  0.2709  0.1874
   12DOPE    C1 1435   3.131   6.001  11.089 -0.0250  0.3523 -0.3569
   12DOPE    HA 1436   3.226   5.974  11.139 -1.3603  1.2644  2.9538
   12DOPE    HB 1437   3.139   6.111  11.091  1.3943  0.2676  1.8527
   12DOPE    C2 1438   3.125   5.954  10.937 -0.3063  0.2946 -0.1466
   12DOPE    HS 1439   3.223   5.973  10.890 -0.6122 -0.5285 -1.1462
   12DOPE   O21 1440   3.021   6.021  10.855  0.2630 -0.4186  0.1828
   12DOPE   C21 1441   3.050   6.144  10.813  0.7296  0.3598 -0.6133
   12DOPE   O22 1442   3.147   6.209  10.831 -0.4881 -0.0180 -0.4698
   12DOPE   C22 1443   2.917   6.202  10.762  0.1219  0.5167  0.2715
   12DOPE   H2R 1444   2.851   6.220  10.850 -1.8572  1.3792 -1.3334
   12DOPE   H2S 1445   2.883   6.120  10.695  0.1575  0.7817 -0.0707
   12DOPE    C3 1446   3.100   5.800  10.932 -0.3453  0.3622 -0.1846
   12DOPE    HX 1447   3.004   5.768  10.977 -0.2662  1.4396  0.7865
   12DOPE    HY 1448   3.174   5.745  10.993 -0.9265  1.0791  1.1985
   12DOPE   O31 1449   3.124   5.757  10.792  1.0281  0.1343  0.2197
   12DOPE   C31 1450   3.026   5.770  10.704  0.5006 -0.5795  0.3756
   12DOPE   O32 1451   2.906   5.785  10.729 -0.2032  0.0584  0.0433
   12DOPE   C32 1452   3.077   5.769  10.559  0.1976  1.0019  0.3215
   12DOPE   H2X 1453   3.089   5.660  10.544 -1.3319  0.8446  0.0905
   12DOPE   H2Y 1454   2.993   5.805  10.496 -0.0811  0.0084  0.1092
   12DOPE   C23 1455   2.937   6.328  10.672  0.5565  0.8844  0.3725
   12DOPE   H3R 1456   2.987   6.408  10.732  0.0779  1.3682  0.1348
   12DOPE   H3S 1457   2.838   6.373  10.650 -0.1702  0.1242  1.9938
   12DOPE   C24 1458   3.014   6.295  10.538 -0.0219 -0.0010  0.3523
   12DOPE   H4R 1459   2.935   6.240  10.482 -0.7585  0.0754  1.2844
   12DOPE   H4S 1460   3.096   6.224  10.565  0.7907  1.2415  1.2357
   12DOPE   C25 1461   3.052   6.412  10.456 -0.4497 -0.3211  0.4934
   12DOPE   H5R 1462   3.114   6.482  10.516 -1.6930  0.3422  1.0413
   12DOPE   H5S 1463   2.957   6.468  10.438  0.4227  1.5314  1.3885
   12DOPE   C26 1464   3.129   6.371  10.325  0.9365 -0.4136 -0.7121
   12DOPE   H6R 1465   3.058   6.306  10.270 -0.2316  0.2878 -0.0894
   12DOPE   H6S 1466   3.222   6.319  10.354  0.2808 -1.4949 -0.4829
   12DOPE   C27 1467   3.171   6.497  10.252  0.7979  0.1209 -0.9313
   12DOPE   H7R 1468   3.230   6.563  10.318 -0.5996 -0.4167  0.9330
   12DOPE   H7S 1469   3.076   6.549  10.227  0.6094 -0.2500 -1.0005
   12DOPE   C28 1470   3.269   6.466  10.140 -0.0223  0.0325 -0.3632
   12DOPE   H8R 1471   3.352   6.401  10.175  1.4285  2.2424  0.5704
   12DOPE   H8S 1472   3.322   6.558  10.107  0.8325 -0.6274 -0.8810
   12DOPE   C29 1473   3.197   6.414  10.023  0.0509 -0.6368 -0.3351
   12DOPE   H9R 1474   3.090   6.401  10.047  0.4366 -1.7333  0.9164
   12DOPE  C210 1475   3.248   6.385   9.900  0.5084 -0.3767  0.7301
   12DOPE  H10R 1476   3.187   6.354   9.814  3.4337  0.1734 -1.6723
   12DOPE  C211 1477   3.385   6.398   9.847  0.4991  0.3043 -0.1581
   12DOPE  H11R 1478   3.426   6.300   9.816 -0.3341 -0.2683  0.5291
   12DOPE  H11S 1479   3.457   6.423   9.928  1.8842 -2.5875 -0.3962
   12DOPE  C212 1480   3.390   6.509   9.742 -0.0347 -0.0509 -0.1075
   12DOPE  H12R 1481   3.494   6.523   9.705  0.3879  0.3420  1.1427
   12DOPE  H12S 1482   3.368   6.605   9.795 -1.3492 -0.9783  1.0858
   12DOPE  C213 1483   3.302   6.492   9.616 -0.4802  0.1558 -0.2518
   12DOPE  H13R 1484   3.327   6.575   9.547 -0.2923  0.6319  0.3841
   12DOPE  H13S 1485   3.194   6.511   9.634 -0.4451  0.5634 -0.4783
   12DOPE  C214 1486   3.324   6.363   9.528 -0.1346 -0.3305 -0.3147
   12DOPE  H14R 1487   3.330   6.285   9.606  2.3869 -0.5822 -0.6950
   12DOPE  H14S 1488   3.428   6.375   9.491 -0.2573  0.5197 -0.4055
   12DOPE  C215 1489   3.222   6.336   9.418  0.2617 -0.1014  0.0214
   12DOPE  H15R 1490   3.216   6.430   9.359 -0.5769 -0.7471 -0.9650
   12DOPE  H15S 1491   3.119   6.311   9.451  0.4363 -0.2640  0.4518
   12DOPE  C216 1492   3.271   6.222   9.327 -0.2515  0.4592 -0.1691
   12DOPE  H16R 1493   3.266   6.124   9.377  1.2036  0.6092  0.3243
   12DOPE  H16S 1494   3.377   6.236   9.297 -0.0799 -1.5272 -0.5768
   12DOPE  C217 1495   3.179   6.219   9.201 -0.4567  0.3338  0.0384
   12DOPE  H17R 1496   3.149   6.322   9.172 -0.6410  0.4569  0.6578
   12DOPE  H17S 1497   3.085   6.160   9.216 -0.9288  0.3189 -2.5308
   12DOPE  C218 1498   3.251   6.147   9.095 -0.2403  0.0406 -0.7834
   12DOPE  H18R 1499   3.359   6.170   9.082 -0.0897  0.0618  0.3751
   12DOPE  H18S 1500   3.198   6.151   8.998 -0.1820 -1.6442 -0.9241
   12DOPE  H18T 1501   3.240   6.037   9.111  0.1227 -0.0225 -0.9481
   12DOPE   C33 1502   3.203   5.855  10.527 -0.0574 -0.1604  0.4222
   12DOPE   H3X 1503   3.284   5.814  10.592  0.7634  1.9518  0.8035
   12DOPE   H3Y 1504   3.182   5.958  10.563  0.9879 -0.0134  0.6383
   12DOPE   C34 1505   3.226   5.849  10.370 -0.1492 -0.0101 -0.0968
   12DOPE   H4X 1506   3.294   5.762  10.365 -1.0227 -0.7844  1.0908
   12DOPE   H4Y 1507   3.127   5.826  10.324  0.0244 -0.5787 -0.1882
   12DOPE   C35 1508   3.292   5.977  10.307  0.7161  0.6045  0.1346
   12DOPE   H5X 1509   3.383   5.997  10.367  2.2274  0.3172 -1.9634
   12DOPE   H5Y 1510   3.225   6.064  10.320 -0.9117 -0.2768 -1.8462
   12DOPE   C36 1511   3.348   5.964  10.165  0.0197 -0.0226 -0.0901
   12DOPE   H6X 1512   3.269   5.937  10.093  0.1247 -0.9182  0.1232
   12DOPE   H6Y 1513   3.417   5.877  10.163 -0.2082 -0.1943 -1.5994
   12DOPE   C37 1514   3.411   6.093  10.115  0.5763 -0.5219  0.3282
   12DOPE   H7X 1515   3.444   6.080  10.010  1.4869 -0.3942  0.5951
   12DOPE   H7Y 1516   3.325   6.163  10.113  1.0816  0.1023  0.0152
   12DOPE   C38 1517   3.522   6.157  10.193  0.2837  0.0720  0.0937
   12DOPE   H8X 1518   3.573   6.074  10.248 -1.1049 -1.4358 -0.8101
   12DOPE   H8Y 1519   3.459   6.210  10.267 -1.9895 -1.7185 -0.4506
   12DOPE   C39 1520   3.622   6.234  10.110 -0.1764 -0.2505 -0.6982
   12DOPE   H9X 1521   3.674   6.175  10.034  0.7375  2.7215 -2.5575
   12DOPE  C310 1522   3.665   6.365  10.130  0.3131 -0.0466  0.2875
   12DOPE  H10X 1523   3.745   6.407  10.068  1.9407  0.1395  2.3848
   12DOPE  C311 1524   3.621   6.474  10.221 -0.2570  0.2115 -0.0919
   12DOPE  H11X 1525   3.605   6.573  10.173  1.6986  1.1692  1.0924
   12DOPE  H11Y 1526   3.528   6.446  10.275 -0.3121 -1.7424 -1.1174
   12DOPE  C312 1527   3.736   6.490  10.326  0.1132  0.2585  0.9525
   12DOPE  H12X 1528   3.839   6.494  10.284  0.5099 -1.6264  1.6327
   12DOPE  H12Y 1529   3.736   6.398  10.388  2.9720  0.3053  1.1552
   12DOPE  C313 1530   3.715   6.601  10.434 -0.6166  1.0652  0.9003
   12DOPE  H13X 1531   3.722   6.696  10.377  0.0655  1.3007  1.3639
   12DOPE  H13Y 1532   3.616   6.587  10.483 -1.3824 -1.7599 -1.2334
   12DOPE  C314 1533   3.820   6.601  10.546 -0.0261 -0.1329  0.2719
   12DOPE  H14X 1534   3.920   6.579  10.504  0.4181  2.1561 -0.0250
   12DOPE  H14Y 1535   3.789   6.520  10.615 -1.4778  0.3054  0.1703
   12DOPE  C315 1536   3.808   6.738  10.617 -0.9980  0.7715 -0.0485
   12DOPE  H15X 1537   3.844   6.722  10.721 -1.1638  1.4557  0.1169
   12DOPE  H15Y 1538   3.702   6.771  10.622 -1.1732  0.0496  1.9242
   12DOPE  C316 1539   3.904   6.842  10.565 -0.3946 -0.2628  0.6322
   12DOPE  H16X 1540   3.887   6.873  10.460  0.6040  1.8778  1.0393
   12DOPE  H16Y 1541   4.006   6.802  10.581 -0.0560  0.1476 -0.4466
   12DOPE  C317 1542   3.901   6.971  10.653 -0.1475 -0.3248 -0.1024
   12DOPE  H17X 1543   3.941   6.931  10.749  2.1436  0.8141 -0.4958
   12DOPE  H17Y 1544   3.981   7.039  10.616 -0.2077 -1.5464 -2.7361
   12DOPE  C318 1545   3.763   7.033  10.652  0.0809 -0.7215  0.3587
   12DOPE  H18X 1546   3.716   7.034  10.551  1.3038  3.2255 -0.3371
   12DOPE  H18Y 1547   3.687   6.975  10.710  0.5843 -0.0471  1.7374
   12DOPE  H18Z 1548   3.751   7.133  10.699 -2.9241 -1.3295  1.1538
   13DOPE     N 1549   3.078   0.136  11.173 -0.7958  0.0969  0.5598
   13DOPE   HN1 1550   3.005   0.173  11.108  0.7432  0.1424 -1.2395
   13DOPE   HN2 1551   3.162   0.138  11.112 -1.2897 -0.3765 -0.1450
   13DOPE   HN3 1552   3.052   0.039  11.198 -0.8170  0.0594  0.3922
   13DOPE   C12 1553   3.092   0.242  11.278 -0.1347  0.1982  0.6684
   13DOPE  H12A 1554   3.140   0.321  11.216  0.7940 -0.1854  0.8712
   13DOPE  H12B 1555   3.167   0.218  11.357 -0.3245 -0.6944  0.5804
   13DOPE   C11 1556   2.955   0.284  11.324 -0.2729  0.3667 -0.6213
   13DOPE  H11A 1557   2.970   0.328  11.424  1.5628 -1.2134 -0.1374
   13DOPE  H11B 1558   2.888   0.196  11.334 -1.9558  1.4151 -2.0008
   13DOPE     P 1559   2.846   0.523  11.279 -0.4423 -0.0006  0.0159
   13DOPE   O13 1560   2.961   0.608  11.326 -0.0454  0.3099 -0.1734
   13DOPE   O14 1561   2.741   0.495  11.377  0.6311  0.3007  0.0880
   13DOPE   O11 1562   2.778   0.583  11.151  0.2511 -0.1412  0.3277
   13DOPE   O12 1563   2.897   0.376  11.229 -0.2724 -0.5117  0.2992
   13DOPE    C1 1564   2.759   0.507  11.026  0.0859  0.2570 -0.9310
   13DOPE    HA 1565   2.653   0.527  10.998 -1.3401 -1.6857  2.4018
   13DOPE    HB 1566   2.752   0.398  11.046 -0.6825  0.3680 -0.5384
   13DOPE    C2 1567   2.864   0.530  10.917  0.1997 -0.0040 -0.5456
   13DOPE    HS 1568   2.944   0.457  10.939  1.0879  0.4331 -2.1638
   13DOPE   O21 1569   2.908   0.667  10.929  0.8649  0.2255 -0.4018
   13DOPE   C21 1570   3.028   0.697  10.870 -0.6257  0.3132  0.3749
   13DOPE   O22 1571   3.099   0.611  10.823  0.2333  0.7953  0.0414
   13DOPE   C22 1572   3.061   0.847  10.891  0.3527 -0.1673  0.2946
   13DOPE   H2R 1573   3.171   0.848  10.904  0.5296 -0.4342 -1.0303
   13DOPE   H2S 1574   2.999   0.879  10.978 -1.3422  0.5282 -1.0983
   13DOPE    C3 1575   2.789   0.508  10.778 -0.0840  0.1700  0.4623
   13DOPE    HX 1576   2.710   0.584  10.755 -0.3989  0.1382  1.3900
   13DOPE    HY 1577   2.737   0.411  10.795  0.5039  0.2245  2.8673
   13DOPE   O31 1578   2.870   0.500  10.663  0.4461  0.3675 -0.3590
   13DOPE   C31 1579   2.936   0.387  10.644  0.1834  0.1866  0.4341
   13DOPE   O32 1580   2.929   0.286  10.707 -0.2936 -0.0643 -0.2958
   13DOPE   C32 1581   3.047   0.401  10.545  0.5763  0.1402  0.1415
   13DOPE   H2X 1582   3.110   0.487  10.576  0.3909  0.4880 -0.4221
   13DOPE   H2Y 1583   3.108   0.309  10.553 -0.5520 -0.6829 -0.3744
   13DOPE   C23 1584   3.023   0.934  10.772  0.7958  0.1301  0.5590
   13DOPE   H3R 1585   2.968   0.867  10.702 -1.7327  1.0540  1.5576
   13DOPE   H3S 1586   3.116   0.969  10.722 -0.6163  1.6294 -1.1792
   13DOPE   C24 1587   2.948   1.062  10.794 -0.5094  0.0621 -0.8490
   13DOPE   H4R 1588   2.990   1.129  10.872 -0.4667 -0.6124 -0.2920
   13DOPE   H4S 1589   2.848   1.030  10.828  0.1043  0.1997  1.2028
   13DOPE   C25 1590   2.924   1.142  10.662  0.3458 -0.1258 -0.2817
   13DOPE   H5R 1591   2.886   1.082  10.578  1.3623 -1.2126  0.0104
   13DOPE   H5S 1592   3.020   1.183  10.624 -0.6078  2.2909 -0.3014
   13DOPE   C26 1593   2.834   1.273  10.679  0.2396 -0.2622 -0.2143
   13DOPE   H6R 1594   2.848   1.334  10.588 -1.4941  0.6236  0.0770
   13DOPE   H6S 1595   2.869   1.329  10.769 -1.0571  0.4061 -0.1107
   13DOPE   C27 1596   2.685   1.241  10.714 -0.2837 -0.0064  0.2204
   13DOPE   H7R 1597   2.677   1.178  10.805 -0.5383 -0.1475  0.0990
   13DOPE   H7S 1598   2.648   1.192  10.622 -0.4911 -1.6909  1.1734
   13DOPE   C28 1599   2.614   1.374  10.733 -0.7381 -0.2424 -0.0803
   13DOPE   H8R 1600   2.643   1.447  10.654 -1.2152 -0.6609 -0.6389
   13DOPE   H8S 1601   2.650   1.414  10.831  0.4424 -1.7046  0.1200
   13DOPE   C29 1602   2.469   1.341  10.733  0.5495 -0.0437 -0.5488
   13DOPE   H9R 1603   2.419   1.311  10.826  1.3603  1.2328  0.3350
   13DOPE  C210 1604   2.397   1.334  10.617 -0.8345 -0.9655 -0.3819
   13DOPE  H10R 1605   2.290   1.310  10.624 -0.9208 -0.1715  1.8166
   13DOPE  C211 1606   2.444   1.364  10.475 -0.6007 -0.0858 -0.9349
   13DOPE  H11R 1607   2.549   1.332  10.459 -0.7030 -0.1334 -1.5238
   13DOPE  H11S 1608   2.428   1.473  10.467  0.1544  0.0512 -0.6208
   13DOPE  C212 1609   2.357   1.287  10.377  0.6126 -0.8636  0.4405
   13DOPE  H12R 1610   2.248   1.290  10.399  0.5760  0.2098  0.1946
   13DOPE  H12S 1611   2.372   1.177  10.380  1.8169 -0.6946  2.0498
   13DOPE  C213 1612   2.374   1.337  10.224 -0.2061 -0.5920 -0.0533
   13DOPE  H13R 1613   2.481   1.323  10.196 -0.1084 -0.4156  0.2287
   13DOPE  H13S 1614   2.353   1.446  10.229  4.0723  0.3978  0.3926
   13DOPE  C214 1615   2.281   1.262  10.125  0.1053  0.7003 -0.7696
   13DOPE  H14R 1616   2.179   1.307  10.134  0.6256  1.5402  1.6844
   13DOPE  H14S 1617   2.268   1.154  10.148  0.5936  0.7342 -0.3088
   13DOPE  C215 1618   2.331   1.264   9.982 -0.6619 -0.5252  0.0082
   13DOPE  H15R 1619   2.436   1.237   9.957 -0.8040 -1.4199  0.3365
   13DOPE  H15S 1620   2.326   1.370   9.948 -0.0065  0.0659  1.6890
   13DOPE  C216 1621   2.239   1.185   9.887  1.1670  0.5808  0.3216
   13DOPE  H16R 1622   2.137   1.228   9.898  0.7429  0.2919 -2.0103
   13DOPE  H16S 1623   2.234   1.080   9.921  1.5723  0.0998 -1.0515
   13DOPE  C217 1624   2.280   1.187   9.737  0.1372 -0.0048 -0.2118
   13DOPE  H17R 1625   2.387   1.156   9.740  0.9012  2.4597  0.3009
   13DOPE  H17S 1626   2.269   1.287   9.689  0.8547  0.4250  0.4962
   13DOPE  C218 1627   2.194   1.089   9.667  0.0607  0.1127  0.1734
   13DOPE  H18R 1628   2.184   1.118   9.560 -0.2793 -0.3490  0.0742
   13DOPE  H18S 1629   2.088   1.094   9.701 -0.4082 -0.9440 -1.0402
   13DOPE  H18T 1630   2.238   0.987   9.672  0.8779  0.3917 -1.0093
   13DOPE   C33 1631   3.002   0.426  10.396  0.0095  0.0096 -0.0302
   13DOPE   H3X 1632   3.077   0.478  10.332  0.2971 -1.8638 -1.2884
   13DOPE   H3Y 1633   2.908   0.485  10.396  0.3262  0.5571 -1.3785
   13DOPE   C34 1634   2.966   0.288  10.338  0.1543  0.1728  0.1135
   13DOPE   H4X 1635   3.068   0.251  10.312  0.0785 -0.5128  0.7784
   13DOPE   H4Y 1636   2.912   0.221  10.409  2.2587 -0.2766  1.3716
   13DOPE   C35 1637   2.885   0.292  10.210  0.2803  0.7567  0.4278
   13DOPE   H5X 1638   2.808   0.371  10.218  0.4508  0.9561  0.0802
   13DOPE   H5Y 1639   2.843   0.192  10.185  0.7360 -0.3180  3.4471
   13DOPE   C36 1640   2.976   0.335  10.090  0.2287  0.8404  0.4929
   13DOPE   H6X 1641   3.076   0.287  10.085  0.5950  1.6706 -1.5258
   13DOPE   H6Y 1642   2.992   0.445  10.102  0.0528  0.7320  1.8591
   13DOPE   C37 1643   2.906   0.309   9.956  0.3310  0.5195 -0.1970
   13DOPE   H7X 1644   2.979   0.358   9.888  0.8679  1.6158  1.1125
   13DOPE   H7Y 1645   2.912   0.202   9.926 -0.2367  0.3309  0.3332
   13DOPE   C38 1646   2.767   0.372   9.946  0.3494 -0.2158 -0.1351
   13DOPE   H8X 1647   2.762   0.480   9.970 -3.5208  0.4081 -2.8927
   13DOPE   H8Y 1648   2.688   0.324  10.007  0.3303 -0.0699 -0.0467
   13DOPE   C39 1649   2.728   0.362   9.798  0.1868 -0.0888 -0.1016
   13DOPE   H9X 1650   2.787   0.426   9.732  0.8586 -0.8378 -0.2315
   13DOPE  C310 1651   2.648   0.266   9.746  0.3633  0.4486  0.5295
   13DOPE  H10X 1652   2.629   0.273   9.638 -0.9895 -1.9960  0.5413
   13DOPE  C311 1653   2.575   0.145   9.807 -0.1642  0.3689  0.2211
   13DOPE  H11X 1654   2.586   0.125   9.916  1.4125 -0.7694 -0.1071
   13DOPE  H11Y 1655   2.466   0.168   9.802  0.1134  1.5454 -1.3235
   13DOPE  C312 1656   2.594   0.019   9.717 -0.0989 -0.2860 -0.3889
   13DOPE  H12X 1657   2.557   0.029   9.613  0.2926 -0.2497 -0.5269
   13DOPE  H12Y 1658   2.537  -0.063   9.766 -0.0053  1.0765  2.1765
   13DOPE  C313 1659   2.737  -0.035   9.710 -0.5299  0.0051  0.0837
   13DOPE  H13X 1660   2.794   0.037   9.648  0.1642  1.4967  2.3322
   13DOPE  H13Y 1661   2.781  -0.056   9.810  0.0161 -2.4832 -0.6135
   13DOPE  C314 1662   2.727  -0.179   9.642 -0.0821  0.2055  0.0332
   13DOPE  H14X 1663   2.645  -0.237   9.690  1.3177 -2.0626 -0.1774
   13DOPE  H14Y 1664   2.824  -0.231   9.649 -0.6195 -1.0214 -1.2741
   13DOPE  C315 1665   2.702  -0.172   9.495  0.7000 -0.0156 -0.1787
   13DOPE  H15X 1666   2.780  -0.107   9.449  0.7685  1.2150  1.5924
   13DOPE  H15Y 1667   2.610  -0.115   9.469 -0.6612 -1.7300  0.6927
   13DOPE  C316 1668   2.699  -0.309   9.426  0.1383 -0.3906  0.1090
   13DOPE  H16X 1669   2.799  -0.357   9.432  0.3480  0.1966  1.5988
   13DOPE  H16Y 1670   2.669  -0.300   9.319  1.0529  0.9987 -0.0522
   13DOPE  C317 1671   2.592  -0.400   9.484 -0.3150 -0.0968 -0.0068
   13DOPE  H17X 1672   2.619  -0.422   9.590  0.9898  3.7676  0.6385
   13DOPE  H17Y 1673   2.497  -0.343   9.476  0.1508  0.4418 -2.2745
   13DOPE  C318 1674   2.571  -0.531   9.399  0.2871  0.3574  0.2549
   13DOPE  H18X 1675   2.670  -0.578   9.378 -0.8453 -1.1352 -2.1296
   13DOPE  H18Y 1676   2.502  -0.603   9.448 -0.2516  1.4787  1.1937
   13DOPE  H18Z 1677   2.526  -0.513   9.299 -1.4485 -2.1799  0.4825
   14DOPE     N 1678   6.346   4.474  10.850  1.2679 -0.3506 -0.1399
   14DOPE   HN1 1679   6.290   4.408  10.907  1.2285 -0.6868 -0.5596
   14DOPE   HN2 1680   6.410   4.524  10.916  0.1967 -0.1220  0.7510
   14DOPE   HN3 1681   6.277   4.546  10.822  2.4609  1.8015  2.0395
   14DOPE   C12 1682   6.403   4.405  10.729  0.9835  0.3131  0.4507
   14DOPE  H12A 1683   6.467   4.476  10.672  1.6426  0.1720  1.0042
   14DOPE  H12B 1684   6.314   4.394  10.663  1.3180  0.9321 -0.1142
   14DOPE   C11 1685   6.471   4.272  10.761  0.0625  0.3320 -0.9048
   14DOPE  H11A 1686   6.536   4.232  10.681  1.1916 -0.7835  0.4990
   14DOPE  H11B 1687   6.394   4.193  10.775 -0.2248  0.7391 -0.1239
   14DOPE     P 1688   6.684   4.205  10.916  0.3787 -0.3972  0.0438
   14DOPE   O13 1689   6.645   4.120  11.031 -0.3183 -0.3414  0.8843
   14DOPE   O14 1690   6.794   4.300  10.947 -0.6797 -0.0208 -0.2766
   14DOPE   O11 1691   6.719   4.116  10.786 -0.1563 -0.0666  0.5330
   14DOPE   O12 1692   6.548   4.282  10.886 -0.2933 -0.3445  0.3118
   14DOPE    C1 1693   6.678   3.980  10.775 -0.2608 -0.1916  0.2095
   14DOPE    HA 1694   6.624   3.956  10.680 -0.6120 -0.4868  0.4803
   14DOPE    HB 1695   6.605   3.940  10.849  0.0760 -2.0158 -0.3994
   14DOPE    C2 1696   6.799   3.889  10.795 -0.3044  0.6745 -0.8118
   14DOPE    HS 1697   6.851   3.912  10.891 -2.2527 -0.9940  0.7683
   14DOPE   O21 1698   6.878   3.881  10.676 -0.2063 -0.5418 -0.0813
   14DOPE   C21 1699   6.978   3.976  10.665 -0.0958 -0.1784 -0.1184
   14DOPE   O22 1700   7.005   4.057  10.751 -0.2506 -0.2115  0.0420
   14DOPE   C22 1701   7.058   3.955  10.536 -0.2446 -0.2453  0.1453
   14DOPE   H2R 1702   7.084   3.847  10.533  0.4509 -0.1044  0.9265
   14DOPE   H2S 1703   7.160   3.999  10.539  0.6854 -2.1932 -1.1139
   14DOPE    C3 1704   6.745   3.742  10.825 -0.3275 -0.0649  0.4737
   14DOPE    HX 1705   6.713   3.741  10.931  1.0005 -1.7204  0.9019
   14DOPE    HY 1706   6.825   3.666  10.819  0.4555  0.5061  2.7507
   14DOPE   O31 1707   6.633   3.711  10.738  0.1955 -0.0911 -0.0718
   14DOPE   C31 1708   6.575   3.590  10.760  0.7844 -0.0756  0.9342
   14DOPE   O32 1709   6.591   3.523  10.860 -0.0426 -0.3250  0.4204
   14DOPE   C32 1710   6.477   3.556  10.655 -0.7279 -0.0655 -0.3475
   14DOPE   H2X 1711   6.417   3.466  10.682 -0.5781  0.4567  2.0125
   14DOPE   H2Y 1712   6.412   3.643  10.633  0.9048  1.3258  0.0605
   14DOPE   C23 1713   6.982   4.020  10.412  0.5437 -0.1306 -0.0369
   14DOPE   H3R 1714   6.962   4.129  10.423  1.1332  0.1549 -1.5275
   14DOPE   H3S 1715   6.880   3.980  10.393  0.1590  1.4203 -1.4591
   14DOPE   C24 1716   7.061   4.016  10.280  0.2095  0.0800  0.1044
   14DOPE   H4R 1717   7.083   3.911  10.254  1.2053 -0.4020  2.6942
   14DOPE   H4S 1718   7.161   4.063  10.293 -0.2635  0.8814  0.9677
   14DOPE   C25 1719   6.976   4.107  10.183 -0.0174 -0.4410  0.7597
   14DOPE   H5R 1720   6.994   4.209  10.222  1.8456 -0.6412  0.4845
   14DOPE   H5S 1721   6.871   4.075  10.166 -0.4197  1.8434 -1.7672
   14DOPE   C26 1722   7.033   4.102  10.039  0.7273 -0.0400  0.5208
   14DOPE   H6R 1723   7.032   3.995  10.008  3.0483 -0.5657  2.0088
   14DOPE   H6S 1724   7.142   4.124  10.047  0.0952  3.2570  1.7767
   14DOPE   C27 1725   6.952   4.197   9.957 -0.3475 -0.4534 -0.3418
   14DOPE   H7R 1726   6.979   4.298   9.995  0.1465 -1.1058  1.1314
   14DOPE   H7S 1727   6.843   4.182   9.973 -0.0361 -2.1236  0.3994
   14DOPE   C28 1728   6.997   4.193   9.809 -0.0026  0.5624  0.1933
   14DOPE   H8R 1729   6.997   4.090   9.767 -0.3623  0.8011 -0.3957
   14DOPE   H8S 1730   7.105   4.218   9.798  0.2394 -0.6969 -0.5405
   14DOPE   C29 1731   6.901   4.290   9.743  1.8717  0.5224 -0.0498
   14DOPE   H9R 1732   6.922   4.397   9.749 -2.4979  1.5607  0.5970
   14DOPE  C210 1733   6.781   4.250   9.688  0.1398 -0.0000  0.1550
   14DOPE  H10R 1734   6.717   4.319   9.631 -3.0235 -1.5705  1.5413
   14DOPE  C211 1735   6.737   4.106   9.677 -0.2617  0.5860  0.5271
   14DOPE  H11R 1736   6.749   4.050   9.772  0.6255  0.8160  0.5652
   14DOPE  H11S 1737   6.803   4.058   9.601 -0.9726 -0.5394  0.5936
   14DOPE  C212 1738   6.592   4.099   9.619  0.0315 -0.8695  0.5491
   14DOPE  H12R 1739   6.517   4.141   9.689  0.5167  2.0305 -0.5125
   14DOPE  H12S 1740   6.579   3.991   9.600 -2.6924 -0.7858  1.5558
   14DOPE  C213 1741   6.555   4.172   9.490 -0.2765 -0.2218 -0.3242
   14DOPE  H13R 1742   6.647   4.218   9.446  1.0814 -2.1610  0.3720
   14DOPE  H13S 1743   6.504   4.266   9.521  0.2680  0.6844 -1.9884
   14DOPE  C214 1744   6.484   4.091   9.385  0.4892 -0.0593 -0.1203
   14DOPE  H14R 1745   6.468   4.168   9.306 -0.1406  0.4215  0.4598
   14DOPE  H14S 1746   6.385   4.052   9.417  0.6858 -1.0819 -0.7271
   14DOPE  C215 1747   6.573   3.976   9.325 -0.3731 -0.5871 -0.3188
   14DOPE  H15R 1748   6.594   3.903   9.405  0.5266  2.2541  2.2243
   14DOPE  H15S 1749   6.663   4.029   9.285 -0.9838 -0.7230 -1.9711
   14DOPE  C216 1750   6.501   3.904   9.211 -0.1751  0.2555  0.4597
   14DOPE  H16R 1751   6.502   3.968   9.120  1.2360 -0.2155  0.1202
   14DOPE  H16S 1752   6.393   3.890   9.236 -0.0662  0.4742  1.0574
   14DOPE  C217 1753   6.559   3.765   9.186  0.2557 -0.2481 -0.9444
   14DOPE  H17R 1754   6.554   3.703   9.278  1.8774  2.3866  1.0571
   14DOPE  H17S 1755   6.667   3.780   9.164  0.9885 -1.3071  1.5781
   14DOPE  C218 1756   6.498   3.701   9.063  0.1751  0.0424 -0.1650
   14DOPE  H18R 1757   6.513   3.757   8.968 -0.4538  1.6290  0.6449
   14DOPE  H18S 1758   6.391   3.681   9.084  1.0183 -2.9576  2.0524
   14DOPE  H18T 1759   6.545   3.603   9.038  1.6034  0.6466  0.0177
   14DOPE   C33 1760   6.552   3.537  10.519 -0.3654 -0.4964 -0.2899
   14DOPE   H3X 1761   6.626   3.455  10.526 -0.4627 -0.5270  0.5899
   14DOPE   H3Y 1762   6.604   3.630  10.488 -2.4462  1.1820  0.9222
   14DOPE   C34 1763   6.456   3.504  10.409 -0.3181  0.1688  0.6021
   14DOPE   H4X 1764   6.402   3.409  10.431 -0.2444 -0.0104  0.0396
   14DOPE   H4Y 1765   6.380   3.583  10.390 -2.4201 -2.0381 -0.8260
   14DOPE   C35 1766   6.543   3.480  10.288 -0.1181  0.6807  0.1476
   14DOPE   H5X 1767   6.613   3.397  10.311  0.2871  0.9520 -0.0978
   14DOPE   H5Y 1768   6.612   3.565  10.271  2.8294 -1.5323  0.2987
   14DOPE   C36 1769   6.473   3.438  10.164  0.8762  0.1452 -0.1128
   14DOPE   H6X 1770   6.554   3.418  10.090 -0.1001 -0.9645 -0.9299
   14DOPE   H6Y 1771   6.414   3.524  10.125 -0.8671 -0.7267  0.4871
   14DOPE   C37 1772   6.382   3.310  10.186  0.0110 -0.7014 -0.2175
   14DOPE   H7X 1773   6.439   3.242  10.253 -2.5605 -2.6484  0.1657
   14DOPE   H7Y 1774   6.292   3.335  10.246  0.5429 -1.3959  0.9071
   14DOPE   C38 1775   6.339   3.232  10.055  0.1441  0.2091  0.5000
   14DOPE   H8X 1776   6.274   3.146  10.080  0.5142 -0.7749 -1.7419
   14DOPE   H8Y 1777   6.423   3.203   9.989  0.1753  1.4389 -0.0356
   14DOPE   C39 1778   6.263   3.335   9.962 -0.0152  0.1154  0.4330
   14DOPE   H9X 1779   6.246   3.435  10.003  0.4089  0.7268 -0.8240
   14DOPE  C310 1780   6.225   3.305   9.833  0.4685 -0.3208 -0.6241
   14DOPE  H10X 1781   6.174   3.375   9.766 -0.0988  1.4967  1.5846
   14DOPE  C311 1782   6.244   3.166   9.775 -0.0786 -0.1569 -0.1587
   14DOPE  H11X 1783   6.326   3.160   9.701  1.3655  1.3778  1.2397
   14DOPE  H11Y 1784   6.288   3.092   9.845  0.8094 -0.1218 -0.6644
   14DOPE  C312 1785   6.113   3.112   9.715  0.1571 -0.1197 -0.6034
   14DOPE  H12X 1786   6.028   3.128   9.784 -0.2830  2.6277 -1.6402
   14DOPE  H12Y 1787   6.127   3.003   9.698  1.5613  0.2840 -2.4285
   14DOPE  C313 1788   6.084   3.174   9.582 -0.3923 -0.0890 -0.1174
   14DOPE  H13X 1789   6.034   3.270   9.606 -0.4768 -0.2287  0.2794
   14DOPE  H13Y 1790   6.179   3.200   9.531  0.0520 -0.2809  0.5915
   14DOPE  C314 1791   5.996   3.088   9.484 -1.0711  0.4035 -0.2735
   14DOPE  H14X 1792   5.907   3.055   9.541 -0.0078 -3.7498 -0.7203
   14DOPE  H14Y 1793   6.049   2.992   9.473  0.3696  1.3044 -1.5662
   14DOPE  C315 1794   5.968   3.157   9.347 -0.1313 -0.1754  0.0074
   14DOPE  H15X 1795   6.066   3.197   9.311  0.0925  1.7653  2.4674
   14DOPE  H15Y 1796   5.916   3.254   9.361  0.7988  0.4020 -0.3726
   14DOPE  C316 1797   5.894   3.062   9.253  0.2675  0.1855 -0.7135
   14DOPE  H16X 1798   5.795   3.049   9.302 -0.4724  1.5232 -1.7731
   14DOPE  H16Y 1799   5.936   2.961   9.237  0.0517  0.1344 -0.9750
   14DOPE  C317 1800   5.861   3.122   9.118  0.3508  0.7411 -0.0318
   14DOPE  H17X 1801   5.835   3.230   9.116  1.3980  1.0202 -2.8241
   14DOPE  H17Y 1802   5.956   3.136   9.062 -0.4397  1.3701 -1.2622
   14DOPE  C318 1803   5.772   3.043   9.022  0.8991  0.7898  0.8580
   14DOPE  H18X 1804   5.742   3.105   8.934  2.2112  0.7065  0.3373
   14DOPE  H18Y 1805   5.835   2.961   8.981 -1.2245 -1.5458  1.9762
   14DOPE  H18Z 1806   5.688   2.992   9.073  0.5566  0.0017 -0.4422
   15DOPE     N 1807   1.448   0.917  11.287 -0.0024  0.1811 -0.3095
   15DOPE   HN1 1808   1.354   0.942  11.323 -0.0848 -0.4251 -0.1014
   15DOPE   HN2 1809   1.427   0.869  11.197 -2.6008 -0.6411  0.6289
   15DOPE   HN3 1810   1.485   0.852  11.360  0.0999 -0.3303 -0.8109
   15DOPE   C12 1811   1.509   1.054  11.263  0.2436  0.3422 -0.9779
   15DOPE  H12A 1812   1.492   1.082  11.157  2.2624 -1.2618 -1.7854
   15DOPE  H12B 1813   1.618   1.039  11.281  0.5774  1.3047 -2.0652
   15DOPE   C11 1814   1.455   1.160  11.360 -0.2861  0.0059  0.0661
   15DOPE  H11A 1815   1.520   1.250  11.353 -0.8173  0.3834 -0.0850
   15DOPE  H11B 1816   1.466   1.119  11.463  1.2367 -0.9027 -0.4205
   15DOPE     P 1817   1.261   1.328  11.356  0.3830  0.2751  0.4000
   15DOPE   O13 1818   1.333   1.422  11.268  0.6978 -0.2551 -0.7765
   15DOPE   O14 1819   1.246   1.357  11.495  0.1108  0.8292 -0.1621
   15DOPE   O11 1820   1.119   1.311  11.295  0.3071  0.1673  0.0945
   15DOPE   O12 1821   1.317   1.181  11.328 -0.0547 -0.0143 -0.6391
   15DOPE    C1 1822   1.086   1.218  11.194  0.0879  0.0336  0.0725
   15DOPE    HA 1823   0.985   1.244  11.154 -0.6566 -1.2646  1.0203
   15DOPE    HB 1824   1.064   1.117  11.234 -0.4495  1.1619  2.8295
   15DOPE    C2 1825   1.177   1.214  11.065 -0.5527  0.1990 -0.2158
   15DOPE    HS 1826   1.274   1.178  11.105 -1.6091 -0.7347  1.6424
   15DOPE   O21 1827   1.181   1.346  10.999 -0.0095 -0.2673  0.3806
   15DOPE   C21 1828   1.300   1.371  10.940 -0.3811 -0.5625  0.0309
   15DOPE   O22 1829   1.397   1.297  10.950 -0.0056 -0.1632  1.0773
   15DOPE   C22 1830   1.291   1.511  10.873  0.5133  0.4289  0.3903
   15DOPE   H2R 1831   1.247   1.579  10.948 -1.0608 -0.7394  0.5914
   15DOPE   H2S 1832   1.221   1.495  10.788 -0.4578 -1.5884  1.5064
   15DOPE    C3 1833   1.136   1.100  10.968  0.2425  0.3169 -1.0835
   15DOPE    HX 1834   1.044   1.135  10.916  1.6616 -0.0225 -4.0425
   15DOPE    HY 1835   1.102   1.010  11.022  0.8761  1.0684  0.6360
   15DOPE   O31 1836   1.230   1.058  10.861 -0.2824 -0.6052  0.1322
   15DOPE   C31 1837   1.319   0.977  10.905 -0.0726 -0.3961  0.5405
   15DOPE   O32 1838   1.341   0.949  11.023  0.0633 -0.6484  0.5338
   15DOPE   C32 1839   1.409   0.944  10.789 -0.3715 -0.3387 -0.0887
   15DOPE   H2X 1840   1.368   0.850  10.746  0.4201 -0.9282  0.4165
   15DOPE   H2Y 1841   1.418   1.029  10.718  1.2145 -0.7729 -0.4494
   15DOPE   C23 1842   1.426   1.571  10.838 -0.3782 -0.0199  0.0378
   15DOPE   H3R 1843   1.476   1.502  10.767 -0.7830  0.6701 -0.9472
   15DOPE   H3S 1844   1.484   1.589  10.932 -1.1366  0.0894  0.4927
   15DOPE   C24 1845   1.427   1.709  10.771 -0.5104 -0.4729  0.5033
   15DOPE   H4R 1846   1.441   1.793  10.841 -0.2834  1.6194 -1.8964
   15DOPE   H4S 1847   1.329   1.720  10.720 -0.2299 -1.2779 -0.2481
   15DOPE   C25 1848   1.545   1.726  10.679 -0.4201  0.0732  0.0541
   15DOPE   H5R 1849   1.593   1.629  10.653  0.4075  0.6800 -0.7328
   15DOPE   H5S 1850   1.625   1.777  10.738 -2.8038  0.5301  3.1763
   15DOPE   C26 1851   1.516   1.795  10.552  0.7048 -0.1845  0.5272
   15DOPE   H6R 1852   1.603   1.815  10.486 -0.6973 -1.2841 -1.8180
   15DOPE   H6S 1853   1.473   1.894  10.577 -1.0098 -1.4845  3.2942
   15DOPE   C27 1854   1.413   1.727  10.466 -0.0420  0.3081  0.4067
   15DOPE   H7R 1855   1.316   1.744  10.519 -0.8525 -0.0461 -0.9049
   15DOPE   H7S 1856   1.434   1.619  10.467  0.0013  0.3138  1.5178
   15DOPE   C28 1857   1.401   1.785  10.324  0.5634  0.9245 -0.1573
   15DOPE   H8R 1858   1.395   1.895  10.333 -0.8832  0.7587  1.3739
   15DOPE   H8S 1859   1.304   1.748  10.286 -0.6303  1.8283  1.8055
   15DOPE   C29 1860   1.518   1.742  10.237  0.0239  0.2036 -0.9399
   15DOPE   H9R 1861   1.616   1.791  10.245 -0.0790  0.4720 -1.2876
   15DOPE  C210 1862   1.503   1.656  10.136  0.6294  0.2080  0.6348
   15DOPE  H10R 1863   1.590   1.645  10.070  1.0337 -2.8869  1.5377
   15DOPE  C211 1864   1.381   1.585  10.095  1.0803  0.2821 -0.1627
   15DOPE  H11R 1865   1.336   1.644  10.012  0.7976 -0.9321 -0.8954
   15DOPE  H11S 1866   1.309   1.579  10.180  3.4047  1.1541  2.0111
   15DOPE  C212 1867   1.401   1.443  10.044  0.1381  0.4779  0.2883
   15DOPE  H12R 1868   1.421   1.375  10.129 -0.6441 -0.1474 -0.0201
   15DOPE  H12S 1869   1.493   1.441   9.981 -0.0604  1.9641 -0.0940
   15DOPE  C213 1870   1.286   1.387   9.964  0.3579  0.0250 -0.1238
   15DOPE  H13R 1871   1.325   1.307   9.898 -0.8700 -0.9992  0.3354
   15DOPE  H13S 1872   1.246   1.458   9.889  0.8258  0.0867 -0.3194
   15DOPE  C214 1873   1.174   1.325  10.051  0.1510  0.0417  0.0149
   15DOPE  H14R 1874   1.117   1.405  10.103 -0.0049  1.7582 -2.6157
   15DOPE  H14S 1875   1.213   1.260  10.132  0.0351 -2.0798 -1.5634
   15DOPE  C215 1876   1.076   1.255   9.957 -0.1045  0.4791 -0.7729
   15DOPE  H15R 1877   1.128   1.173   9.902 -1.4451 -2.2844  1.7801
   15DOPE  H15S 1878   1.039   1.325   9.880 -0.2574  0.8415 -0.3740
   15DOPE  C216 1879   0.953   1.198  10.029  0.9553  0.5172 -0.8193
   15DOPE  H16R 1880   0.877   1.278  10.040  0.2503 -0.3226  0.6585
   15DOPE  H16S 1881   0.978   1.144  10.123  0.7089  1.8003  0.0028
   15DOPE  C217 1882   0.870   1.105   9.940  0.4644 -0.2234 -0.4016
   15DOPE  H17R 1883   0.779   1.081   9.998  0.3921  1.3622  0.1941
   15DOPE  H17S 1884   0.920   1.006   9.929  1.0819  0.1856 -1.4018
   15DOPE  C218 1885   0.832   1.152   9.793 -0.7673 -0.0657 -0.7791
   15DOPE  H18R 1886   0.766   1.079   9.742  0.5302 -1.8529 -0.0263
   15DOPE  H18S 1887   0.924   1.163   9.731  0.1254 -0.1953  0.4705
   15DOPE  H18T 1888   0.788   1.254   9.794 -0.9087 -0.1270 -0.1878
   15DOPE   C33 1889   1.555   0.911  10.848 -0.0473 -0.3182  0.4553
   15DOPE   H3X 1890   1.624   0.856  10.780 -0.1741 -0.6178  0.5665
   15DOPE   H3Y 1891   1.560   0.861  10.947  1.2539 -0.0565  0.5385
   15DOPE   C34 1892   1.631   1.045  10.855 -0.4244  0.0903  1.2568
   15DOPE   H4X 1893   1.657   1.062  10.748  2.8457 -0.9724  1.7583
   15DOPE   H4Y 1894   1.567   1.130  10.884 -0.3255  0.3582  0.6933
   15DOPE   C35 1895   1.750   1.047  10.950  0.1087  0.2782  0.6280
   15DOPE   H5X 1896   1.807   0.954  10.927 -1.8059 -0.4291 -1.7581
   15DOPE   H5Y 1897   1.707   1.035  11.052 -1.1282  0.2384  0.1258
   15DOPE   C36 1898   1.828   1.177  10.947 -0.1518 -0.5812  0.1868
   15DOPE   H6X 1899   1.774   1.267  10.982  0.5345 -0.5933  1.3263
   15DOPE   H6Y 1900   1.860   1.195  10.842 -0.1304  0.3027  0.3397
   15DOPE   C37 1901   1.971   1.183  11.009 -0.3557 -0.3056  0.4038
   15DOPE   H7X 1902   1.957   1.204  11.117  2.0390  1.2415  0.5050
   15DOPE   H7Y 1903   2.011   1.080  10.991  0.8057  0.0735  0.7046
   15DOPE   C38 1904   2.072   1.285  10.951 -0.5625  0.4202  0.1989
   15DOPE   H8X 1905   2.102   1.246  10.851  0.3922  0.0583  0.6175
   15DOPE   H8Y 1906   2.157   1.283  11.022 -1.1999 -2.2156  1.0325
   15DOPE   C39 1907   2.029   1.423  10.935 -0.1268  0.6658 -0.2360
   15DOPE   H9X 1908   2.049   1.481  11.026 -2.8686  0.4523  0.6011
   15DOPE  C310 1909   1.978   1.497  10.832  0.0167  0.6652 -0.2039
   15DOPE  H10X 1910   1.948   1.601  10.855 -1.7379  0.2440 -0.4209
   15DOPE  C311 1911   1.937   1.443  10.700  0.5107  0.1435  0.2365
   15DOPE  H11X 1912   1.967   1.337  10.684 -1.7576 -1.0053  2.8369
   15DOPE  H11Y 1913   1.827   1.440  10.712  0.6759  0.5523  2.0851
   15DOPE  C312 1914   1.984   1.535  10.585 -0.3167 -0.4236  1.0044
   15DOPE  H12X 1915   2.095   1.535  10.591 -0.2714 -0.7453  0.2017
   15DOPE  H12Y 1916   1.956   1.641  10.603  0.0494  0.4793 -2.9404
   15DOPE  C313 1917   1.949   1.490  10.442  0.1431  0.9696 -0.3373
   15DOPE  H13X 1918   1.967   1.381  10.441  0.3011  0.9967 -0.5192
   15DOPE  H13Y 1919   1.841   1.515  10.434 -0.4542 -0.5036  2.2735
   15DOPE  C314 1920   2.030   1.563  10.331  0.4733  0.4780 -0.6393
   15DOPE  H14X 1921   2.138   1.535  10.334 -0.1484 -2.1120  0.4495
   15DOPE  H14Y 1922   2.020   1.671  10.356  1.4750  0.7554 -1.3565
   15DOPE  C315 1923   1.982   1.533  10.190  0.1190 -0.7292  0.0711
   15DOPE  H15X 1924   1.883   1.577  10.167 -0.0775 -2.3465 -2.4607
   15DOPE  H15Y 1925   1.974   1.423  10.186  0.8432 -0.8066  0.5345
   15DOPE  C316 1926   2.080   1.570  10.071  0.3386 -0.5687 -0.1203
   15DOPE  H16X 1927   2.181   1.529  10.089  0.7620 -0.4199 -1.9439
   15DOPE  H16Y 1928   2.087   1.680  10.081 -2.0905 -0.1587 -1.8597
   15DOPE  C317 1929   2.018   1.532   9.938 -0.2734 -0.4605  0.3427
   15DOPE  H17X 1930   1.991   1.425   9.933  0.1669 -0.5356 -3.5743
   15DOPE  H17Y 1931   1.921   1.585   9.939  0.2540  0.5517  2.3585
   15DOPE  C318 1932   2.104   1.566   9.811  0.2063  0.5486  0.1476
   15DOPE  H18X 1933   2.179   1.489   9.783  0.3632  0.7872 -0.0880
   15DOPE  H18Y 1934   2.034   1.581   9.726  0.9338  0.5224 -0.4554
   15DOPE  H18Z 1935   2.157   1.662   9.827  0.3440  0.1439  2.5853
   16DOPE     N 1936   0.395   2.967  11.092 -0.0904 -0.0524  0.0175
   16DOPE   HN1 1937   0.466   2.891  11.096  1.7798  1.6330  0.6171
   16DOPE   HN2 1938   0.342   2.948  11.004 -0.7354  0.2951  0.3254
   16DOPE   HN3 1939   0.452   3.053  11.084  1.0284 -0.5534  1.7988
   16DOPE   C12 1940   0.316   2.981  11.217 -0.8772 -0.5637  0.4043
   16DOPE  H12A 1941   0.357   3.071  11.268 -0.2996 -0.2138 -0.6231
   16DOPE  H12B 1942   0.332   2.890  11.279 -2.6594  0.1305  1.9578
   16DOPE   C11 1943   0.169   2.993  11.177 -0.2851 -0.1995 -0.3119
   16DOPE  H11A 1944   0.141   3.064  11.097 -1.1628  0.2450  0.3780
   16DOPE  H11B 1945   0.113   3.019  11.269 -0.7736  0.4345 -0.7860
   16DOPE     P 1946  -0.015   2.805  11.159 -0.3493  0.1708 -0.1011
   16DOPE   O13 1947  -0.105   2.917  11.120  0.6551 -0.6210  0.0378
   16DOPE   O14 1948  -0.014   2.758  11.300  0.2863  0.7700  0.5114
   16DOPE   O11 1949  -0.031   2.683  11.061  0.3256  0.0645  0.0630
   16DOPE   O12 1950   0.138   2.858  11.133 -0.1191 -0.4571  0.2015
   16DOPE    C1 1951   0.086   2.623  11.011 -0.2141  0.8830  0.3229
   16DOPE    HA 1952   0.071   2.514  10.993 -1.6102  0.9849  0.7656
   16DOPE    HB 1953   0.166   2.626  11.087  1.2283 -0.8143 -1.0322
   16DOPE    C2 1954   0.124   2.682  10.876 -0.2848 -1.0481 -0.4596
   16DOPE    HS 1955   0.146   2.790  10.891  2.0790 -1.4135 -0.9009
   16DOPE   O21 1956   0.023   2.652  10.775  0.8467 -0.3000 -0.0346
   16DOPE   C21 1957   0.018   2.736  10.674  0.6823 -0.0248  0.2868
   16DOPE   O22 1958   0.073   2.846  10.670 -0.1240 -0.5510 -0.5291
   16DOPE   C22 1959  -0.081   2.678  10.568 -0.4642 -0.3671  0.3504
   16DOPE   H2R 1960  -0.168   2.746  10.557  0.0310 -0.0880 -2.7180
   16DOPE   H2S 1961  -0.112   2.576  10.599 -1.7088 -0.3386 -0.7058
   16DOPE    C3 1962   0.268   2.639  10.842 -0.2855 -0.0938  0.2130
   16DOPE    HX 1963   0.261   2.529  10.827 -0.9751 -0.1710  1.0315
   16DOPE    HY 1964   0.331   2.665  10.930 -1.6402  0.3961  1.0794
   16DOPE   O31 1965   0.319   2.697  10.717 -0.0616  0.0244  0.1436
   16DOPE   C31 1966   0.360   2.819  10.717  0.5679  0.3732  0.2189
   16DOPE   O32 1967   0.360   2.895  10.811  0.4389  0.2580 -0.1196
   16DOPE   C32 1968   0.404   2.853  10.576  0.1007 -0.3442  0.0180
   16DOPE   H2X 1969   0.369   2.958  10.568 -0.3585 -0.5943 -1.3924
   16DOPE   H2Y 1970   0.512   2.840  10.556  0.0891 -0.6892  0.1847
   16DOPE   C23 1971  -0.011   2.657  10.430  0.1016  0.6346 -0.2536
   16DOPE   H3R 1972   0.077   2.590  10.435  1.5092  2.5002  2.0736
   16DOPE   H3S 1973   0.026   2.755  10.393  1.1062 -0.3728 -2.0445
   16DOPE   C24 1974  -0.109   2.599  10.325  0.2436 -0.3173 -0.4622
   16DOPE   H4R 1975  -0.203   2.658  10.325  1.1322  1.1507 -0.3004
   16DOPE   H4S 1976  -0.148   2.497  10.347  0.4225 -0.1387  0.7566
   16DOPE   C25 1977  -0.063   2.607  10.179 -0.7919  0.4205  0.8247
   16DOPE   H5R 1978  -0.002   2.516  10.160 -0.4724  1.3110 -3.2051
   16DOPE   H5S 1979   0.001   2.695  10.161  1.2562 -0.9514  1.0894
   16DOPE   C26 1980  -0.170   2.606  10.071  1.5420  0.8133  0.0369
   16DOPE   H6R 1981  -0.218   2.703  10.096  2.3393  0.8341  1.6664
   16DOPE   H6S 1982  -0.252   2.533  10.090  1.6183  0.7333  0.0618
   16DOPE   C27 1983  -0.124   2.606   9.925  0.0008  0.1171  0.2562
   16DOPE   H7R 1984  -0.085   2.504   9.905  0.2774  0.0471  1.0939
   16DOPE   H7S 1985  -0.036   2.673   9.926 -0.9521  1.4286 -0.8006
   16DOPE   C28 1986  -0.229   2.645   9.823  0.4502 -0.0276 -0.0902
   16DOPE   H8R 1987  -0.311   2.570   9.823  0.8680 -0.5024  0.6521
   16DOPE   H8S 1988  -0.189   2.629   9.721 -0.9918 -2.7905 -0.3325
   16DOPE   C29 1989  -0.278   2.786   9.835  0.1785  0.1176  0.0477
   16DOPE   H9R 1990  -0.197   2.859   9.846 -0.1110  0.3439  0.6809
   16DOPE  C210 1991  -0.406   2.827   9.841 -0.5889  0.6006 -0.7433
   16DOPE  H10R 1992  -0.431   2.934   9.851  0.6673  0.9594 -1.3063
   16DOPE  C211 1993  -0.524   2.731   9.830  0.6424 -0.3916  0.1168
   16DOPE  H11R 1994  -0.598   2.758   9.909  1.9197 -0.7552  1.4741
   16DOPE  H11S 1995  -0.491   2.627   9.853  2.2488 -0.6929 -3.0572
   16DOPE  C212 1996  -0.597   2.742   9.692  0.4122  0.6941  0.1918
   16DOPE  H12R 1997  -0.525   2.714   9.611 -0.7068 -3.6592  0.4745
   16DOPE  H12S 1998  -0.634   2.846   9.675  0.6053  0.9048  1.0254
   16DOPE  C213 1999  -0.728   2.654   9.686 -0.5869 -0.3103 -0.0241
   16DOPE  H13R 2000  -0.799   2.693   9.761  0.5388  1.2495  0.2746
   16DOPE  H13S 2001  -0.707   2.551   9.723 -0.0753 -0.2057 -0.0202
   16DOPE  C214 2002  -0.796   2.642   9.549  0.1084  0.0754 -0.4787
   16DOPE  H14R 2003  -0.724   2.601   9.476  0.1652 -0.4658 -0.1212
   16DOPE  H14S 2004  -0.830   2.745   9.524  2.2649  0.6497 -1.2211
   16DOPE  C215 2005  -0.924   2.554   9.558  0.5729  0.5503  0.3139
   16DOPE  H15R 2006  -0.976   2.593   9.648  1.3737  1.7470  0.2911
   16DOPE  H15S 2007  -0.900   2.447   9.572 -0.4315  0.1892 -0.6629
   16DOPE  C216 2008  -1.012   2.571   9.432  0.0251  0.5532 -0.0347
   16DOPE  H16R 2009  -1.032   2.679   9.412  1.0692  0.3047 -2.8197
   16DOPE  H16S 2010  -1.110   2.519   9.435  0.3909 -0.1145  1.0623
   16DOPE  C217 2011  -0.944   2.529   9.295  0.7678 -0.1797  0.1650
   16DOPE  H17R 2012  -0.901   2.427   9.310  1.5926 -0.1520 -1.6274
   16DOPE  H17S 2013  -0.853   2.589   9.273  2.2524 -2.2886  0.2397
   16DOPE  C218 2014  -1.053   2.516   9.184 -0.2121  0.2751  0.2758
   16DOPE  H18R 2015  -1.102   2.616   9.178  0.4896  0.5442 -2.0043
   16DOPE  H18S 2016  -1.109   2.426   9.216  1.7020 -1.2246 -0.4206
   16DOPE  H18T 2017  -1.008   2.498   9.084 -0.2985  0.9754  0.1056
   16DOPE   C33 2018   0.341   2.782  10.457  0.1740  0.3440  0.1991
   16DOPE   H3X 2019   0.231   2.777  10.470  0.0953  0.4649 -0.4276
   16DOPE   H3Y 2020   0.377   2.677  10.462 -1.6545 -0.2841  1.9456
   16DOPE   C34 2021   0.386   2.841  10.319 -0.2551 -0.3789 -0.0916
   16DOPE   H4X 2022   0.327   2.929  10.286  0.4204 -0.5628 -1.8831
   16DOPE   H4Y 2023   0.488   2.885  10.322 -1.3323  2.2701  1.5423
   16DOPE   C35 2024   0.389   2.735  10.202  0.0789  0.1711 -0.0081
   16DOPE   H5X 2025   0.288   2.690  10.195 -0.8124  2.1720 -0.7729
   16DOPE   H5Y 2026   0.461   2.660  10.241 -0.7067 -0.0219  1.1129
   16DOPE   C36 2027   0.425   2.784  10.060 -0.3239  0.0578  0.2307
   16DOPE   H6X 2028   0.522   2.838  10.055  0.6846 -1.2296  3.2434
   16DOPE   H6Y 2029   0.358   2.864  10.021 -0.5499  0.0200  0.5377
   16DOPE   C37 2030   0.420   2.676   9.949  0.1388 -0.9462 -0.1380
   16DOPE   H7X 2031   0.490   2.601   9.991  2.3031  2.0158  2.0010
   16DOPE   H7Y 2032   0.322   2.624   9.954 -0.1863 -0.3894 -0.4509
   16DOPE   C38 2033   0.452   2.740   9.813  0.1070 -0.3030  0.1427
   16DOPE   H8X 2034   0.552   2.784   9.832  0.7718 -2.3928  1.8474
   16DOPE   H8Y 2035   0.379   2.823   9.796  1.5436  0.8664 -0.6166
   16DOPE   C39 2036   0.455   2.648   9.694  0.3635 -0.8000 -0.2864
   16DOPE   H9X 2037   0.446   2.543   9.725  0.8614 -0.9963 -0.7947
   16DOPE  C310 2038   0.478   2.693   9.567 -0.0948  0.6470 -0.2132
   16DOPE  H10X 2039   0.469   2.631   9.478 -0.5933  0.7723 -0.2542
   16DOPE  C311 2040   0.490   2.835   9.522  0.1079 -0.0994 -0.6324
   16DOPE  H11X 2041   0.406   2.844   9.450  1.3293 -0.1269 -2.1103
   16DOPE  H11Y 2042   0.467   2.898   9.611 -0.5347  0.3500 -1.1057
   16DOPE  C312 2043   0.604   2.898   9.451 -0.0215  0.1064 -0.1250
   16DOPE  H12X 2044   0.685   2.930   9.520 -0.3935 -1.7020  1.2092
   16DOPE  H12Y 2045   0.569   2.999   9.419 -3.8375 -0.2856  2.2409
   16DOPE  C313 2046   0.658   2.810   9.338  0.5446 -0.6349  0.3121
   16DOPE  H13X 2047   0.708   2.723   9.387  0.5055 -1.2037 -0.6304
   16DOPE  H13Y 2048   0.571   2.783   9.274  0.8280  2.0527 -1.3163
   16DOPE  C314 2049   0.759   2.879   9.244  0.2389  0.7127 -0.2048
   16DOPE  H14X 2050   0.715   2.974   9.205 -0.1912  1.5658  2.1984
   16DOPE  H14Y 2051   0.782   2.812   9.159 -0.1908 -0.3236  0.4706
   16DOPE  C315 2052   0.899   2.913   9.306  0.6144  0.5420 -0.5833
   16DOPE  H15X 2053   0.940   2.822   9.355 -0.5619  0.0733 -0.4275
   16DOPE  H15Y 2054   0.875   2.969   9.399 -1.0621 -3.1190  1.4547
   16DOPE  C316 2055   0.988   2.998   9.214  0.1872 -0.4828 -0.0364
   16DOPE  H16X 2056   1.039   3.077   9.273  1.4473 -0.6207 -0.9024
   16DOPE  H16Y 2057   0.923   3.051   9.141 -1.5717  0.1347  1.8752
   16DOPE  C317 2058   1.105   2.923   9.146  0.2045 -0.1644  0.4551
   16DOPE  H17X 2059   1.175   2.990   9.093 -1.0374  1.3944  0.6983
   16DOPE  H17Y 2060   1.169   2.876   9.224  0.9542 -1.2719 -0.7943
   16DOPE  C318 2061   1.061   2.816   9.045  0.0941  0.3735 -0.1940
   16DOPE  H18X 2062   1.155   2.794   8.990  0.2950 -0.4551  0.4667
   16DOPE  H18Y 2063   1.030   2.729   9.107 -0.1175 -0.1207 -0.9745
   16DOPE  H18Z 2064   0.978   2.846   8.977  0.4980 -3.6801 -2.8111
   17DOPE     N 2065   2.055   5.877  11.254 -0.1097  0.5549  0.1120
   17DOPE   HN1 2066   2.088   5.844  11.161 -0.9706 -0.4582  0.1456
   17DOPE   HN2 2067   2.136   5.896  11.317 -0.6910 -1.0262  1.4239
   17DOPE   HN3 2068   1.998   5.803  11.301 -1.0749  1.5908  0.6240
   17DOPE   C12 2069   1.975   6.006  11.248 -0.1736 -0.2176 -0.0479
   17DOPE  H12A 2070   2.011   6.070  11.331 -1.7005  0.0200  0.4483
   17DOPE  H12B 2071   1.869   5.978  11.263 -0.1287 -0.6978 -0.6049
   17DOPE   C11 2072   1.982   6.063  11.103 -0.0263 -0.3878  0.1043
   17DOPE  H11A 2073   1.906   6.143  11.094  0.1491 -0.2947 -0.6338
   17DOPE  H11B 2074   1.949   5.981  11.036  0.0787 -0.4829  0.1680
   17DOPE     P 2075   2.160   6.248  11.118  0.3668  0.1129 -0.0964
   17DOPE   O13 2076   2.297   6.281  11.067 -0.0601  0.4149 -0.0194
   17DOPE   O14 2077   2.135   6.257  11.262 -0.0899 -0.2622  0.1099
   17DOPE   O11 2078   2.050   6.341  11.053  0.2864  0.1254  0.0670
   17DOPE   O12 2079   2.114   6.106  11.062  0.2493 -0.1604 -0.1611
   17DOPE    C1 2080   2.067   6.372  10.917  0.3633  0.2321 -0.1007
   17DOPE    HA 2081   2.127   6.304  10.852  1.4145  1.2650 -0.2455
   17DOPE    HB 2082   2.126   6.465  10.902  1.7350 -0.5662  0.1065
   17DOPE    C2 2083   1.923   6.396  10.855 -0.7978  0.5251 -0.0863
   17DOPE    HS 2084   1.858   6.306  10.853  0.6872 -0.5835 -1.0317
   17DOPE   O21 2085   1.938   6.436  10.714  0.2930  0.1868 -0.6567
   17DOPE   C21 2086   1.966   6.345  10.627  0.7417  0.7761 -0.1260
   17DOPE   O22 2087   1.985   6.224  10.645 -0.2560 -0.5967  0.1976
   17DOPE   C22 2088   2.001   6.424  10.496 -0.1626 -0.0966 -0.0353
   17DOPE   H2R 2089   2.083   6.495  10.516 -0.1113  0.0986 -0.9027
   17DOPE   H2S 2090   1.910   6.484  10.473  1.9457  2.7356 -1.6015
   17DOPE    C3 2091   1.831   6.495  10.929 -0.8411 -0.6035  0.1534
   17DOPE    HX 2092   1.895   6.576  10.970 -2.0863  0.5764 -0.1335
   17DOPE    HY 2093   1.790   6.448  11.021 -0.1947 -3.4052 -0.9118
   17DOPE   O31 2094   1.729   6.551  10.847  0.1277 -0.6193  1.0808
   17DOPE   C31 2095   1.744   6.674  10.791  0.4097  0.3435  0.6031
   17DOPE   O32 2096   1.844   6.742  10.806  0.3145 -0.9297  0.6165
   17DOPE   C32 2097   1.637   6.704  10.685  0.1480  0.0757  0.0504
   17DOPE   H2X 2098   1.619   6.608  10.634 -0.5101 -0.8476  1.9117
   17DOPE   H2Y 2099   1.543   6.738  10.734  0.3350  0.5343  0.1000
   17DOPE   C23 2100   2.035   6.329  10.380 -0.0603  0.2643  0.5386
   17DOPE   H3R 2101   2.117   6.264  10.417  0.0056  1.0816  1.9349
   17DOPE   H3S 2102   2.074   6.387  10.294  4.0319  0.5707  2.3648
   17DOPE   C24 2103   1.910   6.247  10.334 -0.2355 -0.4750 -0.4259
   17DOPE   H4R 2104   1.843   6.324  10.290 -1.5899 -1.3136  0.0866
   17DOPE   H4S 2105   1.861   6.205  10.425 -0.4717  1.7172  0.5368
   17DOPE   C25 2106   1.943   6.127  10.245 -0.2263 -0.6004 -0.4984
   17DOPE   H5R 2107   1.846   6.073  10.238  0.0770 -1.8425  3.0959
   17DOPE   H5S 2108   2.017   6.068  10.303  0.5887 -2.4290 -3.1608
   17DOPE   C26 2109   1.993   6.157  10.108 -0.0267 -0.0847  0.5482
   17DOPE   H6R 2110   2.077   6.229  10.115 -0.5549  0.8194 -1.5055
   17DOPE   H6S 2111   1.916   6.210  10.048  0.9363 -0.5706 -1.1958
   17DOPE   C27 2112   2.053   6.043  10.027  0.0554 -0.4161 -0.3593
   17DOPE   H7R 2113   2.145   6.002  10.074 -1.0876 -0.1298  2.2939
   17DOPE   H7S 2114   2.100   6.077   9.932 -0.6061 -0.7617 -0.8151
   17DOPE   C28 2115   1.938   5.945   9.991  0.8898  0.1837  0.6196
   17DOPE   H8R 2116   1.863   6.005   9.935  0.7627  0.1847  0.7911
   17DOPE   H8S 2117   1.891   5.919  10.089 -1.2567  0.2951 -0.3296
   17DOPE   C29 2118   1.990   5.824   9.920 -1.0446  0.1267  0.7241
   17DOPE   H9R 2119   2.073   5.775   9.971 -0.5093  0.1115 -0.1396
   17DOPE  C210 2120   1.974   5.789   9.791  0.1962 -0.2438 -0.5419
   17DOPE  H10R 2121   2.030   5.705   9.746  0.9455 -0.8070  1.3263
   17DOPE  C211 2122   1.861   5.844   9.703 -0.0184  0.1381 -0.4003
   17DOPE  H11R 2123   1.833   5.948   9.728  0.2480  0.1070  0.0472
   17DOPE  H11S 2124   1.773   5.779   9.718 -0.1323  0.2403 -0.6308
   17DOPE  C212 2125   1.902   5.851   9.557  0.3582 -0.6451  1.3784
   17DOPE  H12R 2126   1.934   5.750   9.524 -0.5571 -0.6246  0.3716
   17DOPE  H12S 2127   1.976   5.931   9.537 -1.9906  2.1143  2.9111
   17DOPE  C213 2128   1.785   5.891   9.461 -0.1556  0.1256 -0.1781
   17DOPE  H13R 2129   1.745   5.989   9.495 -0.8526 -0.2390  0.0445
   17DOPE  H13S 2130   1.703   5.818   9.477  1.1344 -0.9607  1.8985
   17DOPE  C214 2131   1.827   5.895   9.316  0.3451  0.3480  0.5116
   17DOPE  H14R 2132   1.924   5.941   9.288  0.2056 -0.0084 -0.5888
   17DOPE  H14S 2133   1.745   5.950   9.265  0.9703 -1.7844 -3.0895
   17DOPE  C215 2134   1.826   5.762   9.253  0.0591 -0.2279 -0.5813
   17DOPE  H15R 2135   1.723   5.720   9.257 -0.8294  1.7563  4.0365
   17DOPE  H15S 2136   1.893   5.693   9.308 -0.3853  0.8544  1.4380
   17DOPE  C216 2137   1.861   5.755   9.103 -0.1425 -0.0822 -0.6443
   17DOPE  H16R 2138   1.970   5.770   9.088  0.0612 -0.6420  0.2359
   17DOPE  H16S 2139   1.799   5.838   9.062  0.4158  1.3084  1.2263
   17DOPE  C217 2140   1.809   5.626   9.039  0.2742 -0.0751  0.4084
   17DOPE  H17R 2141   1.707   5.603   9.076  0.1647  0.8484  0.6945
   17DOPE  H17S 2142   1.875   5.543   9.073 -0.7284 -0.6625  1.0029
   17DOPE  C218 2143   1.793   5.635   8.889 -0.5189  0.3325  0.6415
   17DOPE  H18R 2144   1.888   5.663   8.839 -0.9168  0.0531 -0.2822
   17DOPE  H18S 2145   1.712   5.706   8.865  0.3750  1.7360  1.5968
   17DOPE  H18T 2146   1.766   5.535   8.851  1.3963  0.4679 -1.2477
   17DOPE   C33 2147   1.688   6.807  10.581  0.0350 -0.3365  0.3049
   17DOPE   H3X 2148   1.751   6.887  10.627 -2.0693 -0.1481  3.1892
   17DOPE   H3Y 2149   1.596   6.861  10.551  1.2025  1.4954 -0.1333
   17DOPE   C34 2150   1.755   6.754  10.451  1.0195  1.0758  0.8723
   17DOPE   H4X 2151   1.846   6.693  10.470  1.3668  1.4429  0.4395
   17DOPE   H4Y 2152   1.688   6.680  10.403  3.2549 -1.2319  1.0512
   17DOPE   C35 2153   1.771   6.864  10.349 -0.4079 -0.7269  0.4492
   17DOPE   H5X 2154   1.840   6.943  10.386 -2.4159  2.1111 -1.4528
   17DOPE   H5Y 2155   1.685   6.930  10.325  0.5890  0.5718  0.3528
   17DOPE   C36 2156   1.814   6.812  10.208  0.2799 -0.2987  0.0148
   17DOPE   H6X 2157   1.820   6.901  10.142 -0.3842  0.1183  0.5074
   17DOPE   H6Y 2158   1.735   6.745  10.169  0.3660  0.3470 -1.3533
   17DOPE   C37 2159   1.947   6.742  10.203 -0.0499  0.5282 -0.4187
   17DOPE   H7X 2160   2.030   6.801  10.249 -0.7205  1.6064 -0.5675
   17DOPE   H7Y 2161   1.931   6.652  10.266  1.0813  0.0477 -0.7811
   17DOPE   C38 2162   1.997   6.706  10.062  0.0379  0.2896 -0.8425
   17DOPE   H8X 2163   2.024   6.802  10.012 -0.3204  0.4211 -0.7905
   17DOPE   H8Y 2164   1.913   6.658  10.007  0.0412 -0.4104 -0.2430
   17DOPE   C39 2165   2.113   6.617  10.063  0.6034  0.1908 -0.2271
   17DOPE   H9X 2166   2.094   6.518  10.021  2.3765 -0.3915  0.2714
   17DOPE  C310 2167   2.239   6.659  10.087 -0.3466  0.7654 -0.2752
   17DOPE  H10X 2168   2.322   6.587  10.082 -1.6631 -0.7673 -0.9937
   17DOPE  C311 2169   2.288   6.792  10.139 -0.0374  0.5607  0.2938
   17DOPE  H11X 2170   2.355   6.854  10.074 -1.3594  0.7098 -0.9942
   17DOPE  H11Y 2171   2.205   6.864  10.158 -2.5938 -2.2795  0.5533
   17DOPE  C312 2172   2.367   6.782  10.271 -0.2231  0.2026 -0.4512
   17DOPE  H12X 2173   2.461   6.728  10.249  1.8876  2.8094  1.5774
   17DOPE  H12Y 2174   2.318   6.720  10.349  0.7371  0.2192  0.1872
   17DOPE  C313 2175   2.417   6.908  10.348  0.1550  0.0365  0.2573
   17DOPE  H13X 2176   2.494   6.874  10.420  2.8871  1.3591 -1.8280
   17DOPE  H13Y 2177   2.464   6.974  10.272 -1.7081  1.6447  0.4421
   17DOPE  C314 2178   2.311   6.988  10.411  1.0201  0.0156 -0.3113
   17DOPE  H14X 2179   2.250   6.942  10.492 -1.6330  0.1999 -2.0753
   17DOPE  H14Y 2180   2.238   7.026  10.336  2.1602  0.9693 -0.9577
   17DOPE  C315 2181   2.389   7.102  10.484  0.1471 -0.0856 -0.3698
   17DOPE  H15X 2182   2.446   7.153  10.404  1.2323 -0.5122  0.1110
   17DOPE  H15Y 2183   2.459   7.071  10.564 -0.1625 -0.2940 -0.1774
   17DOPE  C316 2184   2.306   7.216  10.532  0.1614  0.4848 -0.0103
   17DOPE  H16X 2185   2.236   7.244  10.451 -0.4671  1.4702  0.8621
   17DOPE  H16Y 2186   2.379   7.297  10.555  1.6278 -0.5503 -0.8087
   17DOPE  C317 2187   2.214   7.196  10.657  0.0714  0.3556 -0.5892
   17DOPE  H17X 2188   2.156   7.101  10.653  0.0907  0.0622  2.9262
   17DOPE  H17Y 2189   2.281   7.185  10.745 -2.1406  0.7444  1.2470
   17DOPE  C318 2190   2.106   7.308  10.674  0.3520 -0.0282 -0.0865
   17DOPE  H18X 2191   2.134   7.402  10.725 -1.2979  0.8460 -0.7254
   17DOPE  H18Y 2192   2.058   7.331  10.576  0.1979 -0.0705 -0.0227
   17DOPE  H18Z 2193   2.020   7.272  10.735 -2.4048  2.3875 -2.2358
   18DOPE     N 2194   7.458   1.568  10.614  0.0430  0.3317 -0.4764
   18DOPE   HN1 2195   7.513   1.652  10.587  3.8899 -1.3388  1.3255
   18DOPE   HN2 2196   7.500   1.555  10.708  2.1472 -1.0335 -1.5339
   18DOPE   HN3 2197   7.488   1.487  10.556  0.5375 -0.1733  0.4597
   18DOPE   C12 2198   7.300   1.566  10.617  0.0473 -0.0157  0.1721
   18DOPE  H12A 2199   7.265   1.464  10.645 -0.0726  0.2820  1.1548
   18DOPE  H12B 2200   7.268   1.602  10.518 -0.4637 -0.6870  0.0869
   18DOPE   C11 2201   7.252   1.664  10.732 -0.4078 -0.6007  0.6340
   18DOPE  H11A 2202   7.284   1.607  10.822  0.1204 -1.6182 -0.1737
   18DOPE  H11B 2203   7.141   1.663  10.727 -0.4206  2.0576 -2.3444
   18DOPE     P 2204   7.370   1.864  10.836 -0.2083  0.0773  0.1012
   18DOPE   O13 2205   7.512   1.890  10.814 -0.2622  0.6901  0.0397
   18DOPE   O14 2206   7.330   1.790  10.958 -0.0312  0.7100 -0.3509
   18DOPE   O11 2207   7.295   2.003  10.832  0.4373  0.3885 -0.0789
   18DOPE   O12 2208   7.318   1.787  10.713  0.3379  0.6654  0.2546
   18DOPE    C1 2209   7.274   2.074  10.709  0.2136  0.4165 -0.8634
   18DOPE    HA 2210   7.166   2.073  10.683  0.3611  0.7802 -1.5289
   18DOPE    HB 2211   7.331   2.038  10.620 -1.0080 -1.4496 -0.9519
   18DOPE    C2 2212   7.311   2.228  10.720 -0.1846  0.2580  0.3998
   18DOPE    HS 2213   7.231   2.275  10.781 -0.7777 -0.2435  0.0172
   18DOPE   O21 2214   7.317   2.298  10.591  0.0853 -0.4288 -0.1368
   18DOPE   C21 2215   7.205   2.299  10.518  0.0082  0.0324 -0.1612
   18DOPE   O22 2216   7.098   2.260  10.549 -0.1459 -0.2570 -0.1882
   18DOPE   C22 2217   7.231   2.340  10.373 -0.1573 -0.2217  0.0845
   18DOPE   H2R 2218   7.254   2.247  10.316 -1.0030  0.6250 -1.7043
   18DOPE   H2S 2219   7.321   2.405  10.367  1.7028 -2.4910  1.4201
   18DOPE    C3 2220   7.437   2.254  10.789 -0.1453 -1.5255 -0.6660
   18DOPE    HX 2221   7.441   2.216  10.893 -3.5234  0.3412  0.2905
   18DOPE    HY 2222   7.453   2.364  10.794  0.4346 -1.4444 -2.8859
   18DOPE   O31 2223   7.542   2.201  10.704 -0.1048  0.5224  0.2129
   18DOPE   C31 2224   7.664   2.233  10.747 -0.2036  0.0674  0.6331
   18DOPE   O32 2225   7.690   2.307  10.836 -0.7068  0.0366  0.4274
   18DOPE   C32 2226   7.767   2.147  10.679  0.1792 -0.0840  0.5314
   18DOPE   H2X 2227   7.777   2.058  10.745  2.1752  1.9558  3.2090
   18DOPE   H2Y 2228   7.748   2.131  10.571  3.1113 -0.2823 -0.0498
   18DOPE   C23 2229   7.106   2.407  10.306  1.0170  0.0007 -0.1805
   18DOPE   H3R 2230   7.020   2.337  10.300  1.6262 -0.6387 -1.8687
   18DOPE   H3S 2231   7.129   2.423  10.199 -1.4098 -1.9626 -1.0870
   18DOPE   C24 2232   7.072   2.540  10.370 -0.9478 -0.8060 -0.8420
   18DOPE   H4R 2233   7.171   2.574  10.406 -0.5261 -1.7846 -1.0320
   18DOPE   H4S 2234   7.011   2.521  10.461  0.7248  0.3046  0.5600
   18DOPE   C25 2235   7.007   2.642  10.280  1.1210 -0.8236 -0.2594
   18DOPE   H5R 2236   6.954   2.717  10.344  0.8400 -1.1641 -0.0885
   18DOPE   H5S 2237   6.939   2.580  10.218 -0.9005  0.8640  0.1386
   18DOPE   C26 2238   7.106   2.725  10.212 -1.1121 -0.1462  0.2085
   18DOPE   H6R 2239   7.148   2.681  10.119 -1.6149  0.6801 -0.4124
   18DOPE   H6S 2240   7.192   2.745  10.280 -1.4807  0.7261  0.4349
   18DOPE   C27 2241   7.051   2.856  10.159 -0.3194 -0.5518  0.1855
   18DOPE   H7R 2242   6.955   2.833  10.109 -0.8723 -0.7702  1.3146
   18DOPE   H7S 2243   7.124   2.900  10.088 -1.7183  0.0853 -0.8984
   18DOPE   C28 2244   7.030   2.967  10.269 -0.5551  0.2354  0.2237
   18DOPE   H8R 2245   7.128   2.984  10.317 -0.2593  0.0255 -0.3006
   18DOPE   H8S 2246   6.970   2.931  10.355 -0.2684  2.3865  1.3737
   18DOPE   C29 2247   6.969   3.082  10.198  0.3372 -0.9113 -0.3622
   18DOPE   H9R 2248   6.860   3.075  10.183  0.4166 -2.1224 -0.4179
   18DOPE  C210 2249   7.040   3.188  10.155 -0.1290 -0.1761 -0.1783
   18DOPE  H10R 2250   6.981   3.268  10.109  0.7398  0.0073 -1.0191
   18DOPE  C211 2251   7.192   3.200  10.146  0.3760  0.1241 -0.2087
   18DOPE  H11R 2252   7.231   3.098  10.123 -2.7636 -0.7504 -2.3401
   18DOPE  H11S 2253   7.230   3.240  10.242  0.4899  1.1179 -0.6542
   18DOPE  C212 2254   7.250   3.282  10.034  0.4148 -0.1611 -0.0182
   18DOPE  H12R 2255   7.360   3.289  10.048  0.7292 -0.1332 -2.2438
   18DOPE  H12S 2256   7.210   3.385  10.020 -2.4016 -0.8769  1.9069
   18DOPE  C213 2257   7.249   3.199   9.900 -0.7114  0.0359 -0.1464
   18DOPE  H13R 2258   7.141   3.176   9.894 -0.7360 -1.0673  2.8762
   18DOPE  H13S 2259   7.310   3.110   9.926 -1.9903 -0.1333  2.6148
   18DOPE  C214 2260   7.296   3.277   9.781 -0.5067 -0.7617 -0.9552
   18DOPE  H14R 2261   7.395   3.320   9.807 -0.4936 -0.8182 -0.9118
   18DOPE  H14S 2262   7.243   3.369   9.749 -0.7685 -1.1606 -1.7024
   18DOPE  C215 2263   7.302   3.190   9.656  0.5041 -0.0132 -0.0841
   18DOPE  H15R 2264   7.370   3.103   9.662  0.6786  0.0045 -1.3593
   18DOPE  H15S 2265   7.350   3.253   9.577  1.2159 -1.6928 -1.0350
   18DOPE  C216 2266   7.160   3.135   9.616 -0.0841  0.3524 -0.1954
   18DOPE  H16R 2267   7.096   3.226   9.609  0.7016  0.7912 -2.4854
   18DOPE  H16S 2268   7.133   3.072   9.704 -1.2101  3.2351  1.6736
   18DOPE  C217 2269   7.160   3.066   9.481 -0.3212  0.2689 -0.1723
   18DOPE  H17R 2270   7.225   2.976   9.478 -1.2723 -0.4213 -1.2125
   18DOPE  H17S 2271   7.189   3.144   9.408 -2.2611 -0.2675 -1.6047
   18DOPE  C218 2272   7.022   3.033   9.428  0.3860 -0.4042  0.1116
   18DOPE  H18R 2273   6.948   3.110   9.458  0.5916  0.5137 -1.5935
   18DOPE  H18S 2274   6.991   2.930   9.455 -0.1952 -0.6767 -1.4413
   18DOPE  H18T 2275   7.030   3.044   9.317 -0.7171  2.2817  0.2192
   18DOPE   C33 2276   7.909   2.210  10.688 -0.1163 -0.7021 -0.0952
   18DOPE   H3X 2277   7.985   2.130  10.669  0.4239 -0.5259  1.1779
   18DOPE   H3Y 2278   7.914   2.241  10.795 -6.9057 -2.2803  1.1468
   18DOPE   C34 2279   7.923   2.328  10.593  0.2860 -0.2113 -0.0547
   18DOPE   H4X 2280   7.844   2.401  10.621  0.2025  0.6639 -2.3481
   18DOPE   H4Y 2281   8.024   2.369  10.616 -0.0741  1.7377 -1.6239
   18DOPE   C35 2282   7.939   2.290  10.441 -0.0141  0.3850 -0.2959
   18DOPE   H5X 2283   7.836   2.273  10.403 -0.5684 -1.6294  1.8685
   18DOPE   H5Y 2284   7.989   2.192  10.426 -0.0336  0.3024  0.1614
   18DOPE   C36 2285   8.000   2.402  10.358 -0.3949 -0.3732  0.5550
   18DOPE   H6X 2286   8.095   2.431  10.408  0.2026 -2.2978  0.6061
   18DOPE   H6Y 2287   7.944   2.498  10.355  0.6139  0.2913  1.7539
   18DOPE   C37 2288   8.045   2.364  10.213 -0.4733 -0.1735  0.4045
   18DOPE   H7X 2289   8.110   2.445  10.175 -0.8008  0.0933  0.4035
   18DOPE   H7Y 2290   8.114   2.278  10.219 -1.2031 -0.6638  3.8533
   18DOPE   C38 2291   7.928   2.350  10.115  0.3610 -0.3549  0.2655
   18DOPE   H8X 2292   7.865   2.442  10.122 -0.4135 -0.8513 -0.0171
   18DOPE   H8Y 2293   7.881   2.256  10.149  0.3057 -0.3583  0.1814
   18DOPE   C39 2294   7.960   2.312   9.966 -0.3849  0.3121 -0.0884
   18DOPE   H9X 2295   7.956   2.392   9.891  1.6873  0.7991  0.2480
   18DOPE  C310 2296   7.993   2.181   9.930 -0.3874 -0.0209 -0.5850
   18DOPE  H10X 2297   8.017   2.156   9.826 -0.5018 -0.7273 -0.4485
   18DOPE  C311 2298   8.026   2.074  10.040  0.2976 -0.3021 -0.5368
   18DOPE  H11X 2299   8.125   2.077  10.090  0.0049 -0.8821  0.0888
   18DOPE  H11Y 2300   7.955   2.088  10.125  0.6086  2.0068 -0.5784
   18DOPE  C312 2301   8.007   1.943   9.969 -0.3350  0.7290  0.2636
   18DOPE  H12X 2302   8.037   1.865  10.042  0.5826  1.6187  0.8584
   18DOPE  H12Y 2303   8.060   1.925   9.873 -1.0717  0.4584 -0.1002
   18DOPE  C313 2304   7.855   1.922   9.951  0.0326 -0.0296  1.1648
   18DOPE  H13X 2305   7.800   1.943  10.045 -2.1197 -1.8290  0.3963
   18DOPE  H13Y 2306   7.811   1.996   9.881 -1.5891 -0.6645  1.4802
   18DOPE  C314 2307   7.819   1.773   9.916 -0.0577 -0.3335 -0.1717
   18DOPE  H14X 2308   7.709   1.762   9.900 -0.4124  1.2419  0.9167
   18DOPE  H14Y 2309   7.843   1.705  10.001 -0.7138 -0.7668 -0.3280
   18DOPE  C315 2310   7.884   1.718   9.790  0.6722 -0.4198 -0.1768
   18DOPE  H15X 2311   7.862   1.609   9.785  0.4459 -0.3168 -1.8927
   18DOPE  H15Y 2312   7.994   1.729   9.802  0.3089  1.6159  2.1235
   18DOPE  C316 2313   7.843   1.789   9.656 -0.7669 -0.9036 -0.7529
   18DOPE  H16X 2314   7.906   1.880   9.648 -0.2661 -1.4102 -3.3406
   18DOPE  H16Y 2315   7.736   1.817   9.658  0.1033  3.0539 -0.4044
   18DOPE  C317 2316   7.875   1.703   9.531 -0.1750 -0.3087  1.1258
   18DOPE  H17X 2317   7.977   1.658   9.537 -0.3869 -0.8984  0.4862
   18DOPE  H17Y 2318   7.797   1.625   9.520  1.4698 -1.9893  0.8236
   18DOPE  C318 2319   7.864   1.795   9.405 -0.5023  0.2144  0.5626
   18DOPE  H18X 2320   7.894   1.735   9.316  0.9227  2.7440 -0.7471
   18DOPE  H18Y 2321   7.759   1.824   9.382 -0.2623 -0.8287 -2.2652
   18DOPE  H18Z 2322   7.928   1.885   9.416  0.7763 -0.5456 -0.3368
   19DOPE     N 2323   7.437   3.064  11.291 -0.4348 -0.1099 -0.2483
   19DOPE   HN1 2324   7.473   2.999  11.219 -0.5061 -0.8655  0.3878
   19DOPE   HN2 2325   7.501   3.146  11.287 -0.2183 -0.3095 -1.2725
   19DOPE   HN3 2326   7.438   3.026  11.387  1.4958 -0.0923 -0.2294
   19DOPE   C12 2327   7.305   3.125  11.266  0.0530  0.1685 -0.5160
   19DOPE  H12A 2328   7.304   3.178  11.168 -0.0080 -0.5036 -0.8863
   19DOPE  H12B 2329   7.284   3.205  11.340  1.0506  0.0807 -0.1160
   19DOPE   C11 2330   7.188   3.023  11.255  0.1543 -0.7787  0.0273
   19DOPE  H11A 2331   7.087   3.068  11.244  0.9829  1.6343  1.3727
   19DOPE  H11B 2332   7.185   2.967  11.351 -0.3516 -2.0797 -0.7256
   19DOPE     P 2333   7.148   2.970  11.008  0.1197  0.5669 -0.1245
   19DOPE   O13 2334   7.008   2.924  11.002 -0.0171  0.4930  0.1872
   19DOPE   O14 2335   7.241   2.921  10.901  0.9233 -0.2471 -0.0848
   19DOPE   O11 2336   7.145   3.127  11.004 -0.7813  0.2016 -0.2754
   19DOPE   O12 2337   7.213   2.936  11.144 -0.1845  0.0330 -0.5064
   19DOPE    C1 2338   7.028   3.192  10.975 -0.3781 -0.6549 -0.4000
   19DOPE    HA 2339   7.048   3.298  11.001  1.9739 -0.8380 -1.2261
   19DOPE    HB 2340   6.945   3.166  11.044  1.3486  0.6312  2.3555
   19DOPE    C2 2341   6.988   3.186  10.825  0.0407 -0.4295  0.1035
   19DOPE    HS 2342   6.942   3.085  10.816 -1.1457 -0.0459  1.5239
   19DOPE   O21 2343   7.100   3.219  10.737 -0.1852  0.3662 -0.1932
   19DOPE   C21 2344   7.129   3.125  10.651 -0.5364 -0.1312  0.4387
   19DOPE   O22 2345   7.073   3.015  10.639 -0.4067 -0.2823  0.1477
   19DOPE   C22 2346   7.247   3.177  10.564 -0.2338 -0.2287 -0.6362
   19DOPE   H2R 2347   7.300   3.248  10.632  1.2670 -0.8421 -1.1038
   19DOPE   H2S 2348   7.216   3.230  10.472  3.1602  0.4866 -1.5401
   19DOPE    C3 2349   6.879   3.289  10.800 -0.1437  0.0765  0.0801
   19DOPE    HX 2350   6.898   3.368  10.876 -0.4556  1.9197 -1.6910
   19DOPE    HY 2351   6.781   3.242  10.825  0.9987 -0.5456  4.1386
   19DOPE   O31 2352   6.868   3.341  10.662 -0.2868  0.5002  0.1336
   19DOPE   C31 2353   6.929   3.450  10.634 -0.8478  0.0947  0.3321
   19DOPE   O32 2354   6.984   3.527  10.719 -0.7334  0.0028 -0.1300
   19DOPE   C32 2355   6.944   3.452  10.485 -0.1108 -0.2519  0.3992
   19DOPE   H2X 2356   7.044   3.406  10.468 -0.9413 -2.5358  1.3072
   19DOPE   H2Y 2357   6.871   3.386  10.432 -1.2672  0.5339  0.9809
   19DOPE   C23 2358   7.351   3.067  10.529  0.8178 -0.2264 -0.7434
   19DOPE   H3R 2359   7.305   2.976  10.486  1.7108 -0.8057 -0.4926
   19DOPE   H3S 2360   7.401   3.037  10.623  1.0669  0.4021 -0.6655
   19DOPE   C24 2361   7.449   3.127  10.432  0.6672  0.0960  0.5265
   19DOPE   H4R 2362   7.494   3.221  10.471  2.0384 -0.5614  0.5513
   19DOPE   H4S 2363   7.380   3.151  10.348  0.0693 -0.5511  0.8169
   19DOPE   C25 2364   7.563   3.030  10.389  0.2330  0.3681 -0.4012
   19DOPE   H5R 2365   7.519   2.945  10.332  1.1627  1.2872 -2.6035
   19DOPE   H5S 2366   7.605   2.986  10.482  0.9967  3.7332  0.9920
   19DOPE   C26 2367   7.680   3.096  10.315 -0.2746  0.1128 -0.1300
   19DOPE   H6R 2368   7.757   3.018  10.296 -2.1576 -1.6268 -0.9438
   19DOPE   H6S 2369   7.734   3.165  10.383  1.8291 -0.8532 -0.7358
   19DOPE   C27 2370   7.647   3.170  10.193  0.6192 -1.0670  0.1387
   19DOPE   H7R 2371   7.736   3.230  10.166 -0.6042  0.0166 -1.6769
   19DOPE   H7S 2372   7.571   3.249  10.212 -0.3810 -1.6622 -1.2277
   19DOPE   C28 2373   7.607   3.088  10.070 -0.3676  0.3223  0.0185
   19DOPE   H8R 2374   7.579   3.152   9.984  0.2126 -1.4946 -1.5926
   19DOPE   H8S 2375   7.511   3.032  10.079  0.4075 -0.9400  0.7537
   19DOPE   C29 2376   7.705   2.984  10.023  0.1696 -0.6359 -0.7509
   19DOPE   H9R 2377   7.740   2.913  10.099 -0.8474  1.8381  2.2254
   19DOPE  C210 2378   7.762   2.970   9.906  0.4714  0.3812  0.1703
   19DOPE  H10R 2379   7.826   2.881   9.891 -0.4005 -0.0417 -1.2818
   19DOPE  C211 2380   7.752   3.044   9.780  0.1381 -0.3380  0.1979
   19DOPE  H11R 2381   7.845   3.036   9.719 -0.3873 -2.6418 -0.4259
   19DOPE  H11S 2382   7.738   3.150   9.806 -0.2329 -0.2423 -0.3764
   19DOPE  C212 2383   7.634   3.012   9.683 -0.4801 -0.2321 -0.0062
   19DOPE  H12R 2384   7.621   3.093   9.608  2.4395 -0.6275 -1.0626
   19DOPE  H12S 2385   7.541   2.990   9.740 -0.7161  1.5278  0.3628
   19DOPE  C213 2386   7.662   2.878   9.612  0.2643  0.7325  0.2648
   19DOPE  H13R 2387   7.688   2.804   9.691  2.9081  0.3842 -0.8015
   19DOPE  H13S 2388   7.750   2.897   9.546  1.2489 -0.7644  1.0685
   19DOPE  C214 2389   7.550   2.820   9.523 -0.4830  0.5017  0.9431
   19DOPE  H14R 2390   7.547   2.898   9.443  0.0550 -2.7828 -2.5403
   19DOPE  H14S 2391   7.450   2.812   9.571 -1.2858 -2.3553 -0.9697
   19DOPE  C215 2392   7.570   2.682   9.448 -0.2849 -0.8204 -0.2619
   19DOPE  H15R 2393   7.617   2.615   9.523  1.6384  2.1118  1.3313
   19DOPE  H15S 2394   7.645   2.696   9.368 -0.9980  1.8204 -0.5604
   19DOPE  C216 2395   7.452   2.626   9.381  0.4480  0.8484  0.0507
   19DOPE  H16R 2396   7.407   2.709   9.322  0.4744  0.9025  0.1065
   19DOPE  H16S 2397   7.378   2.607   9.461  1.1810 -3.1087 -0.0313
   19DOPE  C217 2398   7.471   2.490   9.313 -0.8383 -0.0803 -0.6104
   19DOPE  H17R 2399   7.473   2.417   9.398 -0.6773 -1.7589 -2.0025
   19DOPE  H17S 2400   7.565   2.479   9.256  0.0957 -0.8517  0.9918
   19DOPE  C218 2401   7.355   2.462   9.215 -0.0903 -0.1267 -0.1765
   19DOPE  H18R 2402   7.309   2.558   9.180 -0.8137 -1.0434 -1.8575
   19DOPE  H18S 2403   7.276   2.401   9.264  0.3748 -0.0264  0.7227
   19DOPE  H18T 2404   7.384   2.415   9.119 -0.4490  3.0092 -1.9664
   19DOPE   C33 2405   6.942   3.595  10.418  0.2789  0.4160  0.3610
   19DOPE   H3X 2406   7.011   3.657  10.480  0.1889  1.3119 -0.4125
   19DOPE   H3Y 2407   6.841   3.639  10.409 -1.2902 -3.2554 -3.3228
   19DOPE   C34 2408   7.004   3.598  10.280  0.3966 -0.2604  0.4100
   19DOPE   H4X 2409   7.033   3.702  10.257  1.5459 -1.1463 -2.5857
   19DOPE   H4Y 2410   7.095   3.534  10.274  1.4068  1.2653 -2.1169
   19DOPE   C35 2411   6.916   3.541  10.172  0.7659  0.4146 -0.3066
   19DOPE   H5X 2412   6.817   3.591  10.176  0.1546 -0.8156  0.5494
   19DOPE   H5Y 2413   6.898   3.432  10.181 -0.6638  0.2221 -3.7911
   19DOPE   C36 2414   6.982   3.578  10.038  0.5376  0.1181  0.3304
   19DOPE   H6X 2415   7.087   3.543  10.043 -0.5168 -3.0615  2.6295
   19DOPE   H6Y 2416   6.984   3.689  10.030  0.2345  0.1619  0.8087
   19DOPE   C37 2417   6.912   3.510   9.915 -0.5818 -1.0748 -0.2492
   19DOPE   H7X 2418   6.923   3.399   9.920 -1.3988 -1.1186  0.8614
   19DOPE   H7Y 2419   6.803   3.531   9.910 -0.0931  1.7033 -0.7955
   19DOPE   C38 2420   6.981   3.540   9.782 -0.1386  0.3353  0.0546
   19DOPE   H8X 2421   6.966   3.449   9.721 -1.2070  0.8219 -0.4412
   19DOPE   H8Y 2422   7.091   3.553   9.793  0.2404  0.1829 -2.7433
   19DOPE   C39 2423   6.917   3.656   9.708 -0.9808  0.1967 -0.2438
   19DOPE   H9X 2424   6.868   3.729   9.774  0.1293 -0.7318  1.7435
   19DOPE  C310 2425   6.931   3.676   9.575 -0.4563 -0.0518  0.3043
   19DOPE  H10X 2426   6.882   3.764   9.530 -1.1905 -0.0307  1.0982
   19DOPE  C311 2427   7.007   3.579   9.486 -0.2738 -0.6025 -0.5112
   19DOPE  H11X 2428   7.111   3.615   9.492 -0.5826  0.0555  2.1171
   19DOPE  H11Y 2429   7.003   3.472   9.518 -0.6109 -0.1113  1.1706
   19DOPE  C312 2430   6.947   3.588   9.344  0.0821  0.5414 -0.8514
   19DOPE  H12X 2431   6.929   3.689   9.301 -0.4699 -0.0368 -2.0366
   19DOPE  H12Y 2432   6.849   3.535   9.343  1.5625 -2.7355  2.3806
   19DOPE  C313 2433   7.036   3.505   9.244  0.0724  0.3406 -0.6346
   19DOPE  H13X 2434   7.138   3.548   9.235  0.0559  1.3043  2.6300
   19DOPE  H13Y 2435   7.056   3.404   9.287  2.1654  0.2154 -1.7650
   19DOPE  C314 2436   6.970   3.497   9.106  0.4154 -0.1287 -0.1281
   19DOPE  H14X 2437   6.968   3.598   9.059 -0.8550 -1.7050 -3.9210
   19DOPE  H14Y 2438   6.866   3.458   9.120 -0.6948  0.7837 -4.4310
   19DOPE  C315 2439   7.044   3.400   9.009  0.0791 -0.7171  0.6843
   19DOPE  H15X 2440   6.973   3.342   8.946 -0.3784  1.0284 -0.4563
   19DOPE  H15Y 2441   7.102   3.327   9.071  0.0072  0.3611  2.0722
   19DOPE  C316 2442   7.138   3.474   8.918  0.8351  0.0866 -1.0011
   19DOPE  H16X 2443   7.169   3.567   8.970  0.2007 -0.6803  0.8207
   19DOPE  H16Y 2444   7.076   3.510   8.833 -1.1718 -0.8250  0.0066
   19DOPE  C317 2445   7.251   3.398   8.855  0.3413 -0.6321 -0.0626
   19DOPE  H17X 2446   7.317   3.469   8.801 -0.7936 -0.6358 -1.5231
   19DOPE  H17Y 2447   7.317   3.369   8.939  0.3749  0.1255  0.1783
   19DOPE  C318 2448   7.217   3.285   8.758 -0.3984  0.0390 -0.0919
   19DOPE  H18X 2449   7.309   3.241   8.716  0.4873  0.5526  1.2414
   19DOPE  H18Y 2450   7.165   3.203   8.812  0.7419 -0.3000  0.5198
   19DOPE  H18Z 2451   7.151   3.316   8.675  0.4885 -0.1194 -0.8656
   20DOPE     N 2452   5.349   6.841  11.013 -0.4127  0.3951 -0.0963
   20DOPE   HN1 2453   5.398   6.914  11.069  1.1605  0.6277 -1.6780
   20DOPE   HN2 2454   5.402   6.832  10.924 -1.6999  1.4455 -1.0212
   20DOPE   HN3 2455   5.251   6.870  10.993 -0.5296  0.8222  1.0090
   20DOPE   C12 2456   5.376   6.700  11.060 -0.1758  0.5712  0.2265
   20DOPE  H12A 2457   5.459   6.709  11.133  1.1268 -1.1844 -0.9671
   20DOPE  H12B 2458   5.413   6.644  10.971  0.9694  2.6247 -0.6676
   20DOPE   C11 2459   5.255   6.629  11.120  0.3372  0.2825 -0.4550
   20DOPE  H11A 2460   5.226   6.696  11.203  0.2958  1.8268 -1.6664
   20DOPE  H11B 2461   5.287   6.532  11.164 -2.0900  0.8989  2.9975
   20DOPE     P 2462   5.126   6.484  10.940  0.0697 -0.1410  0.2975
   20DOPE   O13 2463   5.034   6.522  10.825  0.0325  0.3006  0.1568
   20DOPE   O14 2464   5.087   6.381  11.035 -0.0642 -0.2147 -0.1478
   20DOPE   O11 2465   5.276   6.460  10.893 -0.2600  0.3268  0.2281
   20DOPE   O12 2466   5.149   6.607  11.033  0.2439 -0.8498  0.0501
   20DOPE    C1 2467   5.290   6.328  10.827 -0.0126  0.4129 -0.7785
   20DOPE    HA 2468   5.213   6.313  10.748 -0.7034  0.6620 -0.1575
   20DOPE    HB 2469   5.297   6.253  10.908  0.8841  0.3321 -0.9215
   20DOPE    C2 2470   5.420   6.326  10.745  0.1844  0.8156  0.5844
   20DOPE    HS 2471   5.508   6.342  10.811 -0.5779  0.2361  1.7803
   20DOPE   O21 2472   5.403   6.429  10.648  0.2159  0.1482  0.2605
   20DOPE   C21 2473   5.508   6.482  10.590 -0.5911 -0.5266  0.0923
   20DOPE   O22 2474   5.624   6.475  10.629  0.3115  0.5642 -0.6056
   20DOPE   C22 2475   5.469   6.539  10.452 -0.4024  0.1405 -0.7008
   20DOPE   H2R 2476   5.557   6.602  10.429  0.6250 -0.5133  1.2324
   20DOPE   H2S 2477   5.376   6.598  10.464  1.1081  2.9218 -1.8444
   20DOPE    C3 2478   5.437   6.193  10.674 -0.1366 -0.2434  0.3463
   20DOPE    HX 2479   5.344   6.180  10.615 -1.1315  0.4677  1.7067
   20DOPE    HY 2480   5.436   6.113  10.751 -0.4415  0.8072  1.4656
   20DOPE   O31 2481   5.544   6.184  10.576  0.3827  0.4567 -0.0797
   20DOPE   C31 2482   5.672   6.168  10.615  0.1640  0.5175 -0.2241
   20DOPE   O32 2483   5.709   6.136  10.726  0.0362  0.1406 -0.2865
   20DOPE   C32 2484   5.764   6.199  10.502  0.9044  0.6558  0.1289
   20DOPE   H2X 2485   5.704   6.251  10.424 -1.4802 -1.9691  0.0636
   20DOPE   H2Y 2486   5.847   6.259  10.546  2.0194 -0.6587 -0.1161
   20DOPE   C23 2487   5.442   6.436  10.342 -0.7633 -0.8826  0.4484
   20DOPE   H3R 2488   5.342   6.388  10.347 -0.7551 -1.2029 -1.7195
   20DOPE   H3S 2489   5.522   6.358  10.344  0.4903  0.2975 -1.0793
   20DOPE   C24 2490   5.454   6.502  10.208  0.5826 -0.0594  0.1195
   20DOPE   H4R 2491   5.556   6.546  10.203 -0.1282  1.6459 -0.0401
   20DOPE   H4S 2492   5.379   6.584  10.204  1.7065  1.0341  0.7831
   20DOPE   C25 2493   5.437   6.405  10.082 -0.1946 -0.4481 -0.2968
   20DOPE   H5R 2494   5.345   6.343  10.087  0.4645 -1.4089  0.1129
   20DOPE   H5S 2495   5.531   6.347  10.089  0.8271  0.9888 -1.4787
   20DOPE   C26 2496   5.438   6.485   9.952 -0.1019  0.1887 -0.2914
   20DOPE   H6R 2497   5.473   6.413   9.875  0.8613  1.9237 -1.5529
   20DOPE   H6S 2498   5.512   6.567   9.960  0.3518 -0.1959 -0.5294
   20DOPE   C27 2499   5.301   6.534   9.893  0.1785  0.3824 -0.0119
   20DOPE   H7R 2500   5.231   6.576   9.968  0.2046  1.1453 -0.4076
   20DOPE   H7S 2501   5.253   6.445   9.847  0.5442  0.8808 -1.4127
   20DOPE   C28 2502   5.318   6.634   9.778 -0.2316 -0.2703  0.1564
   20DOPE   H8R 2503   5.393   6.584   9.714 -0.8841 -1.8252  0.5775
   20DOPE   H8S 2504   5.369   6.723   9.821  0.4386 -0.1620 -0.8189
   20DOPE   C29 2505   5.189   6.663   9.712  0.2456 -0.2365 -0.5379
   20DOPE   H9R 2506   5.102   6.608   9.751  0.1043  0.6281  0.3887
   20DOPE  C210 2507   5.171   6.748   9.608  0.0746 -1.1717 -0.6305
   20DOPE  H10R 2508   5.071   6.759   9.564  0.3253 -0.2096 -0.9733
   20DOPE  C211 2509   5.284   6.805   9.527 -0.9029  0.0296  0.4427
   20DOPE  H11R 2510   5.376   6.810   9.590 -0.0388 -1.0114 -0.6914
   20DOPE  H11S 2511   5.261   6.910   9.499  0.8239  0.1679 -0.6340
   20DOPE  C212 2512   5.320   6.746   9.387  0.4204 -1.4959 -1.2390
   20DOPE  H12R 2513   5.227   6.766   9.330 -1.4265 -0.8409  1.8365
   20DOPE  H12S 2514   5.330   6.635   9.394  2.9081 -1.3740 -1.8619
   20DOPE  C213 2515   5.431   6.833   9.315  0.3720  0.0787 -0.9069
   20DOPE  H13R 2516   5.430   6.933   9.363 -1.4529  0.2792 -1.2787
   20DOPE  H13S 2517   5.395   6.859   9.213  0.1811 -0.0463 -0.8718
   20DOPE  C214 2518   5.565   6.764   9.307  0.0987 -0.4580  0.4765
   20DOPE  H14R 2519   5.553   6.657   9.280  0.3071 -0.3774  0.0426
   20DOPE  H14S 2520   5.606   6.768   9.410 -2.2968  0.3897  1.4598
   20DOPE  C215 2521   5.666   6.839   9.222  0.2704 -0.4732  0.3235
   20DOPE  H15R 2522   5.678   6.932   9.282 -0.9605 -0.2864  0.3043
   20DOPE  H15S 2523   5.628   6.873   9.124 -0.4800  2.3714  1.4769
   20DOPE  C216 2524   5.790   6.748   9.185  0.3168  0.1320 -0.4818
   20DOPE  H16R 2525   5.815   6.710   9.286 -0.4714  3.1857  0.9854
   20DOPE  H16S 2526   5.871   6.817   9.154 -1.3166  3.3854  1.8583
   20DOPE  C217 2527   5.774   6.638   9.077 -0.3988  0.3601 -0.1761
   20DOPE  H17R 2528   5.756   6.683   8.977  2.0621  1.9797  0.0163
   20DOPE  H17S 2529   5.698   6.559   9.091  1.4079 -1.2109  1.3249
   20DOPE  C218 2530   5.914   6.575   9.058  0.4569 -0.5056 -0.6526
   20DOPE  H18R 2531   5.940   6.521   9.152 -0.6670  1.5944  0.9509
   20DOPE  H18S 2532   5.991   6.655   9.048  2.4358 -2.1026  0.7831
   20DOPE  H18T 2533   5.926   6.507   8.971 -0.8356 -1.9704  0.2517
   20DOPE   C33 2534   5.835   6.079  10.437  0.2237 -0.1385 -0.1401
   20DOPE   H3X 2535   5.872   6.012  10.518  0.1166 -1.5621 -1.2239
   20DOPE   H3Y 2536   5.919   6.124  10.381  1.1823  3.2685  3.5614
   20DOPE   C34 2537   5.737   5.991  10.353  0.4409  0.0671 -0.3222
   20DOPE   H4X 2538   5.659   5.947  10.419  1.2355  0.8284  1.1497
   20DOPE   H4Y 2539   5.687   6.057  10.278  0.3199  0.1501 -0.1681
   20DOPE   C35 2540   5.808   5.886  10.286  0.1441  0.3580  0.4498
   20DOPE   H5X 2541   5.833   5.804  10.357  2.6850 -2.8561 -3.6963
   20DOPE   H5Y 2542   5.905   5.921  10.246  0.5894 -1.3625 -0.0832
   20DOPE   C36 2543   5.730   5.810  10.171 -0.1209 -0.2275 -0.3494
   20DOPE   H6X 2544   5.669   5.875  10.105  1.1461  0.9121 -0.4329
   20DOPE   H6Y 2545   5.658   5.745  10.226 -1.5050  1.0961 -0.5313
   20DOPE   C37 2546   5.823   5.709  10.102  0.7436 -0.3291  0.0510
   20DOPE   H7X 2547   5.866   5.642  10.179  0.3271 -0.4629  0.1705
   20DOPE   H7Y 2548   5.762   5.639  10.040  0.8261 -3.6198  3.3279
   20DOPE   C38 2549   5.940   5.771  10.018 -0.3168  0.0899  0.8960
   20DOPE   H8X 2550   5.981   5.858  10.074 -1.4330 -1.1120  3.7528
   20DOPE   H8Y 2551   5.903   5.812   9.922 -1.7621  1.5250  2.0129
   20DOPE   C39 2552   6.037   5.669   9.976 -0.1423 -0.1414 -0.6483
   20DOPE   H9X 2553   5.989   5.604   9.902 -1.0570 -0.7948  0.4786
   20DOPE  C310 2554   6.158   5.646  10.040 -0.0505 -0.9399 -0.0390
   20DOPE  H10X 2555   6.220   5.573   9.985  4.7841  2.5405  0.1428
   20DOPE  C311 2556   6.223   5.725  10.144 -0.0401  0.7793  0.4022
   20DOPE  H11X 2557   6.160   5.744  10.234 -2.4780 -1.1852 -0.7767
   20DOPE  H11Y 2558   6.321   5.684  10.175  0.0155  0.5882 -0.0287
   20DOPE  C312 2559   6.269   5.869  10.099 -0.0959  0.0104 -0.5144
   20DOPE  H12X 2560   6.188   5.941  10.123  0.7828  0.6047  0.8049
   20DOPE  H12Y 2561   6.282   5.869   9.989  5.3439  2.2324 -0.2074
   20DOPE  C313 2562   6.394   5.923  10.174 -0.2975  0.8040 -0.3323
   20DOPE  H13X 2563   6.389   5.921  10.285 -1.4311 -0.0493 -0.3867
   20DOPE  H13Y 2564   6.478   5.854  10.150 -2.1914 -1.4028 -1.0205
   20DOPE  C314 2565   6.426   6.063  10.129  0.3118 -0.9240  0.2754
   20DOPE  H14X 2566   6.426   6.073  10.019  1.8186 -2.3172  0.1121
   20DOPE  H14Y 2567   6.522   6.098  10.175 -0.4594  0.3467  0.9797
   20DOPE  C315 2568   6.326   6.172  10.175  1.0495  0.2870 -0.2738
   20DOPE  H15X 2569   6.320   6.179  10.286  1.5449  3.3523 -0.3481
   20DOPE  H15Y 2570   6.225   6.161  10.130  1.2443  2.2994 -1.3258
   20DOPE  C316 2571   6.374   6.320  10.145 -0.5143  0.2590  0.3389
   20DOPE  H16X 2572   6.432   6.311  10.051  0.8637 -0.4273  1.2185
   20DOPE  H16Y 2573   6.451   6.353  10.218  0.7990 -0.7147 -0.5594
   20DOPE  C317 2574   6.251   6.406  10.133  0.8319 -0.3206  0.0825
   20DOPE  H17X 2575   6.190   6.365  10.049  0.6517  2.2437 -1.1362
   20DOPE  H17Y 2576   6.192   6.409  10.227  0.2759 -0.2576 -0.2610
   20DOPE  C318 2577   6.301   6.540  10.095 -0.3022  0.5871  0.2889
   20DOPE  H18X 2578   6.226   6.603  10.044  0.8890 -0.0608 -2.4358
   20DOPE  H18Y 2579   6.328   6.588  10.192  0.3034  0.4244  0.2078
   20DOPE  H18Z 2580   6.391   6.552  10.031 -1.1925  2.6606 -0.6469
   21DOPE     N 2581   2.388   0.147  11.523  0.3818  0.2367  0.0026
   21DOPE   HN1 2582   2.384   0.168  11.624  1.6985 -0.2742  0.1878
   21DOPE   HN2 2583   2.330   0.216  11.472  1.0565  0.2781 -0.7462
   21DOPE   HN3 2584   2.336   0.058  11.511  1.7980 -0.5866 -0.3402
   21DOPE   C12 2585   2.527   0.135  11.481 -0.1069 -0.1860 -0.4656
   21DOPE  H12A 2586   2.580   0.062  11.545  0.5632 -0.9844 -1.8797
   21DOPE  H12B 2587   2.576   0.235  11.483 -0.4977  0.0121  1.8276
   21DOPE   C11 2588   2.542   0.071  11.345 -0.2548  0.2572  0.3090
   21DOPE  H11A 2589   2.650   0.079  11.321 -0.1515 -0.7530  0.4049
   21DOPE  H11B 2590   2.503   0.129  11.258  1.4801 -0.6582 -1.1583
   21DOPE     P 2591   2.574  -0.196  11.375 -0.0848 -0.4729  0.2027
   21DOPE   O13 2592   2.467  -0.286  11.423  0.8207  0.6346  0.0489
   21DOPE   O14 2593   2.674  -0.174  11.477 -0.3344  0.4486 -0.6772
   21DOPE   O11 2594   2.645  -0.257  11.237  0.8942 -0.7057 -0.2822
   21DOPE   O12 2595   2.495  -0.063  11.341  0.2273 -0.7661 -0.3227
   21DOPE    C1 2596   2.616  -0.187  11.117 -0.4611  0.1371 -0.5059
   21DOPE    HA 2597   2.622  -0.076  11.118 -0.9586  0.1781 -1.3496
   21DOPE    HB 2598   2.509  -0.202  11.093 -0.8353  1.2934  0.3753
   21DOPE    C2 2599   2.704  -0.236  10.995 -0.1045 -0.5420 -0.4004
   21DOPE    HS 2600   2.655  -0.190  10.907 -1.0806  0.0636  0.4341
   21DOPE   O21 2601   2.718  -0.379  10.976 -0.3211 -0.3386 -0.5816
   21DOPE   C21 2602   2.621  -0.432  10.907 -0.3159 -1.3423 -0.4501
   21DOPE   O22 2603   2.523  -0.368  10.871 -0.2776  0.0517 -0.4492
   21DOPE   C22 2604   2.641  -0.581  10.912  0.4021  0.5311 -0.0770
   21DOPE   H2R 2605   2.690  -0.601  11.010 -2.7013 -0.2963  1.4444
   21DOPE   H2S 2606   2.708  -0.610  10.829 -0.3279 -0.8804 -0.2263
   21DOPE    C3 2607   2.848  -0.184  11.004 -0.3116  0.2151  0.3393
   21DOPE    HX 2608   2.882  -0.217  11.104 -0.7643  0.3390  0.5392
   21DOPE    HY 2609   2.858  -0.073  11.000  0.7294  0.0934 -1.5600
   21DOPE   O31 2610   2.931  -0.238  10.900 -0.5656 -0.4262 -0.0435
   21DOPE   C31 2611   3.062  -0.223  10.922 -0.6052 -0.0125 -0.3396
   21DOPE   O32 2612   3.104  -0.145  11.009 -0.5408 -0.7997 -0.1288
   21DOPE   C32 2613   3.147  -0.303  10.822  0.6695  0.0235  0.3555
   21DOPE   H2X 2614   3.072  -0.353  10.757 -0.5693  0.0845  1.6737
   21DOPE   H2Y 2615   3.214  -0.242  10.758  0.5947  0.3393  0.5755
   21DOPE   C23 2616   2.506  -0.649  10.925  0.8222 -0.4560 -0.7525
   21DOPE   H3R 2617   2.438  -0.610  10.846  0.8442  1.0742 -0.0623
   21DOPE   H3S 2618   2.467  -0.629  11.027  3.5621  0.2812  0.2487
   21DOPE   C24 2619   2.526  -0.804  10.906 -0.3061  0.5692  0.4993
   21DOPE   H4R 2620   2.438  -0.861  10.944 -0.2616  1.3441  1.8037
   21DOPE   H4S 2621   2.625  -0.834  10.946 -0.5607 -1.6390 -0.4000
   21DOPE   C25 2622   2.526  -0.844  10.760 -0.5672  0.3000  0.7404
   21DOPE   H5R 2623   2.622  -0.798  10.725 -1.0925  1.5363  0.8593
   21DOPE   H5S 2624   2.433  -0.806  10.712  0.7454  0.2804 -2.0181
   21DOPE   C26 2625   2.523  -1.001  10.737 -0.6498  1.0157 -0.4562
   21DOPE   H6R 2626   2.442  -1.041  10.801  0.1960 -1.1629 -0.6801
   21DOPE   H6S 2627   2.614  -1.044  10.784 -1.1333 -1.5719 -1.7181
   21DOPE   C27 2628   2.505  -1.042  10.592 -0.0606 -0.1929  0.1909
   21DOPE   H7R 2629   2.592  -1.003  10.534  0.7261  0.2234  1.5892
   21DOPE   H7S 2630   2.407  -0.997  10.566 -1.4547 -1.6868  2.5371
   21DOPE   C28 2631   2.515  -1.195  10.571  0.0260 -0.5748  0.9739
   21DOPE   H8R 2632   2.452  -1.242  10.649  0.0163  0.2975  1.5053
   21DOPE   H8S 2633   2.619  -1.227  10.590  0.7626  0.8811 -0.4087
   21DOPE   C29 2634   2.466  -1.244  10.438  0.2897  0.3899 -0.7363
   21DOPE   H9R 2635   2.364  -1.206  10.419  0.1204  0.7947  0.8359
   21DOPE  C210 2636   2.537  -1.299  10.338  0.1752  0.1337  0.3754
   21DOPE  H10R 2637   2.488  -1.336  10.247 -0.8780  1.7461  0.2486
   21DOPE  C211 2638   2.688  -1.327  10.329  0.8665  0.5016  0.7907
   21DOPE  H11R 2639   2.716  -1.432  10.349  0.6910  0.3365  0.1997
   21DOPE  H11S 2640   2.740  -1.254  10.395  3.0659 -0.5827  0.3436
   21DOPE  C212 2641   2.727  -1.300  10.184  0.2528 -0.0425 -0.1368
   21DOPE  H12R 2642   2.693  -1.374  10.109  2.0879  1.2054 -2.3154
   21DOPE  H12S 2643   2.837  -1.314  10.189  0.1213 -1.5454 -1.0763
   21DOPE  C213 2644   2.689  -1.158  10.134  0.4763  0.1879 -0.3772
   21DOPE  H13R 2645   2.698  -1.085  10.217 -2.0635 -0.6823  0.7504
   21DOPE  H13S 2646   2.583  -1.150  10.101  0.6809 -0.1154 -1.1443
   21DOPE  C214 2647   2.782  -1.096  10.025 -0.0539  0.1071 -0.2341
   21DOPE  H14R 2648   2.886  -1.115  10.061  0.0386 -1.3670 -1.1789
   21DOPE  H14S 2649   2.768  -0.987  10.008 -1.7084  0.1189  0.9942
   21DOPE  C215 2650   2.758  -1.167   9.889  0.3354 -1.0907  0.0842
   21DOPE  H15R 2651   2.652  -1.153   9.861 -0.1267 -0.0390  2.1874
   21DOPE  H15S 2652   2.790  -1.273   9.880 -0.9602 -1.3885 -1.3897
   21DOPE  C216 2653   2.842  -1.111   9.780 -0.2331  0.4389  0.7084
   21DOPE  H16R 2654   2.949  -1.103   9.805 -0.5088 -0.2490  2.2393
   21DOPE  H16S 2655   2.801  -1.010   9.758  1.9152  0.9834 -1.0809
   21DOPE  C217 2656   2.818  -1.187   9.638  0.0635 -0.1657 -0.2055
   21DOPE  H17R 2657   2.844  -1.113   9.560 -0.9487  0.3044 -0.0990
   21DOPE  H17S 2658   2.708  -1.196   9.642  0.0799 -0.0798  0.5909
   21DOPE  C218 2659   2.879  -1.321   9.621  0.1484  0.8670 -0.4907
   21DOPE  H18R 2660   2.853  -1.356   9.519  0.2031  3.2681 -1.3836
   21DOPE  H18S 2661   2.857  -1.402   9.695 -1.3011  0.4605 -1.3278
   21DOPE  H18T 2662   2.989  -1.311   9.608  0.2820 -0.7275 -0.8489
   21DOPE   C33 2663   3.223  -0.427  10.888  0.9140 -0.2649  0.1118
   21DOPE   H3X 2664   3.315  -0.399  10.942 -0.5078 -0.5861  2.8717
   21DOPE   H3Y 2665   3.263  -0.468  10.793  1.2655  1.4108 -0.5075
   21DOPE   C34 2666   3.134  -0.528  10.968 -0.8968  0.2155  0.4766
   21DOPE   H4X 2667   3.198  -0.603  11.018 -0.4661 -1.2391 -2.0844
   21DOPE   H4Y 2668   3.085  -0.466  11.046  1.9585  0.1423  2.4840
   21DOPE   C35 2669   3.031  -0.592  10.881 -0.2245 -0.5610  0.1319
   21DOPE   H5X 2670   2.966  -0.519  10.827  1.8567 -0.1850 -2.0056
   21DOPE   H5Y 2671   2.972  -0.656  10.950  0.5195 -1.1677  0.2200
   21DOPE   C36 2672   3.085  -0.676  10.765  0.0518 -0.1551  0.2569
   21DOPE   H6X 2673   3.178  -0.730  10.792 -1.6128 -3.1077  0.5492
   21DOPE   H6Y 2674   3.107  -0.605  10.683 -1.8273 -2.3795 -2.3584
   21DOPE   C37 2675   2.988  -0.780  10.721  0.0436 -0.2555  0.0890
   21DOPE   H7X 2676   2.982  -0.861  10.797 -0.1075  0.8800  1.3144
   21DOPE   H7Y 2677   2.886  -0.737  10.719  0.3983  0.5875 -0.3807
   21DOPE   C38 2678   3.020  -0.826  10.579  0.5950  0.1681  0.3321
   21DOPE   H8X 2679   3.108  -0.893  10.577  0.3583 -0.1799  1.0518
   21DOPE   H8Y 2680   3.045  -0.743  10.509  2.5208 -0.9537 -0.3615
   21DOPE   C39 2681   2.901  -0.904  10.527  0.5599  0.6186 -0.1194
   21DOPE   H9X 2682   2.874  -0.988  10.591  3.9612 -1.3011 -0.9170
   21DOPE  C310 2683   2.833  -0.889  10.411  0.3564 -0.7465  0.0056
   21DOPE  H10X 2684   2.755  -0.962  10.385 -0.9986  0.2982  0.9457
   21DOPE  C311 2685   2.852  -0.777  10.316  0.0973  0.2209  0.4934
   21DOPE  H11X 2686   2.757  -0.759  10.262 -0.9798  0.5540  2.4404
   21DOPE  H11Y 2687   2.857  -0.677  10.364  0.0613  0.6132 -0.3042
   21DOPE  C312 2688   2.970  -0.816  10.225 -0.1230 -0.2134  0.8714
   21DOPE  H12X 2689   2.962  -0.923  10.194 -1.9530 -0.4173  1.9150
   21DOPE  H12Y 2690   3.069  -0.819  10.275  0.9335 -1.0447 -1.1548
   21DOPE  C313 2691   2.973  -0.723  10.096  0.1546  0.1524  0.3515
   21DOPE  H13X 2692   3.058  -0.762  10.035  0.2627  0.5656  0.2399
   21DOPE  H13Y 2693   2.884  -0.725  10.030  0.7856 -0.5043 -0.5046
   21DOPE  C314 2694   3.007  -0.576  10.125 -0.4924  0.2708  0.5792
   21DOPE  H14X 2695   3.096  -0.588  10.191  1.5161 -1.3383 -2.1914
   21DOPE  H14Y 2696   2.920  -0.543  10.186 -1.9280 -1.2816 -0.5417
   21DOPE  C315 2697   3.026  -0.480  10.004 -0.4488  0.1692 -0.8574
   21DOPE  H15X 2698   3.001  -0.375  10.030 -1.6551  0.1102 -1.7280
   21DOPE  H15Y 2699   2.958  -0.518   9.925  0.5640  0.3610 -1.8494
   21DOPE  C316 2700   3.161  -0.472   9.941 -0.3608 -0.8166  0.3502
   21DOPE  H16X 2701   3.241  -0.455  10.017 -0.9566 -0.1409  0.8501
   21DOPE  H16Y 2702   3.154  -0.384   9.873 -1.9979  0.7814  2.4119
   21DOPE  C317 2703   3.185  -0.602   9.862 -0.5476 -0.5678 -0.0347
   21DOPE  H17X 2704   3.205  -0.687   9.931 -0.5969 -0.8471 -0.3585
   21DOPE  H17Y 2705   3.092  -0.625   9.806 -2.7158  3.0425  1.7208
   21DOPE  C318 2706   3.294  -0.576   9.754  0.3744 -0.5352 -0.0194
   21DOPE  H18X 2707   3.319  -0.675   9.712  0.6299 -0.2330 -0.5814
   21DOPE  H18Y 2708   3.252  -0.513   9.673  3.1297 -1.0259 -1.9380
   21DOPE  H18Z 2709   3.387  -0.531   9.795  1.2275 -1.1504 -1.2503
   22DOPE     N 2710   7.468   4.622  11.218  0.8076 -0.3594 -0.0810
   22DOPE   HN1 2711   7.429   4.707  11.173  0.3052 -1.3544 -1.5770
   22DOPE   HN2 2712   7.455   4.537  11.160 -1.0217 -0.3186  0.1926
   22DOPE   HN3 2713   7.422   4.607  11.310  0.5693  1.0954  0.0592
   22DOPE   C12 2714   7.607   4.636  11.235  0.2110 -0.1956  0.5194
   22DOPE  H12A 2715   7.636   4.538  11.279 -0.3431 -0.4889  0.2369
   22DOPE  H12B 2716   7.623   4.717  11.310 -0.7201  0.8663 -0.3972
   22DOPE   C11 2717   7.663   4.656  11.094 -0.1877 -0.0858  0.4130
   22DOPE  H11A 2718   7.774   4.657  11.102 -0.1390  1.3839 -0.2433
   22DOPE  H11B 2719   7.640   4.757  11.054  0.7595  1.2974  3.0555
   22DOPE     P 2720   7.715   4.477  10.907 -0.0590  0.4081  0.0336
   22DOPE   O13 2721   7.631   4.381  10.832 -0.2625 -0.4555 -0.6459
   22DOPE   O14 2722   7.820   4.419  10.991  0.4092  0.0901  0.3140
   22DOPE   O11 2723   7.782   4.591  10.815  0.2945 -0.2590 -0.6051
   22DOPE   O12 2724   7.623   4.550  11.006 -0.1404 -0.4298  0.3291
   22DOPE    C1 2725   7.686   4.682  10.754 -0.1320 -1.0226 -0.5099
   22DOPE    HA 2726   7.713   4.788  10.777  0.3691 -0.4557 -3.3081
   22DOPE    HB 2727   7.581   4.665  10.788 -0.7056  2.7667  0.0672
   22DOPE    C2 2728   7.664   4.665  10.598 -0.0994 -0.8750  0.2577
   22DOPE    HS 2729   7.593   4.745  10.568  0.1757 -1.4396 -2.1249
   22DOPE   O21 2730   7.608   4.535  10.563 -0.2547  0.2497  0.0045
   22DOPE   C21 2731   7.476   4.514  10.588  0.5932  0.3738 -0.3780
   22DOPE   O22 2732   7.400   4.602  10.620  0.6967 -0.4849 -0.7434
   22DOPE   C22 2733   7.434   4.363  10.560 -0.1196  0.1633  0.5282
   22DOPE   H2R 2734   7.475   4.307  10.646  1.9655  2.1217  0.9276
   22DOPE   H2S 2735   7.491   4.337  10.468  1.6640  1.1640  1.2923
   22DOPE    C3 2736   7.794   4.685  10.513  0.2968  0.2948  0.1141
   22DOPE    HX 2737   7.876   4.618  10.545  1.7295  1.5691 -0.7804
   22DOPE    HY 2738   7.836   4.786  10.530 -0.3366  0.5519  0.1738
   22DOPE   O31 2739   7.762   4.675  10.373  0.3385 -0.2505 -0.0058
   22DOPE   C31 2740   7.775   4.565  10.300 -0.6857  0.2845 -0.5879
   22DOPE   O32 2741   7.806   4.454  10.342  0.0045  0.2252  0.2757
   22DOPE   C32 2742   7.761   4.604  10.156 -0.1101  0.2657 -0.4415
   22DOPE   H2X 2743   7.652   4.621  10.139 -0.3270  0.1331  0.7838
   22DOPE   H2Y 2744   7.794   4.710  10.150  1.0524 -0.1356 -1.6614
   22DOPE   C23 2745   7.281   4.341  10.540 -0.0628  0.4014  0.9856
   22DOPE   H3R 2746   7.220   4.386  10.621 -0.2308  1.1725  0.4445
   22DOPE   H3S 2747   7.259   4.232  10.541  0.7265  0.2395  2.5034
   22DOPE   C24 2748   7.225   4.389  10.405  0.0885 -0.1255  0.8655
   22DOPE   H4R 2749   7.231   4.499  10.410  2.9229 -0.2313  1.2157
   22DOPE   H4S 2750   7.115   4.371  10.397 -0.0268 -0.2853  2.4858
   22DOPE   C25 2751   7.309   4.346  10.283 -0.5358  0.0134 -0.2616
   22DOPE   H5R 2752   7.327   4.237  10.286  0.9949  0.2573  0.1764
   22DOPE   H5S 2753   7.405   4.400  10.295 -0.6667 -0.0651  1.2833
   22DOPE   C26 2754   7.260   4.391  10.138  0.8553 -1.0324  0.3132
   22DOPE   H6R 2755   7.186   4.473  10.151 -0.0201 -1.7039 -0.3081
   22DOPE   H6S 2756   7.196   4.307  10.104  1.3281 -0.8358 -1.1122
   22DOPE   C27 2757   7.369   4.430  10.038  0.3307  0.1969  0.1486
   22DOPE   H7R 2758   7.444   4.351  10.021 -0.3161 -0.1592 -1.1864
   22DOPE   H7S 2759   7.429   4.511  10.083 -0.7827  1.4024 -0.4441
   22DOPE   C28 2760   7.307   4.469   9.910  0.3547 -0.3110 -0.0428
   22DOPE   H8R 2761   7.228   4.546   9.914 -0.2140 -0.9198  0.8053
   22DOPE   H8S 2762   7.256   4.376   9.877 -2.2747  0.0366  2.6614
   22DOPE   C29 2763   7.414   4.505   9.808  0.6466  0.3016  0.1353
   22DOPE   H9R 2764   7.491   4.572   9.850  0.0541  1.0139  0.1094
   22DOPE  C210 2765   7.416   4.467   9.678 -0.4995  0.0829 -0.2270
   22DOPE  H10R 2766   7.512   4.476   9.625 -0.0300 -0.3315  0.5423
   22DOPE  C211 2767   7.323   4.377   9.603  0.5872  0.2478  0.3453
   22DOPE  H11R 2768   7.241   4.331   9.663 -1.0408  2.2476 -0.2108
   22DOPE  H11S 2769   7.386   4.297   9.561 -1.0300 -1.7171  1.4615
   22DOPE  C212 2770   7.248   4.442   9.485 -0.0281 -0.2327  0.4438
   22DOPE  H12R 2771   7.327   4.491   9.425  0.6881 -2.9360 -0.9983
   22DOPE  H12S 2772   7.178   4.520   9.520 -1.1830 -1.4058  0.8333
   22DOPE  C213 2773   7.168   4.355   9.386  0.2907  0.2966 -0.3552
   22DOPE  H13R 2774   7.091   4.306   9.450 -1.1563  2.0126 -0.7027
   22DOPE  H13S 2775   7.227   4.278   9.332 -1.7936 -0.7903 -1.1563
   22DOPE  C214 2776   7.093   4.438   9.281  0.3708  0.1512  0.1718
   22DOPE  H14R 2777   7.169   4.479   9.211  1.0639 -1.3960 -0.0138
   22DOPE  H14S 2778   7.038   4.517   9.337  0.0650 -1.1303  1.7527
   22DOPE  C215 2779   6.969   4.360   9.215  0.5845  0.8874 -0.5089
   22DOPE  H15R 2780   6.903   4.321   9.296  0.6048 -0.5660 -1.1620
   22DOPE  H15S 2781   7.012   4.281   9.150 -0.3671  0.8863 -1.1579
   22DOPE  C216 2782   6.872   4.450   9.140  0.3846  0.1140  0.1652
   22DOPE  H16R 2783   6.842   4.530   9.212 -1.6427  0.3875 -0.9175
   22DOPE  H16S 2784   6.780   4.400   9.104  0.4885  1.6373 -2.5279
   22DOPE  C217 2785   6.927   4.498   9.003 -0.0482  0.7849 -0.0251
   22DOPE  H17R 2786   6.916   4.410   8.937 -2.0974  0.9790 -0.0154
   22DOPE  H17S 2787   7.025   4.548   9.016 -0.2443  1.1025  0.2547
   22DOPE  C218 2788   6.825   4.601   8.944  0.2542 -0.2884  0.1977
   22DOPE  H18R 2789   6.855   4.628   8.840  1.5946  0.4123  0.7482
   22DOPE  H18S 2790   6.840   4.692   9.006  1.4942 -1.3329  1.4745
   22DOPE  H18T 2791   6.721   4.562   8.947 -0.2704  0.8080 -1.5203
   22DOPE   C33 2792   7.845   4.515  10.061 -0.3807 -0.4624  0.7242
   22DOPE   H3X 2793   7.806   4.412  10.050 -0.7007 -0.3246  0.5482
   22DOPE   H3Y 2794   7.953   4.515  10.086  0.0144  0.7084 -0.7810
   22DOPE   C34 2795   7.848   4.569   9.920 -0.0212  0.5917 -0.2864
   22DOPE   H4X 2796   7.742   4.589   9.891 -0.2879 -0.3737  0.0035
   22DOPE   H4Y 2797   7.897   4.669   9.920 -1.1318  1.1536 -0.8035
   22DOPE   C35 2798   7.924   4.478   9.821  0.1251 -0.4571 -0.0700
   22DOPE   H5X 2799   7.869   4.384   9.800 -0.8589  0.4115 -1.5801
   22DOPE   H5Y 2800   8.025   4.455   9.862  0.3302 -1.5524 -1.1131
   22DOPE   C36 2801   7.939   4.555   9.689  0.2182 -0.5020  0.1776
   22DOPE   H6X 2802   8.030   4.513   9.640 -0.5492 -0.2881 -1.4776
   22DOPE   H6Y 2803   7.954   4.664   9.704 -0.5076 -0.4321  0.4233
   22DOPE   C37 2804   7.816   4.538   9.601 -0.3447  0.3544 -0.5735
   22DOPE   H7X 2805   7.812   4.434   9.564  1.6020  0.3788 -0.9740
   22DOPE   H7Y 2806   7.732   4.549   9.673  0.0701  0.9421 -0.1659
   22DOPE   C38 2807   7.797   4.636   9.482 -1.1886 -0.1082 -0.4513
   22DOPE   H8X 2808   7.813   4.739   9.520  0.8503  0.2578 -2.1271
   22DOPE   H8Y 2809   7.692   4.616   9.450 -0.7987  0.8297 -2.4370
   22DOPE   C39 2810   7.893   4.607   9.373 -0.2206 -0.3137  0.0533
   22DOPE   H9X 2811   7.998   4.636   9.389 -0.8845  1.5765  1.3628
   22DOPE  C310 2812   7.862   4.567   9.249  0.5579 -0.1838 -0.6317
   22DOPE  H10X 2813   7.937   4.582   9.170  0.6817  1.4143 -0.2540
   22DOPE  C311 2814   7.721   4.531   9.203  0.1214 -0.0177  0.1875
   22DOPE  H11X 2815   7.721   4.435   9.147  3.1159  0.7830 -1.4392
   22DOPE  H11Y 2816   7.648   4.517   9.285  0.0815  1.2758  0.4015
   22DOPE  C312 2817   7.651   4.639   9.118  0.0518 -0.1323  0.9316
   22DOPE  H12X 2818   7.715   4.678   9.036 -0.6452 -0.8814  0.0146
   22DOPE  H12Y 2819   7.635   4.733   9.176  0.1272  1.1079 -0.9713
   22DOPE  C313 2820   7.511   4.605   9.069  0.3919  0.3678  0.3040
   22DOPE  H13X 2821   7.526   4.539   8.981  0.8639  1.6607 -0.6196
   22DOPE  H13Y 2822   7.454   4.548   9.145 -2.5435 -0.1313 -2.0690
   22DOPE  C314 2823   7.431   4.733   9.041  0.1333 -0.3014 -0.4695
   22DOPE  H14X 2824   7.490   4.805   8.980 -1.3869  0.4941 -1.0350
   22DOPE  H14Y 2825   7.416   4.792   9.134  3.4566 -0.3704  0.2492
   22DOPE  C315 2826   7.289   4.708   8.976 -0.4006  0.8393 -0.4452
   22DOPE  H15X 2827   7.226   4.795   9.001  0.0098  0.7059  1.2173
   22DOPE  H15Y 2828   7.251   4.618   9.029  2.7731 -0.0891  0.5206
   22DOPE  C316 2829   7.290   4.676   8.815  0.1333 -0.8539 -0.0483
   22DOPE  H16X 2830   7.186   4.647   8.791  0.2846  0.2043 -2.2348
   22DOPE  H16Y 2831   7.350   4.585   8.796  0.9055 -0.1576 -1.0658
   22DOPE  C317 2832   7.328   4.794   8.724 -0.9183  0.0397 -0.4974
   22DOPE  H17X 2833   7.434   4.821   8.736 -0.1139 -3.0158  0.2714
   22DOPE  H17Y 2834   7.314   4.771   8.616 -1.4583 -0.1430 -0.3944
   22DOPE  C318 2835   7.259   4.929   8.756  0.3443 -0.2437 -0.6561
   22DOPE  H18X 2836   7.151   4.913   8.776  0.0543  1.1811 -0.9339
   22DOPE  H18Y 2837   7.308   4.970   8.848 -0.7248  2.2155 -1.0850
   22DOPE  H18Z 2838   7.276   4.991   8.666  1.0096 -2.2984 -2.0120
   23DOPE     N 2839   4.636   7.362  11.058 -0.2144 -1.0281 -0.1383
   23DOPE   HN1 2840   4.606   7.300  11.136 -1.5254 -0.5399 -0.2219
   23DOPE   HN2 2841   4.675   7.301  10.983 -0.7244 -1.0517 -0.3918
   23DOPE   HN3 2842   4.707   7.422  11.104 -0.0458 -1.3576  0.0302
   23DOPE   C12 2843   4.530   7.449  11.009  0.5680  0.0911 -0.3466
   23DOPE  H12A 2844   4.465   7.487  11.090  2.1554 -0.7435  1.3818
   23DOPE  H12B 2845   4.476   7.401  10.924  1.2016 -0.4045 -0.4755
   23DOPE   C11 2846   4.593   7.578  10.956  0.9878  0.3416 -0.4111
   23DOPE  H11A 2847   4.512   7.646  10.923  0.5114  0.8168  1.6376
   23DOPE  H11B 2848   4.657   7.542  10.872  0.2625 -2.1635  0.0185
   23DOPE     P 2849   4.792   7.726  11.064 -0.0939 -0.2020  0.0544
   23DOPE   O13 2850   4.855   7.706  11.193  0.0425  0.1058 -0.4214
   23DOPE   O14 2851   4.749   7.865  11.032 -0.0455  0.6597  0.5133
   23DOPE   O11 2852   4.871   7.656  10.947  0.6938 -0.6876 -0.0024
   23DOPE   O12 2853   4.664   7.635  11.062 -0.5385  0.0370 -0.4936
   23DOPE    C1 2854   4.903   7.725  10.829  0.4423 -0.3258 -0.2227
   23DOPE    HA 2855   5.002   7.774  10.839 -0.2362  0.8077  1.4643
   23DOPE    HB 2856   4.834   7.808  10.801  1.3179  0.1274 -1.0957
   23DOPE    C2 2857   4.913   7.624  10.705  0.9548 -0.1635  0.5440
   23DOPE    HS 2858   4.952   7.689  10.623  0.8531 -0.1984  0.4677
   23DOPE   O21 2859   4.776   7.574  10.680  0.0538 -0.0796  0.4374
   23DOPE   C21 2860   4.700   7.672  10.617  0.0848 -0.3163 -0.0594
   23DOPE   O22 2861   4.734   7.785  10.588 -1.0241 -0.2665 -0.1686
   23DOPE   C22 2862   4.562   7.623  10.587 -0.0043  0.6744  0.3870
   23DOPE   H2R 2863   4.492   7.680  10.652 -2.3314 -1.6616  0.1328
   23DOPE   H2S 2864   4.557   7.516  10.618  1.4772  0.4352 -0.1167
   23DOPE    C3 2865   5.017   7.508  10.731 -0.2097  0.0493 -0.0792
   23DOPE    HX 2866   4.976   7.440  10.808  0.5804 -1.4099 -0.9062
   23DOPE    HY 2867   5.099   7.553  10.790 -0.0712  0.9297 -0.9228
   23DOPE   O31 2868   5.057   7.434  10.607 -0.5583 -0.7501 -0.0237
   23DOPE   C31 2869   4.990   7.323  10.586  0.0161 -0.0000 -0.1710
   23DOPE   O32 2870   4.897   7.285  10.654 -0.1349 -0.2227 -0.6304
   23DOPE   C32 2871   5.044   7.242  10.469 -0.4234 -0.2612  0.2624
   23DOPE   H2X 2872   5.141   7.284  10.433 -0.8229 -0.7582 -1.4903
   23DOPE   H2Y 2873   5.068   7.139  10.504  0.4825 -0.1104  0.1058
   23DOPE   C23 2874   4.523   7.622  10.431  0.1143 -0.4165 -0.3103
   23DOPE   H3R 2875   4.551   7.715  10.377  0.2300 -0.2092  0.1028
   23DOPE   H3S 2876   4.412   7.615  10.440  0.1541 -0.3449  0.3213
   23DOPE   C24 2877   4.573   7.494  10.364  0.2582 -0.2286  0.3352
   23DOPE   H4R 2878   4.520   7.401  10.392  1.3158 -0.7749  0.5944
   23DOPE   H4S 2879   4.670   7.484  10.417 -0.0605  1.0148  1.1916
   23DOPE   C25 2880   4.583   7.510  10.207 -0.5344 -0.4409  0.2153
   23DOPE   H5R 2881   4.629   7.415  10.172 -1.9507 -0.5346 -1.4966
   23DOPE   H5S 2882   4.648   7.598  10.189  0.5366 -1.4018 -0.8133
   23DOPE   C26 2883   4.448   7.513  10.132 -0.0448 -0.9192  0.5953
   23DOPE   H6R 2884   4.415   7.619  10.127 -1.1679 -1.2856 -0.0024
   23DOPE   H6S 2885   4.378   7.460  10.201 -1.1981  0.5868  0.6274
   23DOPE   C27 2886   4.437   7.454   9.989 -0.2853  0.4252  0.3696
   23DOPE   H7R 2887   4.335   7.479   9.951  0.2875  1.4287 -0.5371
   23DOPE   H7S 2888   4.447   7.343   9.988 -2.0282  0.2451 -0.2366
   23DOPE   C28 2889   4.545   7.518   9.899  0.1457  0.0492  0.4535
   23DOPE   H8R 2890   4.639   7.491   9.953 -1.1963 -0.8527  2.4583
   23DOPE   H8S 2891   4.542   7.629   9.895 -1.5126 -0.0037 -0.8183
   23DOPE   C29 2892   4.535   7.476   9.753 -0.4886 -0.4723 -0.5589
   23DOPE   H9R 2893   4.476   7.535   9.680 -1.5463 -2.0523 -1.0175
   23DOPE  C210 2894   4.611   7.377   9.704 -0.2430  0.2551 -0.3953
   23DOPE  H10R 2895   4.615   7.367   9.595 -0.7442 -1.5459 -0.2729
   23DOPE  C211 2896   4.691   7.270   9.779  0.0781  0.5947  0.1311
   23DOPE  H11R 2897   4.704   7.183   9.711  3.6225  0.8482  0.2567
   23DOPE  H11S 2898   4.625   7.211   9.845  0.8085 -1.6082 -1.0190
   23DOPE  C212 2899   4.827   7.289   9.846  0.4494 -0.0553 -0.4292
   23DOPE  H12R 2900   4.861   7.197   9.897 -0.2017 -0.0212  0.0785
   23DOPE  H12S 2901   4.816   7.367   9.924  1.9197  1.2161 -1.4224
   23DOPE  C213 2902   4.938   7.333   9.744 -0.0195  0.6493 -0.2543
   23DOPE  H13R 2903   4.904   7.434   9.713  0.3666  0.6435 -0.7017
   23DOPE  H13S 2904   4.923   7.273   9.651 -2.5376  1.8466 -0.7010
   23DOPE  C214 2905   5.083   7.323   9.787  0.0805  0.0647  0.1222
   23DOPE  H14R 2906   5.079   7.370   9.887 -1.3033 -0.5631  0.3933
   23DOPE  H14S 2907   5.142   7.383   9.714  0.5457 -0.2184  0.2633
   23DOPE  C215 2908   5.139   7.184   9.798  0.2764  0.3966  0.4020
   23DOPE  H15R 2909   5.130   7.144   9.695 -3.9152  0.5748  0.5431
   23DOPE  H15S 2910   5.094   7.123   9.880  0.5750 -0.5924 -0.1519
   23DOPE  C216 2911   5.286   7.175   9.831  0.4037 -0.1978 -0.8084
   23DOPE  H16R 2912   5.322   7.213   9.929  2.8146  1.0199 -2.0694
   23DOPE  H16S 2913   5.354   7.223   9.756  1.5347 -0.0186  0.2982
   23DOPE  C217 2914   5.318   7.027   9.844  0.0327 -0.3559  0.0875
   23DOPE  H17R 2915   5.323   6.984   9.742 -2.6280  0.4042 -0.4243
   23DOPE  H17S 2916   5.247   6.966   9.905 -1.1168 -1.3236 -2.0912
   23DOPE  C218 2917   5.458   7.004   9.917 -0.0245 -0.8442 -0.2220
   23DOPE  H18R 2918   5.480   6.897   9.898  0.9645 -0.5442 -0.8505
   23DOPE  H18S 2919   5.442   7.024  10.025  0.1911  1.1417 -0.5249
   23DOPE  H18T 2920   5.535   7.074   9.879  1.7568 -1.5112  1.9731
   23DOPE   C33 2921   4.948   7.240  10.351  0.1502 -0.5634  0.0857
   23DOPE   H3X 2922   5.001   7.191  10.266  2.1859  1.2132  0.2553
   23DOPE   H3Y 2923   4.921   7.339  10.309  0.0849 -0.3400  0.6494
   23DOPE   C34 2924   4.815   7.178  10.386  0.5683 -0.0998  0.4578
   23DOPE   H4X 2925   4.835   7.102  10.464 -3.0214 -2.7476 -0.8842
   23DOPE   H4Y 2926   4.750   7.255  10.433 -1.1649 -0.6358 -0.8933
   23DOPE   C35 2927   4.750   7.114  10.263 -0.6089 -0.1957 -0.5245
   23DOPE   H5X 2928   4.798   7.015  10.248 -0.2279  0.1982 -2.0552
   23DOPE   H5Y 2929   4.774   7.173  10.173  1.3787  1.1824  0.8244
   23DOPE   C36 2930   4.603   7.088  10.268 -0.1609 -0.3035 -0.0308
   23DOPE   H6X 2931   4.552   7.187  10.273 -0.0632 -0.2429 -0.2401
   23DOPE   H6Y 2932   4.587   7.057  10.374  2.9721  0.0366  0.6426
   23DOPE   C37 2933   4.547   6.994  10.163  0.4499  1.5805  0.6470
   23DOPE   H7X 2934   4.600   7.010  10.066 -0.5656 -1.1804 -0.4615
   23DOPE   H7Y 2935   4.577   6.891  10.190 -1.2845  0.8970  0.0764
   23DOPE   C38 2936   4.400   7.017  10.140 -0.3196 -0.5211  0.3823
   23DOPE   H8X 2937   4.385   7.127  10.137  0.2092 -0.3060  3.2617
   23DOPE   H8Y 2938   4.345   6.989  10.232 -0.0060 -0.7460  0.5037
   23DOPE   C39 2939   4.349   6.935  10.028 -0.1973  0.3087  0.2326
   23DOPE   H9X 2940   4.394   6.835  10.026 -0.1056  0.3476 -1.2387
   23DOPE  C310 2941   4.304   6.982   9.907 -0.3233  0.3516 -0.7649
   23DOPE  H10X 2942   4.270   6.895   9.849  0.6954 -1.9383  1.8990
   23DOPE  C311 2943   4.236   7.112   9.881  0.5652  0.3308 -0.2828
   23DOPE  H11X 2944   4.217   7.169   9.975  0.8172  1.4079 -0.8707
   23DOPE  H11Y 2945   4.303   7.172   9.815  0.5940 -0.7543 -1.2560
   23DOPE  C312 2946   4.107   7.095   9.800  0.4955 -0.5652  0.0316
   23DOPE  H12X 2947   4.022   7.043   9.848 -0.8260 -0.4293 -2.0538
   23DOPE  H12Y 2948   4.113   7.029   9.711 -1.0458 -0.3163 -0.2862
   23DOPE  C313 2949   4.055   7.230   9.742  0.3154 -0.2384 -0.2837
   23DOPE  H13X 2950   4.058   7.312   9.817 -0.3220  0.2730 -0.7985
   23DOPE  H13Y 2951   4.124   7.271   9.665 -1.5885  2.0888 -0.8865
   23DOPE  C314 2952   3.911   7.209   9.698  0.4102 -0.0624  0.3305
   23DOPE  H14X 2953   3.842   7.206   9.785 -1.2317  2.6662 -0.7317
   23DOPE  H14Y 2954   3.925   7.109   9.651 -0.4123 -1.1049  2.1949
   23DOPE  C315 2955   3.846   7.300   9.593 -0.2389  0.2579 -0.0044
   23DOPE  H15X 2956   3.825   7.234   9.506 -0.8670  1.0595 -0.4702
   23DOPE  H15Y 2957   3.919   7.378   9.565 -0.2739  0.0900 -0.5806
   23DOPE  C316 2958   3.711   7.362   9.635  0.1000  0.0439 -0.0538
   23DOPE  H16X 2959   3.729   7.431   9.720 -2.3367 -2.0597  2.3303
   23DOPE  H16Y 2960   3.644   7.287   9.680 -0.6386  0.9755  0.4269
   23DOPE  C317 2961   3.649   7.456   9.528  0.4680  0.2613  0.0816
   23DOPE  H17X 2962   3.738   7.508   9.487  0.5900  0.8961  1.1194
   23DOPE  H17Y 2963   3.612   7.379   9.457 -1.2101  0.0675  1.1098
   23DOPE  C318 2964   3.543   7.557   9.574  0.5855 -0.1490 -0.8419
   23DOPE  H18X 2965   3.591   7.628   9.644  0.2827  0.8657 -1.6392
   23DOPE  H18Y 2966   3.497   7.619   9.494 -3.2192 -0.5227  0.8266
   23DOPE  H18Z 2967   3.461   7.506   9.630  1.3188  0.0966  0.4854
   24DOPE     N 2968   6.893   5.574  10.849 -0.6380 -0.1802  0.0395
   24DOPE   HN1 2969   6.940   5.629  10.775  0.2642  0.1041  0.8059
   24DOPE   HN2 2970   6.862   5.636  10.927 -2.1235 -0.3873 -0.3530
   24DOPE   HN3 2971   6.965   5.511  10.890  0.4187  1.5707  0.9941
   24DOPE   C12 2972   6.778   5.491  10.805  0.1589 -0.0673  0.2526
   24DOPE  H12A 2973   6.704   5.554  10.753  0.4933 -0.1553 -0.3330
   24DOPE  H12B 2974   6.732   5.440  10.893  0.1315 -5.2870 -2.4085
   24DOPE   C11 2975   6.840   5.375  10.721  0.4283  0.6483  0.1275
   24DOPE  H11A 2976   6.858   5.420  10.621  0.7190 -1.2946 -0.7530
   24DOPE  H11B 2977   6.758   5.300  10.715 -0.5270  1.4414  2.1543
   24DOPE     P 2978   6.948   5.208  10.884 -0.4560 -0.1250 -0.5197
   24DOPE   O13 2979   6.848   5.258  10.982 -0.3269 -0.2013 -0.4138
   24DOPE   O14 2980   7.082   5.170  10.941  0.5934 -0.2169  0.3296
   24DOPE   O11 2981   6.883   5.084  10.814  0.3800 -0.3527  0.1269
   24DOPE   O12 2982   6.962   5.313  10.764  0.1096 -0.1088 -0.0160
   24DOPE    C1 2983   6.970   4.986  10.743  0.0304 -0.3515  0.0049
   24DOPE    HA 2984   6.962   4.892  10.803  0.4399 -0.4582 -0.1029
   24DOPE    HB 2985   7.077   5.017  10.741  0.4367 -1.7021 -1.2026
   24DOPE    C2 2986   6.918   4.967  10.598 -0.6139 -0.0581 -0.3066
   24DOPE    HS 2987   6.808   4.984  10.600 -0.5524  0.5181  2.6670
   24DOPE   O21 2988   6.960   4.838  10.545 -0.7275 -0.0453 -0.2430
   24DOPE   C21 2989   6.907   4.727  10.605  0.1929 -0.6216  0.0337
   24DOPE   O22 2990   6.810   4.725  10.679  0.2808  0.1472  0.5421
   24DOPE   C22 2991   6.978   4.604  10.551 -0.7900  0.0688 -0.7705
   24DOPE   H2R 2992   7.082   4.606  10.590 -0.3153  2.0927 -1.9642
   24DOPE   H2S 2993   6.979   4.608  10.440  0.2257  1.5359 -0.7518
   24DOPE    C3 2994   6.974   5.075  10.500 -0.8002  0.0158  0.8426
   24DOPE    HX 2995   7.084   5.059  10.490 -0.6951  1.0283  0.1509
   24DOPE    HY 2996   6.961   5.176  10.544 -1.2618  0.0571  0.6156
   24DOPE   O31 2997   6.905   5.065  10.376 -0.1544  0.3578 -0.0035
   24DOPE   C31 2998   6.948   5.146  10.284  0.8650 -0.4466 -0.2637
   24DOPE   O32 2999   7.038   5.226  10.289  0.3496  0.2736 -0.4819
   24DOPE   C32 3000   6.847   5.138  10.174 -0.3058  0.2378  0.3170
   24DOPE   H2X 3001   6.891   5.073  10.094 -2.1166 -1.0491  0.3047
   24DOPE   H2Y 3002   6.754   5.085  10.206 -0.2860 -1.5147 -2.2046
   24DOPE   C23 3003   6.907   4.481  10.603  0.3851  0.4588  0.1129
   24DOPE   H3R 3004   6.889   4.482  10.713  2.6120  0.8538  0.5275
   24DOPE   H3S 3005   6.981   4.399  10.589  0.9448  1.0341 -0.2949
   24DOPE   C24 3006   6.775   4.434  10.533 -0.1948 -0.0375  0.0701
   24DOPE   H4R 3007   6.696   4.508  10.562 -2.0728 -1.8785 -0.0917
   24DOPE   H4S 3008   6.753   4.340  10.587  0.0528  1.5282  3.0815
   24DOPE   C25 3009   6.783   4.423  10.380  0.6411 -0.5502 -0.0210
   24DOPE   H5R 3010   6.866   4.359  10.343 -0.1805 -1.4123 -0.4060
   24DOPE   H5S 3011   6.812   4.526  10.350  3.9219 -0.3246  3.1967
   24DOPE   C26 3012   6.647   4.387  10.311 -0.0222 -0.3055  0.1344
   24DOPE   H6R 3013   6.567   4.454  10.350  0.0664 -0.2559  0.2308
   24DOPE   H6S 3014   6.621   4.286  10.349 -0.7383 -0.3809 -0.5212
   24DOPE   C27 3015   6.640   4.380  10.160  0.4610 -0.0934 -0.7480
   24DOPE   H7R 3016   6.733   4.326  10.131  1.3470  0.4792  0.9081
   24DOPE   H7S 3017   6.639   4.487  10.131  0.1130 -0.0508 -0.5834
   24DOPE   C28 3018   6.511   4.317  10.105  0.1748 -0.7569  0.1956
   24DOPE   H8R 3019   6.427   4.368  10.159 -0.7389  0.4973 -2.2586
   24DOPE   H8S 3020   6.511   4.211  10.137 -1.4644 -0.3359  1.8122
   24DOPE   C29 3021   6.500   4.326   9.955  0.7489 -0.4448 -0.1427
   24DOPE   H9R 3022   6.583   4.372   9.899  0.1529  1.3853  0.3782
   24DOPE  C210 3023   6.384   4.307   9.891 -0.2522 -0.1986 -0.0689
   24DOPE  H10R 3024   6.371   4.310   9.781 -0.7327 -0.7793 -0.0338
   24DOPE  C211 3025   6.265   4.248   9.963  0.2153 -0.2837 -0.7082
   24DOPE  H11R 3026   6.257   4.296  10.063 -1.3263  2.6269 -2.0814
   24DOPE  H11S 3027   6.279   4.138   9.971 -0.8529 -0.3585  0.4946
   24DOPE  C212 3028   6.129   4.244   9.893 -0.3698 -0.0635 -0.1916
   24DOPE  H12R 3029   6.093   4.349   9.884  1.5201  1.4250  5.4059
   24DOPE  H12S 3030   6.066   4.190   9.967  0.2490 -1.6365 -0.7776
   24DOPE  C213 3031   6.125   4.169   9.764 -0.9684  0.2972  0.2800
   24DOPE  H13R 3032   6.186   4.077   9.775 -1.3859  0.2088  2.2624
   24DOPE  H13S 3033   6.176   4.226   9.683 -0.0414 -2.3858 -1.1460
   24DOPE  C214 3034   5.982   4.143   9.714 -0.3032  0.4199  0.3621
   24DOPE  H14R 3035   5.932   4.241   9.732  2.6941  2.0770  0.2981
   24DOPE  H14S 3036   5.936   4.061   9.773  1.5544  0.3302  1.7628
   24DOPE  C215 3037   5.980   4.098   9.569  0.3264 -0.0181  0.2235
   24DOPE  H15R 3038   5.885   4.043   9.552 -0.9717  1.9778  0.6695
   24DOPE  H15S 3039   6.062   4.025   9.555 -3.1416 -3.9591 -2.1541
   24DOPE  C216 3040   6.006   4.205   9.458 -0.3914 -0.0017 -0.0884
   24DOPE  H16R 3041   6.108   4.249   9.468  0.1263 -1.2400  0.3609
   24DOPE  H16S 3042   5.920   4.273   9.474 -0.4327 -0.3819  1.5877
   24DOPE  C217 3043   5.979   4.156   9.316 -0.1152 -0.0457  0.0698
   24DOPE  H17R 3044   5.956   4.239   9.246  1.8586 -1.7508 -2.8145
   24DOPE  H17S 3045   5.880   4.107   9.313 -0.7777  1.1390  1.3755
   24DOPE  C218 3046   6.096   4.078   9.254 -0.1092  0.7296 -0.5442
   24DOPE  H18R 3047   6.186   4.137   9.228  1.3799 -0.9980  0.4435
   24DOPE  H18S 3048   6.053   4.025   9.167 -2.3082  1.4930  0.0029
   24DOPE  H18T 3049   6.125   3.998   9.326  1.6819  0.8611 -1.0859
   24DOPE   C33 3050   6.825   5.272  10.089  0.7505  0.6857 -0.5073
   24DOPE   H3X 3051   6.915   5.310  10.037  1.1774  0.2835 -0.0776
   24DOPE   H3Y 3052   6.778   5.350  10.153 -0.9757 -0.4490 -0.3269
   24DOPE   C34 3053   6.719   5.242   9.979 -0.0973  0.5639  0.0724
   24DOPE   H4X 3054   6.743   5.316   9.899  0.5905 -1.9907 -2.2630
   24DOPE   H4Y 3055   6.747   5.145   9.931  0.9111  0.5054  0.7472
   24DOPE   C35 3056   6.572   5.234  10.023  0.0416 -0.3323 -0.5374
   24DOPE   H5X 3057   6.561   5.338  10.059  0.6433 -0.7635  0.9872
   24DOPE   H5Y 3058   6.562   5.159  10.105 -1.7028  1.3224  0.8553
   24DOPE   C36 3059   6.463   5.212   9.915 -0.0846 -0.1949  0.3213
   24DOPE   H6X 3060   6.364   5.218   9.965  1.1216  2.1058  2.7073
   24DOPE   H6Y 3061   6.484   5.112   9.873 -0.4037  0.5423 -1.7285
   24DOPE   C37 3062   6.477   5.318   9.801 -0.1076  0.5440  0.1590
   24DOPE   H7X 3063   6.481   5.415   9.856  0.8005  0.4017  0.3639
   24DOPE   H7Y 3064   6.576   5.299   9.754  0.5714 -1.7783  2.3563
   24DOPE   C38 3065   6.375   5.326   9.690 -0.1535 -0.7561  0.5693
   24DOPE   H8X 3066   6.420   5.395   9.616  2.2623 -2.8155 -0.0089
   24DOPE   H8Y 3067   6.287   5.387   9.720  1.7423  2.2856  0.3302
   24DOPE   C39 3068   6.328   5.192   9.625 -0.5616 -0.4827 -0.0974
   24DOPE   H9X 3069   6.225   5.160   9.645 -0.1785 -2.8825 -1.5633
   24DOPE  C310 3070   6.406   5.114   9.549 -0.2759  0.0123 -0.1807
   24DOPE  H10X 3071   6.367   5.029   9.491  0.1777  0.2777 -0.8760
   24DOPE  C311 3072   6.558   5.135   9.511  0.2792  0.2346 -0.5045
   24DOPE  H11X 3073   6.607   5.217   9.567  0.4492  0.3300 -0.7891
   24DOPE  H11Y 3074   6.619   5.045   9.532 -0.1909 -0.0640 -0.4076
   24DOPE  C312 3075   6.569   5.164   9.360 -0.6911 -0.3859 -0.9065
   24DOPE  H12X 3076   6.517   5.259   9.337 -0.8347 -0.4888 -1.0105
   24DOPE  H12Y 3077   6.528   5.083   9.296 -0.7084 -0.9863 -0.1527
   24DOPE  C313 3078   6.716   5.175   9.314 -0.2072 -0.2895  0.4725
   24DOPE  H13X 3079   6.782   5.096   9.356  0.1405 -1.2665 -1.8025
   24DOPE  H13Y 3080   6.726   5.144   9.208  0.6109 -2.1966  1.0710
   24DOPE  C314 3081   6.789   5.312   9.329 -0.1146  0.2312 -0.1768
   24DOPE  H14X 3082   6.777   5.360   9.428  0.2639 -0.4834  0.2151
   24DOPE  H14Y 3083   6.746   5.373   9.246  3.1340 -1.2507 -3.2244
   24DOPE  C315 3084   6.941   5.302   9.293  0.0936 -0.7042 -0.2520
   24DOPE  H15X 3085   6.989   5.214   9.341  3.2619  1.2057  0.3355
   24DOPE  H15Y 3086   6.994   5.387   9.340 -1.6697  0.2227  0.1599
   24DOPE  C316 3087   6.979   5.287   9.146  0.0564 -0.1865  0.5949
   24DOPE  H16X 3088   6.924   5.366   9.091 -1.4022 -0.8703  0.9993
   24DOPE  H16Y 3089   6.932   5.198   9.098  0.8765  0.6624 -1.9155
   24DOPE  C317 3090   7.131   5.293   9.124 -0.2179 -0.4852  0.2163
   24DOPE  H17X 3091   7.168   5.391   9.163  0.6318  0.4257 -2.6193
   24DOPE  H17Y 3092   7.175   5.211   9.184 -1.8816 -3.1344 -1.9665
   24DOPE  C318 3093   7.163   5.284   8.979 -0.2830 -0.9520  0.0143
   24DOPE  H18X 3094   7.266   5.326   8.971 -1.0164  1.1509  0.8517
   24DOPE  H18Y 3095   7.160   5.183   8.933 -1.3368 -0.7644 -0.3483
   24DOPE  H18Z 3096   7.092   5.350   8.925 -1.8503 -0.7531  2.1993
   25DOPE     N 3097   0.390   5.875  11.174  0.4320 -0.8384 -0.5346
   25DOPE   HN1 3098   0.451   5.924  11.243  1.2113  1.3164 -2.6398
   25DOPE   HN2 3099   0.447   5.804  11.125 -1.0889 -2.1231 -0.5523
   25DOPE   HN3 3100   0.363   5.947  11.104  1.5426  0.9481  0.7901
   25DOPE   C12 3101   0.261   5.810  11.234 -0.9778  0.6141  0.1577
   25DOPE  H12A 3102   0.202   5.787  11.142 -1.4952  1.5677  0.2408
   25DOPE  H12B 3103   0.209   5.888  11.293 -0.1668  0.6314  0.8739
   25DOPE   C11 3104   0.294   5.687  11.312  0.0100 -0.2980 -0.2606
   25DOPE  H11A 3105   0.197   5.649  11.349  0.1309 -0.9711 -0.6087
   25DOPE  H11B 3106   0.368   5.720  11.387 -0.0082  0.4522 -0.5657
   25DOPE     P 3107   0.313   5.446  11.207 -0.0658 -0.1024  0.0583
   25DOPE   O13 3108   0.257   5.391  11.328  0.0990  0.2945 -0.0562
   25DOPE   O14 3109   0.430   5.369  11.152 -0.4628 -0.0793  0.4443
   25DOPE   O11 3110   0.203   5.455  11.097  0.5288  0.3677  0.2256
   25DOPE   O12 3111   0.363   5.592  11.221  0.9608 -0.6155  0.1298
   25DOPE    C1 3112   0.220   5.545  10.985 -0.4828 -0.0199 -0.1846
   25DOPE    HA 3113   0.317   5.599  10.987 -0.5434  0.0757  0.9650
   25DOPE    HB 3114   0.134   5.615  10.997 -1.1272 -0.6232 -1.1533
   25DOPE    C2 3115   0.210   5.481  10.854 -0.6910 -0.1282  0.7782
   25DOPE    HS 3116   0.107   5.440  10.845  0.3079 -2.6751  0.2369
   25DOPE   O21 3117   0.312   5.391  10.823  0.3673 -0.2482  0.2053
   25DOPE   C21 3118   0.277   5.261  10.836 -0.9610 -0.2621 -0.4972
   25DOPE   O22 3119   0.168   5.221  10.870  0.1519 -0.0467  0.6479
   25DOPE   C22 3120   0.402   5.177  10.820  0.5092  0.2362 -0.8335
   25DOPE   H2R 3121   0.369   5.072  10.838 -1.1766  0.9633  0.6898
   25DOPE   H2S 3122   0.476   5.203  10.898  1.8088 -1.0158 -1.5986
   25DOPE    C3 3123   0.229   5.593  10.752 -0.7004 -0.6005 -0.4961
   25DOPE    HX 3124   0.332   5.632  10.768 -0.6897 -0.1058 -1.6230
   25DOPE    HY 3125   0.153   5.669  10.782 -0.5162 -0.3739 -0.5946
   25DOPE   O31 3126   0.223   5.551  10.616 -0.1039  0.1260  0.2611
   25DOPE   C31 3127   0.107   5.513  10.566  0.2618  0.0812 -0.2332
   25DOPE   O32 3128   0.002   5.502  10.627 -0.1087  0.3059 -0.0599
   25DOPE   C32 3129   0.125   5.484  10.422 -0.0559  0.1497 -0.4412
   25DOPE   H2X 3130   0.055   5.547  10.363 -1.4639 -1.3992 -0.4901
   25DOPE   H2Y 3131   0.230   5.503  10.390  0.8654 -3.1943  0.1640
   25DOPE   C23 3132   0.476   5.187  10.681 -0.1727 -0.5681  0.0457
   25DOPE   H3R 3133   0.582   5.160  10.697  0.9127  2.7762 -0.8439
   25DOPE   H3S 3134   0.473   5.294  10.653  1.5562 -0.3480  0.6304
   25DOPE   C24 3135   0.417   5.095  10.581  0.3176 -0.0057  0.7142
   25DOPE   H4R 3136   0.307   5.103  10.576  0.3901  0.2063 -0.8955
   25DOPE   H4S 3137   0.437   4.995  10.625  2.5244  0.5795  1.1912
   25DOPE   C25 3138   0.471   5.114  10.444 -0.7372 -0.3146 -0.0115
   25DOPE   H5R 3139   0.581   5.102  10.436 -0.7776 -0.8258  0.1328
   25DOPE   H5S 3140   0.445   5.219  10.422  0.4912  0.5673  2.3951
   25DOPE   C26 3141   0.421   5.009  10.342  0.0723 -0.1634  0.0958
   25DOPE   H6R 3142   0.444   5.046  10.240  0.0483  1.7965  0.7590
   25DOPE   H6S 3143   0.312   4.995  10.360  0.1314  1.2678  1.8283
   25DOPE   C27 3144   0.486   4.871  10.339 -0.1094 -0.2101  0.2510
   25DOPE   H7R 3145   0.470   4.808  10.429 -1.0117  2.1585  1.8448
   25DOPE   H7S 3146   0.597   4.876  10.336  0.0534 -2.3772 -3.3258
   25DOPE   C28 3147   0.424   4.802  10.211  0.6737  0.2666  0.1117
   25DOPE   H8R 3148   0.413   4.874  10.127 -1.9246  1.4473  1.3327
   25DOPE   H8S 3149   0.320   4.768  10.233 -0.0099  2.1575  0.0126
   25DOPE   C29 3150   0.505   4.678  10.175  0.4497 -0.2253 -0.2725
   25DOPE   H9R 3151   0.496   4.596  10.247  1.2547  0.5386  0.7386
   25DOPE  C210 3152   0.569   4.656  10.058 -0.6519 -0.1302 -0.3214
   25DOPE  H10R 3153   0.627   4.563  10.049 -0.0976 -0.1052  2.2105
   25DOPE  C211 3154   0.582   4.749   9.944 -1.0033  0.6084 -0.0926
   25DOPE  H11R 3155   0.679   4.803   9.956 -1.4013  1.5236 -0.8042
   25DOPE  H11S 3156   0.517   4.838   9.948 -0.6907  0.8261  0.1777
   25DOPE  C212 3157   0.588   4.687   9.802  0.4487  0.3190 -0.2578
   25DOPE  H12R 3158   0.508   4.610   9.788 -2.0882  2.8811 -0.7435
   25DOPE  H12S 3159   0.681   4.626   9.796 -0.3988 -0.9845 -0.5818
   25DOPE  C213 3160   0.582   4.790   9.687  0.1452 -0.2695 -0.4635
   25DOPE  H13R 3161   0.632   4.882   9.725  0.3892 -0.3645 -0.5485
   25DOPE  H13S 3162   0.480   4.826   9.661  0.0299 -0.9278 -0.9399
   25DOPE  C214 3163   0.642   4.749   9.554 -0.2706 -0.3088 -0.7104
   25DOPE  H14R 3164   0.617   4.646   9.522 -0.3734 -0.3481 -0.5087
   25DOPE  H14S 3165   0.753   4.746   9.550 -0.3021 -0.2313 -1.8097
   25DOPE  C215 3166   0.600   4.844   9.449  0.0057 -0.5408  0.2455
   25DOPE  H15R 3167   0.616   4.947   9.486 -2.5009  0.2601 -0.7079
   25DOPE  H15S 3168   0.489   4.837   9.448 -0.0774  0.6578 -0.2224
   25DOPE  C216 3169   0.670   4.831   9.319 -0.4422  0.3844  0.0770
   25DOPE  H16R 3170   0.622   4.907   9.255 -0.5633  0.6029  0.4249
   25DOPE  H16S 3171   0.646   4.733   9.271 -0.4730 -0.5482  1.8990
   25DOPE  C217 3172   0.832   4.834   9.325  0.8434  0.4905 -0.1221
   25DOPE  H17R 3173   0.864   4.739   9.374  3.1729  1.0598 -0.4051
   25DOPE  H17S 3174   0.853   4.916   9.397 -0.4346  0.3435  0.4556
   25DOPE  C218 3175   0.903   4.849   9.189 -0.0679  0.0010  0.2201
   25DOPE  H18R 3176   0.880   4.946   9.139 -1.2039 -0.8778 -1.0368
   25DOPE  H18S 3177   0.881   4.769   9.115  1.4360  1.1626 -1.5589
   25DOPE  H18T 3178   1.010   4.838   9.215  0.3416  2.2538 -0.3142
   25DOPE   C33 3179   0.113   5.336  10.378 -0.1354 -0.0368  0.6954
   25DOPE   H3X 3180   0.004   5.321  10.358  0.2075 -0.6868 -0.8306
   25DOPE   H3Y 3181   0.130   5.269  10.464  0.0819 -0.8161  0.0584
   25DOPE   C34 3182   0.183   5.290  10.246  0.4828  0.4096  0.5577
   25DOPE   H4X 3183   0.162   5.358  10.161  1.4943  1.9902  1.5128
   25DOPE   H4Y 3184   0.292   5.298  10.265  0.5794  1.2121 -0.2995
   25DOPE   C35 3185   0.135   5.158  10.192  0.3225 -0.1178  0.1344
   25DOPE   H5X 3186   0.028   5.170  10.165  0.2481  2.1944  1.2118
   25DOPE   H5Y 3187   0.130   5.076  10.267  1.3158 -1.9463 -1.7182
   25DOPE   C36 3188   0.215   5.124  10.066  0.1837  0.3889  0.7810
   25DOPE   H6X 3189   0.322   5.113  10.092 -0.0857 -2.6583  1.0403
   25DOPE   H6Y 3190   0.208   5.208   9.994  0.2107 -1.8154 -1.9871
   25DOPE   C37 3191   0.159   5.000   9.996 -0.0979  0.1064 -0.0965
   25DOPE   H7X 3192   0.166   4.921  10.073 -1.4196  0.4418  0.3932
   25DOPE   H7Y 3193   0.052   5.023   9.975 -0.3109 -1.5674 -1.0481
   25DOPE   C38 3194   0.234   4.966   9.865 -0.2089 -0.0377  0.0063
   25DOPE   H8X 3195   0.202   4.863   9.837 -0.2177  0.1406 -0.6355
   25DOPE   H8Y 3196   0.343   4.965   9.888 -0.3400  0.0245  0.6587
   25DOPE   C39 3197   0.227   5.059   9.748 -0.3994  0.2969  0.7211
   25DOPE   H9X 3198   0.322   5.085   9.700 -0.7253  1.2548  0.5698
   25DOPE  C310 3199   0.118   5.097   9.675  0.2345 -0.0334 -0.3100
   25DOPE  H10X 3200   0.142   5.157   9.585 -0.3037  1.3442  0.4331
   25DOPE  C311 3201  -0.028   5.072   9.687  0.5471 -0.5672  0.0048
   25DOPE  H11X 3202  -0.058   5.031   9.786 -1.1606 -2.7108 -1.3186
   25DOPE  H11Y 3203  -0.083   5.167   9.674  1.4451  0.0988  0.9853
   25DOPE  C312 3204  -0.071   4.961   9.583  0.1809 -0.2181 -0.2128
   25DOPE  H12X 3205  -0.020   4.865   9.606  1.0364  0.6458  1.7755
   25DOPE  H12Y 3206  -0.048   4.995   9.480 -1.4946  0.6299 -0.3414
   25DOPE  C313 3207  -0.222   4.948   9.575  0.5600  0.3783  0.6110
   25DOPE  H13X 3208  -0.249   4.879   9.659 -1.9753  0.1121 -0.3251
   25DOPE  H13Y 3209  -0.281   5.041   9.587 -0.7749 -0.1302 -1.4835
   25DOPE  C314 3210  -0.278   4.913   9.435  0.2231 -0.4130  0.2363
   25DOPE  H14X 3211  -0.217   4.832   9.389 -0.3267 -0.6362 -0.1094
   25DOPE  H14Y 3212  -0.253   4.991   9.360  1.9170 -2.3801 -1.3907
   25DOPE  C315 3213  -0.430   4.889   9.436 -0.7540  0.3513 -0.1237
   25DOPE  H15X 3214  -0.471   4.981   9.484  0.8259  0.1431  1.7127
   25DOPE  H15Y 3215  -0.449   4.804   9.506  1.4902  0.8432  1.1506
   25DOPE  C316 3216  -0.503   4.884   9.293 -0.4004 -0.0155 -0.2562
   25DOPE  H16X 3217  -0.482   4.788   9.243 -0.1883 -0.2075  0.1941
   25DOPE  H16Y 3218  -0.468   4.969   9.231 -1.3268 -0.1942 -1.0490
   25DOPE  C317 3219  -0.650   4.910   9.307 -0.0642  0.4978 -0.4986
   25DOPE  H17X 3220  -0.687   4.835   9.380  2.1975  0.0554  0.2729
   25DOPE  H17Y 3221  -0.661   5.012   9.349 -1.2826 -0.4769  1.6902
   25DOPE  C318 3222  -0.731   4.907   9.175 -0.5438  0.1738 -0.1777
   25DOPE  H18X 3223  -0.718   4.808   9.125  0.7601 -0.6987  1.7815
   25DOPE  H18Y 3224  -0.836   4.919   9.209  0.4163  2.6295  2.2920
   25DOPE  H18Z 3225  -0.694   4.989   9.109 -0.6814 -0.0319 -0.5113
   26DOPE     N 3226   0.506   6.294  11.349 -0.5002  0.4258  0.1598
   26DOPE   HN1 3227   0.405   6.269  11.342 -0.5916  0.6666  0.5629
   26DOPE   HN2 3228   0.547   6.242  11.430  2.5544  1.1015 -0.8167
   26DOPE   HN3 3229   0.530   6.395  11.352 -1.3206  0.6349  0.0201
   26DOPE   C12 3230   0.571   6.239  11.223 -0.0725  0.1786  0.5297
   26DOPE  H12A 3231   0.518   6.142  11.206 -0.6953  0.3897  1.2193
   26DOPE  H12B 3232   0.674   6.209  11.250  0.7298  0.6853 -1.7456
   26DOPE   C11 3233   0.570   6.327  11.091  0.7382  1.2895  0.4807
   26DOPE  H11A 3234   0.465   6.348  11.060  0.9815  0.7183 -0.8321
   26DOPE  H11B 3235   0.612   6.253  11.018  0.9464  0.8645  1.0245
   26DOPE     P 3236   0.801   6.446  11.096 -0.3555  0.0278  0.1330
   26DOPE   O13 3237   0.852   6.377  11.217 -0.5497 -0.0266  0.3737
   26DOPE   O14 3238   0.842   6.586  11.066  0.2629  0.3751  0.1508
   26DOPE   O11 3239   0.829   6.354  10.964 -0.0697  0.4441  1.0574
   26DOPE   O12 3240   0.648   6.448  11.103 -0.3789  0.2640 -0.1215
   26DOPE    C1 3241   0.855   6.395  10.835  0.4399  0.1353  0.0000
   26DOPE    HA 3242   0.936   6.338  10.784 -1.0006 -1.0818 -1.0204
   26DOPE    HB 3243   0.883   6.502  10.836 -0.5437  0.4007 -0.0363
   26DOPE    C2 3244   0.729   6.388  10.743  0.2007  0.7501 -0.1824
   26DOPE    HS 3245   0.656   6.463  10.781  1.2965  1.8678 -0.2600
   26DOPE   O21 3246   0.677   6.253  10.758  0.5280 -0.5558 -0.0390
   26DOPE   C21 3247   0.564   6.223  10.709  0.2478 -0.0979  0.5679
   26DOPE   O22 3248   0.497   6.289  10.628 -0.0155 -0.9141  0.3385
   26DOPE   C22 3249   0.541   6.073  10.741  0.3498 -0.5215  0.1285
   26DOPE   H2R 3250   0.434   6.046  10.727 -0.3165 -0.0141  3.2805
   26DOPE   H2S 3251   0.570   6.059  10.848 -1.1842 -3.0573  0.2875
   26DOPE    C3 3252   0.763   6.428  10.595 -0.3483  0.2306 -0.2269
   26DOPE    HX 3253   0.674   6.435  10.529 -1.1490 -0.4363  0.7563
   26DOPE    HY 3254   0.831   6.345  10.567  1.2257  2.2689 -2.8629
   26DOPE   O31 3255   0.831   6.559  10.597 -0.1917  0.6036 -0.5832
   26DOPE   C31 3256   0.753   6.665  10.595  0.0580 -0.2245 -0.0222
   26DOPE   O32 3257   0.634   6.664  10.598 -0.2894 -0.2808  0.1205
   26DOPE   C32 3258   0.842   6.790  10.590  0.0386 -0.9062 -0.3480
   26DOPE   H2X 3259   0.788   6.875  10.637  1.8114  0.5461 -0.8289
   26DOPE   H2Y 3260   0.936   6.764  10.643 -1.4584 -3.5221  1.2570
   26DOPE   C23 3261   0.635   5.983  10.652  0.1256 -0.2360 -0.3645
   26DOPE   H3R 3262   0.743   6.005  10.668 -0.2062  0.5609  0.9342
   26DOPE   H3S 3263   0.613   6.025  10.552  0.0875  1.2522  0.2512
   26DOPE   C24 3264   0.605   5.835  10.673  0.0886 -0.6213  0.7463
   26DOPE   H4R 3265   0.570   5.820  10.778  1.5172 -0.1719  1.3005
   26DOPE   H4S 3266   0.694   5.770  10.658  0.4079 -0.0693  0.1930
   26DOPE   C25 3267   0.507   5.781  10.575 -0.0359  0.4331 -0.4973
   26DOPE   H5R 3268   0.420   5.850  10.568 -1.5330 -1.4495 -1.4189
   26DOPE   H5S 3269   0.482   5.678  10.607  0.6770 -0.0225 -1.3656
   26DOPE   C26 3270   0.565   5.767  10.430 -0.1999 -0.9066 -0.4100
   26DOPE   H6R 3271   0.630   5.677  10.425 -1.4501 -1.9285  1.0025
   26DOPE   H6S 3272   0.613   5.863  10.401 -3.0164  0.2149 -1.6885
   26DOPE   C27 3273   0.452   5.735  10.326 -0.5770 -0.1878  0.0928
   26DOPE   H7R 3274   0.375   5.814  10.340 -1.5670 -1.1933  0.4470
   26DOPE   H7S 3275   0.400   5.638  10.336 -0.1947 -0.6415 -1.8115
   26DOPE   C28 3276   0.514   5.722  10.182  0.2307 -0.2293 -0.6440
   26DOPE   H8R 3277   0.612   5.774  10.177 -0.0204  0.2285 -0.8245
   26DOPE   H8S 3278   0.442   5.774  10.116 -0.1454  2.5099  1.7008
   26DOPE   C29 3279   0.528   5.578  10.136 -0.2909  0.5274 -0.3871
   26DOPE   H9R 3280   0.573   5.513  10.212 -1.0134  0.7883  0.2759
   26DOPE  C210 3281   0.488   5.518  10.027 -0.1291  0.0472 -0.0822
   26DOPE  H10R 3282   0.495   5.409  10.017 -1.3926 -0.2675  1.9230
   26DOPE  C211 3283   0.433   5.579   9.903 -0.2525 -0.5060 -0.3406
   26DOPE  H11R 3284   0.514   5.609   9.832  0.6633  0.7847  1.1897
   26DOPE  H11S 3285   0.378   5.670   9.934  0.6887  0.5279 -1.5835
   26DOPE  C212 3286   0.337   5.491   9.823 -0.1387  0.5362 -0.5047
   26DOPE  H12R 3287   0.259   5.470   9.900  1.5301 -0.2724  1.0439
   26DOPE  H12S 3288   0.383   5.397   9.786  0.1548  1.0842 -1.5595
   26DOPE  C213 3289   0.286   5.554   9.701 -0.0240 -0.6185 -0.0172
   26DOPE  H13R 3290   0.353   5.532   9.615  0.5513  0.3303  0.1689
   26DOPE  H13S 3291   0.281   5.665   9.708  0.3084 -0.5028 -1.3566
   26DOPE  C214 3292   0.143   5.497   9.672 -0.2498 -0.3336 -0.1117
   26DOPE  H14R 3293   0.071   5.553   9.735 -1.7555 -0.0081 -2.0102
   26DOPE  H14S 3294   0.129   5.391   9.703 -2.9487  0.5134  1.9786
   26DOPE  C215 3295   0.112   5.523   9.530 -0.2188 -0.5831  0.8827
   26DOPE  H15R 3296   0.162   5.446   9.467 -0.2124 -0.5051  0.7922
   26DOPE  H15S 3297   0.155   5.618   9.492 -1.2197 -0.3169  0.3722
   26DOPE  C216 3298  -0.040   5.527   9.496 -0.9254  0.2999 -1.1248
   26DOPE  H16R 3299  -0.053   5.604   9.418 -0.9756  1.0876 -0.3486
   26DOPE  H16S 3300  -0.102   5.556   9.584 -0.5703 -0.6733 -0.5250
   26DOPE  C217 3301  -0.077   5.391   9.442  1.1252  0.0275  0.3380
   26DOPE  H17R 3302  -0.070   5.312   9.519  0.6779 -0.2535  0.0960
   26DOPE  H17S 3303  -0.008   5.372   9.358  0.3880  1.0841 -0.5400
   26DOPE  C218 3304  -0.229   5.388   9.402 -0.8217  0.8384  0.1332
   26DOPE  H18R 3305  -0.301   5.420   9.481 -0.7629 -1.5917  1.2444
   26DOPE  H18S 3306  -0.255   5.289   9.359 -0.1482  0.9557 -0.5641
   26DOPE  H18T 3307  -0.238   5.453   9.313  2.3645 -0.4681 -1.2946
   26DOPE   C33 3308   0.862   6.853  10.450 -0.0555  0.0341 -0.5912
   26DOPE   H3X 3309   0.938   6.933  10.465  2.4802 -2.3502  0.0729
   26DOPE   H3Y 3310   0.763   6.891  10.417 -0.9820 -1.5325  0.3185
   26DOPE   C34 3311   0.919   6.761  10.339  1.0387  0.1559  0.0830
   26DOPE   H4X 3312   1.006   6.704  10.380  0.1350 -1.4160 -0.1030
   26DOPE   H4Y 3313   0.838   6.693  10.304  0.0008  2.3636 -2.1918
   26DOPE   C35 3314   0.977   6.843  10.221 -0.7742 -0.1378  0.2461
   26DOPE   H5X 3315   1.045   6.926  10.250  0.1763 -0.7377 -0.2031
   26DOPE   H5Y 3316   0.888   6.897  10.183 -1.0472  3.0482  4.6592
   26DOPE   C36 3317   1.043   6.763  10.114  0.9565  0.4305 -0.5861
   26DOPE   H6X 3318   0.975   6.681  10.082 -1.5864  3.0240 -2.2705
   26DOPE   H6Y 3319   1.141   6.720  10.146  0.1652 -1.9109 -1.0817
   26DOPE   C37 3320   1.058   6.841   9.978  0.7316  0.0367 -0.3016
   26DOPE   H7X 3321   0.958   6.877   9.947 -0.1682 -2.0070  0.0380
   26DOPE   H7Y 3322   1.120   6.933   9.981  0.5519  0.1327  0.6843
   26DOPE   C38 3323   1.101   6.761   9.853 -0.0649 -0.4565  0.4725
   26DOPE   H8X 3324   1.031   6.675   9.851 -1.7288  0.8042  1.5197
   26DOPE   H8Y 3325   1.201   6.715   9.865  0.7597  1.1055 -0.0207
   26DOPE   C39 3326   1.071   6.818   9.714  0.2322  0.1627 -0.0774
   26DOPE   H9X 3327   0.965   6.847   9.704  0.0317 -0.6725 -0.4803
   26DOPE  C310 3328   1.160   6.877   9.624  0.3556 -0.2558 -0.2763
   26DOPE  H10X 3329   1.120   6.912   9.528  0.2716  0.3029 -0.0438
   26DOPE  C311 3330   1.310   6.872   9.650 -0.4517 -0.1506  0.1830
   26DOPE  H11X 3331   1.359   6.963   9.609 -2.1957  0.2283 -1.1757
   26DOPE  H11Y 3332   1.319   6.883   9.761  1.1131  1.9805 -0.0817
   26DOPE  C312 3333   1.383   6.745   9.596  0.3468 -0.2368 -0.6231
   26DOPE  H12X 3334   1.330   6.652   9.625 -2.3846  0.6459 -2.4702
   26DOPE  H12Y 3335   1.487   6.732   9.635  0.4084 -0.8023 -0.9606
   26DOPE  C313 3336   1.397   6.742   9.445 -0.3598 -0.3987  0.4566
   26DOPE  H13X 3337   1.293   6.755   9.407  0.1759  1.4564 -0.4836
   26DOPE  H13Y 3338   1.451   6.838   9.432 -0.2101 -0.4080  1.0025
   26DOPE  C314 3339   1.475   6.622   9.392 -0.3649 -0.5343 -0.5693
   26DOPE  H14X 3340   1.411   6.534   9.370 -1.6540  0.0152  0.8308
   26DOPE  H14Y 3341   1.540   6.576   9.469  0.7795 -0.2306 -1.3293
   26DOPE  C315 3342   1.563   6.649   9.275  0.1134  0.8004  0.3909
   26DOPE  H15X 3343   1.512   6.698   9.190 -0.6335  0.2281  0.5073
   26DOPE  H15Y 3344   1.607   6.555   9.235 -0.3631  0.8836 -0.3321
   26DOPE  C316 3345   1.692   6.728   9.300  0.2610  0.4311 -0.5635
   26DOPE  H16X 3346   1.749   6.676   9.379 -1.0570 -1.3946 -0.7474
   26DOPE  H16Y 3347   1.684   6.833   9.334 -0.9302  0.4215 -0.7667
   26DOPE  C317 3348   1.794   6.717   9.186  0.0287 -0.2836 -0.3611
   26DOPE  H17X 3349   1.821   6.611   9.166 -2.0671 -0.9406  0.0039
   26DOPE  H17Y 3350   1.756   6.756   9.089  2.4573  1.3251 -0.7466
   26DOPE  C318 3351   1.920   6.790   9.231 -0.4061  0.2981  0.5112
   26DOPE  H18X 3352   1.986   6.795   9.142 -1.4502 -0.9024 -0.3597
   26DOPE  H18Y 3353   1.891   6.897   9.243 -0.9079  0.3480 -0.8921
   26DOPE  H18Z 3354   1.963   6.745   9.323 -0.7247  0.7350  0.8748
   27DOPE     N 3355   5.086   7.437  11.342  0.2775 -0.8255  0.2863
   27DOPE   HN1 3356   5.046   7.517  11.396  0.1026 -1.4691  1.1373
   27DOPE   HN2 3357   5.012   7.365  11.332 -0.1831 -0.2448 -0.6159
   27DOPE   HN3 3358   5.168   7.390  11.387 -0.0795 -1.7568 -0.0223
   27DOPE   C12 3359   5.130   7.492  11.208 -0.8254  0.0593  0.6251
   27DOPE  H12A 3360   5.030   7.508  11.162 -0.2688  0.4168 -0.4963
   27DOPE  H12B 3361   5.187   7.413  11.155 -0.1356  0.8329  0.1872
   27DOPE   C11 3362   5.211   7.624  11.225 -0.2999  0.3290  0.1341
   27DOPE  H11A 3363   5.146   7.709  11.253 -1.7978 -0.3292 -1.2292
   27DOPE  H11B 3364   5.250   7.659  11.127  0.1035  2.3899  0.9796
   27DOPE     P 3365   5.448   7.657  11.343 -0.2489 -0.4993 -0.6313
   27DOPE   O13 3366   5.526   7.578  11.446 -0.4510  0.0307  0.4204
   27DOPE   O14 3367   5.428   7.801  11.375  0.2296 -0.3158 -0.0368
   27DOPE   O11 3368   5.504   7.626  11.199 -0.0356  0.0360 -0.2293
   27DOPE   O12 3369   5.306   7.594  11.326 -0.7236 -0.4532  0.3343
   27DOPE    C1 3370   5.535   7.485  11.181  1.0240 -0.4613  1.2162
   27DOPE    HA 3371   5.456   7.416  11.216  0.5195  0.7699  2.5881
   27DOPE    HB 3372   5.636   7.458  11.219  1.9542  0.2587 -0.6137
   27DOPE    C2 3373   5.546   7.447  11.036  0.2289  0.1889 -0.1767
   27DOPE    HS 3374   5.646   7.481  11.003 -0.2342  1.6579 -0.1491
   27DOPE   O21 3375   5.440   7.506  10.963  0.4271  0.2355 -0.5160
   27DOPE   C21 3376   5.474   7.620  10.909 -0.0055  0.2202 -0.0806
   27DOPE   O22 3377   5.577   7.680  10.924  0.8447 -0.0737  0.0458
   27DOPE   C22 3378   5.356   7.649  10.811 -0.1551 -0.9306  0.2535
   27DOPE   H2R 3379   5.264   7.679  10.866 -0.8057  2.0307 -2.1784
   27DOPE   H2S 3380   5.343   7.558  10.750  1.0168 -1.3598  0.6154
   27DOPE    C3 3381   5.538   7.290  11.011  0.0927 -0.3406 -0.2795
   27DOPE    HX 3382   5.444   7.255  11.060  1.0703 -1.0272  1.1641
   27DOPE    HY 3383   5.621   7.240  11.065  0.2587 -0.2039 -0.4090
   27DOPE   O31 3384   5.531   7.262  10.868  0.5351  0.0789 -0.5488
   27DOPE   C31 3385   5.462   7.165  10.822  0.0816  0.2673  0.3973
   27DOPE   O32 3386   5.392   7.084  10.883  0.2386 -0.1082  0.4081
   27DOPE   C32 3387   5.488   7.151  10.671 -0.6177 -0.4719 -0.7784
   27DOPE   H2X 3388   5.402   7.201  10.623 -1.1573  2.3044  2.6476
   27DOPE   H2Y 3389   5.583   7.205  10.651 -0.8900 -0.2312 -1.4571
   27DOPE   C23 3390   5.391   7.780  10.721 -0.0774 -0.1026 -0.6860
   27DOPE   H3R 3391   5.497   7.783  10.687  0.1053  0.2151 -0.1126
   27DOPE   H3S 3392   5.364   7.874  10.775  1.5115  0.8919 -1.5567
   27DOPE   C24 3393   5.305   7.764  10.598 -0.3315  0.7019  0.0160
   27DOPE   H4R 3394   5.285   7.865  10.556 -0.3867  0.2396 -1.0844
   27DOPE   H4S 3395   5.203   7.727  10.620 -0.1371  0.5512  0.6802
   27DOPE   C25 3396   5.373   7.678  10.492 -0.6255 -0.5885 -0.7190
   27DOPE   H5R 3397   5.415   7.587  10.541  1.1295  1.2414  1.4208
   27DOPE   H5S 3398   5.465   7.731  10.459  0.4046 -0.1300  2.4795
   27DOPE   C26 3399   5.279   7.642  10.372  0.1414  0.0464 -1.1767
   27DOPE   H6R 3400   5.229   7.729  10.323  0.7730  0.9953 -0.1767
   27DOPE   H6S 3401   5.197   7.584  10.420  1.1837  0.4570  1.2865
   27DOPE   C27 3402   5.338   7.551  10.262  0.3286 -0.2686 -0.1570
   27DOPE   H7R 3403   5.248   7.521  10.203 -1.7448  0.1027  2.6051
   27DOPE   H7S 3404   5.382   7.461  10.310  1.2537  0.4042  0.2763
   27DOPE   C28 3405   5.441   7.613  10.161 -0.3305 -0.1768  0.3690
   27DOPE   H8R 3406   5.450   7.532  10.085  1.8477  1.2601 -1.0143
   27DOPE   H8S 3407   5.542   7.641  10.196  0.3130 -0.6525 -1.0447
   27DOPE   C29 3408   5.378   7.737  10.097  0.6590  0.0079  0.1179
   27DOPE   H9R 3409   5.283   7.775  10.137  1.4207  2.3118 -0.1152
   27DOPE  C210 3410   5.413   7.792   9.986  0.7967 -0.6964 -0.2747
   27DOPE  H10R 3411   5.353   7.870   9.937  0.4653 -0.1718  0.9317
   27DOPE  C211 3412   5.529   7.740   9.898  0.1322  0.3415  0.4860
   27DOPE  H11R 3413   5.578   7.646   9.932  1.0824  0.2118 -1.1387
   27DOPE  H11S 3414   5.617   7.807   9.896 -0.3852  1.1043 -2.8851
   27DOPE  C212 3415   5.487   7.723   9.750 -0.2111 -0.1678 -0.0327
   27DOPE  H12R 3416   5.451   7.823   9.716  1.2910 -0.1856 -1.8200
   27DOPE  H12S 3417   5.405   7.649   9.743  0.4136 -0.9321  0.5637
   27DOPE  C213 3418   5.601   7.669   9.666 -0.5957  0.5466  0.0342
   27DOPE  H13R 3419   5.656   7.588   9.719  0.8786  0.5390 -1.4153
   27DOPE  H13S 3420   5.677   7.749   9.672 -0.7395  0.6271  0.9768
   27DOPE  C214 3421   5.572   7.622   9.520  0.3305  0.3331 -0.5308
   27DOPE  H14R 3422   5.497   7.540   9.514  0.5488  0.0793  0.1220
   27DOPE  H14S 3423   5.665   7.596   9.465 -0.7710  0.0509 -2.3824
   27DOPE  C215 3424   5.510   7.720   9.420 -0.4678 -0.4597 -0.5276
   27DOPE  H15R 3425   5.586   7.796   9.391 -1.3926  0.3940 -0.7418
   27DOPE  H15S 3426   5.415   7.760   9.459  0.0960 -0.5085  0.9473
   27DOPE  C216 3427   5.473   7.644   9.294  0.6624  0.0024  0.3909
   27DOPE  H16R 3428   5.370   7.605   9.306 -0.0297  1.4905 -0.4256
   27DOPE  H16S 3429   5.534   7.554   9.271  0.2373 -0.3035  0.4520
   27DOPE  C217 3430   5.486   7.727   9.165 -0.1864 -0.4929 -0.0885
   27DOPE  H17R 3431   5.588   7.730   9.121 -1.0266 -1.1196 -2.1869
   27DOPE  H17S 3432   5.480   7.836   9.186 -0.3706 -0.5129 -0.0330
   27DOPE  C218 3433   5.395   7.687   9.048  0.2252 -0.0855  0.1668
   27DOPE  H18R 3434   5.288   7.696   9.077 -0.2471 -1.2316 -1.1302
   27DOPE  H18S 3435   5.406   7.582   9.014 -2.9055  0.0929 -1.8442
   27DOPE  H18T 3436   5.412   7.764   8.970  0.3604  0.1052  0.3821
   27DOPE   C33 3437   5.504   7.003  10.622 -0.3138 -0.8870 -0.5544
   27DOPE   H3X 3438   5.409   6.953  10.646 -0.5137 -0.2025  0.1129
   27DOPE   H3Y 3439   5.584   6.954  10.682 -1.0140 -1.4230 -0.0460
   27DOPE   C34 3440   5.524   6.987  10.470  0.3774  0.3497  0.1348
   27DOPE   H4X 3441   5.525   6.880  10.442  0.7441  0.1612  0.8356
   27DOPE   H4Y 3442   5.432   7.030  10.426  1.1633  2.3713  0.3735
   27DOPE   C35 3443   5.648   7.054  10.416  0.7542 -0.2519  0.1694
   27DOPE   H5X 3444   5.710   7.070  10.507 -0.8749 -1.2604  1.5195
   27DOPE   H5Y 3445   5.612   7.151  10.374 -1.3376 -1.4531 -1.0111
   27DOPE   C36 3446   5.726   6.987  10.308  0.7962  0.2467  0.0688
   27DOPE   H6X 3447   5.769   6.900  10.361 -1.7225 -1.2803 -0.2543
   27DOPE   H6Y 3448   5.817   7.049  10.291  1.2042  0.4541  2.6315
   27DOPE   C37 3449   5.639   6.956  10.188  0.3573  0.9662  0.2399
   27DOPE   H7X 3450   5.535   6.936  10.222  0.2325 -1.0698 -1.1751
   27DOPE   H7Y 3451   5.648   7.053  10.135  4.6683  1.2226  1.0687
   27DOPE   C38 3452   5.699   6.843  10.101 -0.1263 -0.3338 -0.2273
   27DOPE   H8X 3453   5.623   6.819  10.023  0.8646 -0.8843 -1.0548
   27DOPE   H8Y 3454   5.700   6.755  10.168 -0.0222  1.4299  2.1965
   27DOPE   C39 3455   5.840   6.874  10.046  0.6143 -0.5358  0.6396
   27DOPE   H9X 3456   5.911   6.910  10.122  0.8856 -0.6756  0.4513
   27DOPE  C310 3457   5.882   6.853   9.919  0.6598 -0.0932 -0.2510
   27DOPE  H10X 3458   5.984   6.890   9.900  0.5516  1.4202  1.8002
   27DOPE  C311 3459   5.796   6.804   9.810  0.6483 -0.7020  0.7242
   27DOPE  H11X 3460   5.699   6.858   9.813  1.3166  0.5962 -0.2472
   27DOPE  H11Y 3461   5.835   6.837   9.712 -0.0620  0.2407  0.7435
   27DOPE  C312 3462   5.786   6.653   9.811  0.4359  0.2804 -0.7322
   27DOPE  H12X 3463   5.739   6.628   9.909  2.8747 -0.2380  0.3877
   27DOPE  H12Y 3464   5.884   6.601   9.817 -0.0564 -0.5321  0.7816
   27DOPE  C313 3465   5.692   6.596   9.707 -0.6010 -0.0799  0.7131
   27DOPE  H13X 3466   5.643   6.510   9.756  1.5496 -1.3604  0.7294
   27DOPE  H13Y 3467   5.609   6.665   9.681  0.3624  0.1221 -2.1120
   27DOPE  C314 3468   5.760   6.540   9.583 -0.0193  0.0731  0.1989
   27DOPE  H14X 3469   5.852   6.498   9.628  0.0409  0.8802  0.8386
   27DOPE  H14Y 3470   5.793   6.622   9.516 -0.4619  0.8355  0.8886
   27DOPE  C315 3471   5.681   6.430   9.514 -0.0358  0.3154 -0.0619
   27DOPE  H15X 3472   5.580   6.468   9.489 -0.0381  0.1921 -0.2424
   27DOPE  H15Y 3473   5.674   6.337   9.575  1.4334  1.4097  1.9066
   27DOPE  C316 3474   5.745   6.374   9.390 -0.5434 -0.2055  0.3320
   27DOPE  H16X 3475   5.765   6.450   9.311  2.0431  0.0824  1.1629
   27DOPE  H16Y 3476   5.687   6.285   9.357  0.7658 -0.9861  0.0578
   27DOPE  C317 3477   5.890   6.315   9.409  0.3414  0.6042 -0.1054
   27DOPE  H17X 3478   5.950   6.401   9.445  1.8160 -0.6089  0.4722
   27DOPE  H17Y 3479   5.884   6.239   9.490  0.5845  1.0306  0.3177
   27DOPE  C318 3480   5.952   6.245   9.288  0.1325 -0.4622 -0.1947
   27DOPE  H18X 3481   5.994   6.315   9.213 -0.8604  1.5086  1.0051
   27DOPE  H18Y 3482   6.033   6.180   9.328 -1.4634 -2.6118 -0.2412
   27DOPE  H18Z 3483   5.879   6.180   9.235  0.6237 -0.1313 -1.3050
   28DOPE     N 3484   7.031   6.664  11.052 -0.0590 -0.4231  0.2995
   28DOPE   HN1 3485   7.010   6.735  10.980  2.2164  2.3594  2.1577
   28DOPE   HN2 3486   6.962   6.678  11.129 -1.5174  1.5142 -1.2534
   28DOPE   HN3 3487   7.120   6.706  11.085 -0.4782  0.6125  0.1566
   28DOPE   C12 3488   7.021   6.528  10.989  0.2521  0.1096  0.0388
   28DOPE  H12A 3489   7.043   6.529  10.881 -1.1739 -0.8629 -0.2909
   28DOPE  H12B 3490   6.915   6.499  11.005  0.0973  0.2778 -0.6743
   28DOPE   C11 3491   7.108   6.419  11.054  0.3208 -0.0323 -0.1324
   28DOPE  H11A 3492   7.092   6.332  10.986  0.2615  0.3491 -0.6117
   28DOPE  H11B 3493   7.070   6.404  11.157 -3.1269 -0.1138 -1.2891
   28DOPE     P 3494   7.330   6.484  10.921 -0.2052 -0.0744 -0.0148
   28DOPE   O13 3495   7.473   6.446  10.947 -0.3634 -0.3079 -0.5094
   28DOPE   O14 3496   7.300   6.620  10.872 -0.2319 -0.4569 -0.2102
   28DOPE   O11 3497   7.262   6.391  10.817 -0.2191 -0.2709 -0.4175
   28DOPE   O12 3498   7.241   6.463  11.051 -0.1632 -0.1526  0.2146
   28DOPE    C1 3499   7.313   6.268  10.775 -0.8249 -0.1942  0.0288
   28DOPE    HA 3500   7.286   6.190  10.850  0.7017 -0.8149 -0.0340
   28DOPE    HB 3501   7.423   6.274  10.763 -1.0441  1.5778 -1.4909
   28DOPE    C2 3502   7.250   6.209  10.647 -0.6779  0.2239 -0.0861
   28DOPE    HS 3503   7.259   6.099  10.634  0.7389  0.3844 -0.5858
   28DOPE   O21 3504   7.306   6.270  10.528 -0.1562  1.1199  0.5155
   28DOPE   C21 3505   7.426   6.220  10.496  0.6676 -0.7281  0.5746
   28DOPE   O22 3506   7.472   6.120  10.545  0.6015 -0.0330  0.0391
   28DOPE   C22 3507   7.505   6.310  10.395  0.6734 -0.0362 -0.0024
   28DOPE   H2R 3508   7.544   6.389  10.463 -1.4216  0.6860  0.4353
   28DOPE   H2S 3509   7.438   6.372  10.333  0.5918  0.2951  0.4155
   28DOPE    C3 3510   7.098   6.230  10.645 -0.3325  0.4948  0.5241
   28DOPE    HX 3511   7.081   6.337  10.670  0.3929  0.4092  1.4043
   28DOPE    HY 3512   7.041   6.179  10.726 -0.5973  0.0841  0.0845
   28DOPE   O31 3513   7.039   6.197  10.514  0.0467 -0.7818  0.0316
   28DOPE   C31 3514   6.980   6.085  10.508  0.4159  0.3940 -0.2245
   28DOPE   O32 3515   6.948   6.011  10.602 -0.7254 -0.1472  0.1851
   28DOPE   C32 3516   6.961   6.026  10.370  0.6258 -0.3376 -0.5987
   28DOPE   H2X 3517   7.039   5.946  10.366  0.6799 -0.4137  1.1846
   28DOPE   H2Y 3518   6.861   5.981  10.385 -2.3723  5.3931 -0.7460
   28DOPE   C23 3519   7.623   6.248  10.331 -0.3409 -0.1018  0.4177
   28DOPE   H3R 3520   7.668   6.181  10.407  1.2755  1.3302  0.7889
   28DOPE   H3S 3521   7.710   6.312  10.304 -0.5270 -0.3318 -0.8026
   28DOPE   C24 3522   7.580   6.180  10.198 -0.3299  0.0516  0.0963
   28DOPE   H4R 3523   7.673   6.176  10.137  0.3596 -0.4040  1.1570
   28DOPE   H4S 3524   7.510   6.249  10.145  0.4006  1.9053  1.4478
   28DOPE   C25 3525   7.530   6.047  10.215 -0.0917  0.2335  0.5442
   28DOPE   H5R 3526   7.438   6.053  10.276  0.1981 -1.3034  1.1862
   28DOPE   H5S 3527   7.612   5.992  10.266 -0.7805 -0.3587  1.0268
   28DOPE   C26 3528   7.481   5.972  10.089 -0.6045  0.5561 -0.1283
   28DOPE   H6R 3529   7.564   5.964  10.015 -0.7011 -0.5007 -0.1322
   28DOPE   H6S 3530   7.401   6.032  10.040 -1.4016  0.0526  0.5358
   28DOPE   C27 3531   7.431   5.830  10.114  0.2046  0.6323  0.2989
   28DOPE   H7R 3532   7.378   5.793  10.023  0.9992 -0.2920  0.1933
   28DOPE   H7S 3533   7.353   5.836  10.193  0.2423 -0.6140  0.4583
   28DOPE   C28 3534   7.524   5.730  10.181 -0.0505  0.6510  0.9287
   28DOPE   H8R 3535   7.479   5.634  10.214  0.4348 -0.1946 -0.7521
   28DOPE   H8S 3536   7.563   5.772  10.277  0.9651  0.6321  0.5362
   28DOPE   C29 3537   7.643   5.708  10.092  0.0576 -0.1183  0.1263
   28DOPE   H9R 3538   7.695   5.805  10.089 -0.6792  0.3080  0.7133
   28DOPE  C210 3539   7.674   5.599  10.018 -0.4213  0.0528 -0.0581
   28DOPE  H10R 3540   7.767   5.603   9.961 -0.7856  0.1046 -0.6594
   28DOPE  C211 3541   7.594   5.467  10.020 -0.2578  0.0029  0.0308
   28DOPE  H11R 3542   7.567   5.446  10.126 -2.1555  1.1018 -0.1799
   28DOPE  H11S 3543   7.660   5.385   9.987  0.1112  0.3567 -0.1218
   28DOPE  C212 3544   7.457   5.470   9.947  0.9561 -0.3880 -0.3035
   28DOPE  H12R 3545   7.480   5.505   9.844 -0.3253  1.5082  0.0031
   28DOPE  H12S 3546   7.402   5.549  10.001  0.0659 -0.1848 -1.4693
   28DOPE  C213 3547   7.377   5.339   9.958 -0.8097 -0.3372  0.1907
   28DOPE  H13R 3548   7.372   5.311  10.065 -0.7754  2.2105  0.9218
   28DOPE  H13S 3549   7.432   5.260   9.903 -2.0710 -0.2281 -1.3239
   28DOPE  C214 3550   7.239   5.358   9.892  0.1301 -0.1612  0.1888
   28DOPE  H14R 3551   7.248   5.413   9.796 -0.8535  0.7338  0.5854
   28DOPE  H14S 3552   7.170   5.419   9.955 -1.9137 -0.3133 -1.7803
   28DOPE  C215 3553   7.170   5.219   9.876  0.0597 -0.5843  0.5247
   28DOPE  H15R 3554   7.125   5.221   9.978  1.0735  2.1329  0.9986
   28DOPE  H15S 3555   7.255   5.149   9.862  0.0479 -0.0125 -3.1290
   28DOPE  C216 3556   7.065   5.212   9.761  0.3402 -0.4291  0.2699
   28DOPE  H16R 3557   7.115   5.219   9.662  0.2612  0.0757  0.2624
   28DOPE  H16S 3558   6.996   5.296   9.782 -0.7109 -1.1832 -0.0592
   28DOPE  C217 3559   6.997   5.078   9.775 -0.7464 -0.2421  1.1096
   28DOPE  H17R 3560   6.946   5.072   9.873 -0.7181 -0.3556  1.1180
   28DOPE  H17S 3561   7.055   4.985   9.760  0.0965  0.5552 -0.9740
   28DOPE  C218 3562   6.890   5.073   9.663  0.4628  0.0611 -0.3950
   28DOPE  H18R 3563   6.836   4.976   9.665 -0.6953  0.7116  0.3814
   28DOPE  H18S 3564   6.929   5.073   9.559 -0.4121 -0.9989 -0.7435
   28DOPE  H18T 3565   6.819   5.157   9.676  0.5479  0.1641 -0.5948
   28DOPE   C33 3566   6.958   6.115  10.244 -0.3422  0.0824  0.6072
   28DOPE   H3X 3567   7.010   6.052  10.169  2.4454  3.1154 -0.2447
   28DOPE   H3Y 3568   7.031   6.198  10.257  0.0210  0.5425 -3.2534
   28DOPE   C34 3569   6.819   6.146  10.209  0.8959 -0.7358 -0.2974
   28DOPE   H4X 3570   6.768   6.048  10.210 -1.0994  0.2635 -0.1051
   28DOPE   H4Y 3571   6.764   6.207  10.284 -0.9498 -3.2170  0.4754
   28DOPE   C35 3572   6.798   6.222  10.077  0.1230  0.7022  0.1445
   28DOPE   H5X 3573   6.861   6.313  10.074  0.1230  0.6811 -0.8282
   28DOPE   H5Y 3574   6.701   6.274  10.065  0.5218  2.0432  2.2124
   28DOPE   C36 3575   6.817   6.125   9.951 -0.3220  0.0530  0.1997
   28DOPE   H6X 3576   6.752   6.035   9.956 -0.3870  0.0961  0.1196
   28DOPE   H6Y 3577   6.917   6.077   9.958 -0.5321 -0.2903  1.0110
   28DOPE   C37 3578   6.817   6.193   9.811  0.4928  0.3525  0.2797
   28DOPE   H7X 3579   6.835   6.108   9.741 -0.5986 -0.4525  0.9377
   28DOPE   H7Y 3580   6.711   6.220   9.792  0.2601 -2.0003 -2.4887
   28DOPE   C38 3581   6.908   6.313   9.784  0.4606  0.1062  0.2552
   28DOPE   H8X 3582   6.902   6.402   9.850 -1.0955  0.3716 -0.2077
   28DOPE   H8Y 3583   6.881   6.362   9.688  0.0884  3.2699  1.8463
   28DOPE   C39 3584   7.049   6.261   9.756 -0.7650  0.1324  0.4821
   28DOPE   H9X 3585   7.057   6.154   9.733  0.9732  0.4646 -0.5979
   28DOPE  C310 3586   7.160   6.323   9.785  0.2085 -0.0397  0.3999
   28DOPE  H10X 3587   7.248   6.259   9.768  1.1892  1.4490 -0.2661
   28DOPE  C311 3588   7.180   6.455   9.852  0.4031 -0.0114  0.2906
   28DOPE  H11X 3589   7.120   6.467   9.945  0.6312  2.2958  0.1858
   28DOPE  H11Y 3590   7.283   6.460   9.894 -0.6178  0.1794  2.9928
   28DOPE  C312 3591   7.144   6.560   9.749 -0.5502 -0.4838  0.4669
   28DOPE  H12X 3592   7.157   6.659   9.797  0.2305 -0.9950  1.3469
   28DOPE  H12Y 3593   7.047   6.536   9.701  0.0551 -1.3145 -0.3890
   28DOPE  C313 3594   7.255   6.563   9.644  0.2086  1.0881 -0.6657
   28DOPE  H13X 3595   7.354   6.541   9.689 -0.1996  1.9498  0.7239
   28DOPE  H13Y 3596   7.221   6.490   9.567 -1.1858  1.1912 -0.1762
   28DOPE  C314 3597   7.281   6.696   9.568 -0.5317  0.2956  0.1414
   28DOPE  H14X 3598   7.346   6.755   9.637 -0.8879 -0.0408  0.7726
   28DOPE  H14Y 3599   7.186   6.750   9.546  1.0510  3.0276 -0.5574
   28DOPE  C315 3600   7.362   6.676   9.439 -0.0290  0.3610  0.2138
   28DOPE  H15X 3601   7.368   6.775   9.388  1.1364 -0.8499 -2.1521
   28DOPE  H15Y 3602   7.298   6.609   9.377 -0.1978  1.7263 -1.1767
   28DOPE  C316 3603   7.505   6.639   9.463 -0.0738  0.1088 -0.1590
   28DOPE  H16X 3604   7.499   6.539   9.511 -0.9873 -0.5797 -1.6280
   28DOPE  H16Y 3605   7.536   6.706   9.546 -1.4169  0.9892 -0.3342
   28DOPE  C317 3606   7.586   6.637   9.332 -0.1755 -0.5260  0.0815
   28DOPE  H17X 3607   7.584   6.729   9.270  0.1469  0.5565  1.6249
   28DOPE  H17Y 3608   7.691   6.625   9.367 -0.2964 -0.0969  0.6081
   28DOPE  C318 3609   7.547   6.525   9.240  0.0836  0.1984 -0.0439
   28DOPE  H18X 3610   7.567   6.427   9.289  0.2965 -1.2489 -2.8473
   28DOPE  H18Y 3611   7.440   6.533   9.212  0.8906 -0.7390 -3.9091
   28DOPE  H18Z 3612   7.595   6.528   9.140 -0.2128  2.2868 -0.1604
   29DOPE     N 3613   5.821   0.086  11.019  0.1515  0.2081 -0.9268
   29DOPE   HN1 3614   5.857   0.180  11.045 -0.8799  0.7213 -1.3080
   29DOPE   HN2 3615   5.875   0.043  10.941 -2.2141 -0.7383 -2.1662
   29DOPE   HN3 3616   5.722   0.098  10.987  0.1401  1.9456 -0.3074
   29DOPE   C12 3617   5.831   0.020  11.154  0.2414 -0.0683 -0.0689
   29DOPE  H12A 3618   5.819  -0.089  11.142  3.9581 -0.4544 -1.4580
   29DOPE  H12B 3619   5.748   0.063  11.215  0.0681  0.5056 -0.6975
   29DOPE   C11 3620   5.960   0.058  11.218  0.6197  0.6843 -0.4822
   29DOPE  H11A 3621   5.950   0.039  11.327 -1.3075  0.4504 -0.6725
   29DOPE  H11B 3622   5.974   0.168  11.216 -1.8939  1.1017  0.9937
   29DOPE     P 3623   6.214   0.055  11.169  0.2221  0.4461  0.0827
   29DOPE   O13 3624   6.289  -0.015  11.274  0.4975 -0.3395 -0.1853
   29DOPE   O14 3625   6.207   0.203  11.173  0.1806  0.0830 -0.4937
   29DOPE   O11 3626   6.268   0.001  11.030  0.0156 -0.1964  0.2105
   29DOPE   O12 3627   6.071  -0.012  11.163 -0.3485  0.1491 -0.4737
   29DOPE    C1 3628   6.306  -0.134  11.016 -0.6289  0.2737 -0.5015
   29DOPE    HA 3629   6.224  -0.208  11.031 -0.8139  0.9695  2.4445
   29DOPE    HB 3630   6.382  -0.164  11.091 -2.7911 -0.0796  1.6707
   29DOPE    C2 3631   6.361  -0.169  10.874  0.4523 -0.0548 -0.7311
   29DOPE    HS 3632   6.453  -0.108  10.862 -0.8542  2.0103 -0.6405
   29DOPE   O21 3633   6.258  -0.124  10.775  0.1294 -0.4878 -0.3677
   29DOPE   C21 3634   6.302  -0.093  10.655  0.4238  0.0842  0.2968
   29DOPE   O22 3635   6.421  -0.091  10.621  0.1175 -0.2351  0.8270
   29DOPE   C22 3636   6.187  -0.036  10.574 -0.0047  0.5582 -0.8122
   29DOPE   H2R 3637   6.157   0.060  10.621  1.0418  0.0410  1.0237
   29DOPE   H2S 3638   6.107  -0.112  10.589 -0.4346  1.0384 -0.6683
   29DOPE    C3 3639   6.393  -0.317  10.854 -0.1913  0.8345  0.1108
   29DOPE    HX 3640   6.296  -0.370  10.868  0.1875  0.6232  2.2501
   29DOPE    HY 3641   6.453  -0.360  10.937  0.9434  3.0540  0.5158
   29DOPE   O31 3642   6.453  -0.345  10.723 -0.4972 -0.0710 -0.1557
   29DOPE   C31 3643   6.580  -0.318  10.706  0.7392  0.1738  0.9538
   29DOPE   O32 3644   6.649  -0.262  10.786 -0.7772 -0.0240  0.2448
   29DOPE   C32 3645   6.623  -0.369  10.566  0.3298  0.2822 -0.1785
   29DOPE   H2X 3646   6.667  -0.471  10.569 -1.7220 -0.6287  0.5315
   29DOPE   H2Y 3647   6.528  -0.371  10.510 -0.2824  1.2930  0.7901
   29DOPE   C23 3648   6.222  -0.023  10.419  0.1171  0.4773  0.3468
   29DOPE   H3R 3649   6.305   0.050  10.408  0.1332  0.2677 -1.0288
   29DOPE   H3S 3650   6.132   0.022  10.372 -0.0953 -0.2755  0.0275
   29DOPE   C24 3651   6.243  -0.171  10.362  0.1545 -0.2279 -0.5413
   29DOPE   H4R 3652   6.150  -0.230  10.373  0.1438 -0.0506  0.3902
   29DOPE   H4S 3653   6.329  -0.227  10.405 -1.6047 -1.6629  1.3286
   29DOPE   C25 3654   6.263  -0.169  10.211 -0.1947 -0.0718  0.4497
   29DOPE   H5R 3655   6.178  -0.111  10.170  0.3538  1.5890  1.5369
   29DOPE   H5S 3656   6.264  -0.272  10.172 -0.6258 -0.2236  0.8392
   29DOPE   C26 3657   6.393  -0.109  10.154  0.5189  0.3293 -0.3622
   29DOPE   H6R 3658   6.476  -0.159  10.208  1.3018  0.1532 -1.6862
   29DOPE   H6S 3659   6.396   0.000  10.175 -0.5189  0.3056 -0.0459
   29DOPE   C27 3660   6.407  -0.132  10.003  0.3103 -0.5879 -0.0887
   29DOPE   H7R 3661   6.308  -0.098   9.966 -0.0205 -1.5665 -0.1300
   29DOPE   H7S 3662   6.410  -0.241   9.981 -0.6569 -0.1776 -2.5413
   29DOPE   C28 3663   6.525  -0.051   9.949 -0.0089  0.8229  0.1464
   29DOPE   H8R 3664   6.604  -0.081  10.021 -1.7848  0.9615  2.2560
   29DOPE   H8S 3665   6.496   0.056   9.955 -0.8006  0.7731 -1.8692
   29DOPE   C29 3666   6.551  -0.100   9.805  1.0417 -0.0467 -0.5860
   29DOPE   H9R 3667   6.480  -0.066   9.729 -1.2767 -1.8988  0.6088
   29DOPE  C210 3668   6.645  -0.186   9.774  0.8939 -0.0691 -0.1361
   29DOPE  H10R 3669   6.652  -0.231   9.674  0.0717  0.1902 -0.3169
   29DOPE  C211 3670   6.727  -0.267   9.872 -0.6895 -0.2097 -0.3525
   29DOPE  H11R 3671   6.737  -0.372   9.837  0.9191 -0.7370  1.5361
   29DOPE  H11S 3672   6.692  -0.282   9.976  1.6437  1.3112  0.7373
   29DOPE  C212 3673   6.872  -0.211   9.890  0.0768  0.2300  0.2301
   29DOPE  H12R 3674   6.924  -0.281   9.959 -0.7365 -0.5588  0.0718
   29DOPE  H12S 3675   6.849  -0.118   9.947 -0.7997 -0.1949  0.5978
   29DOPE  C213 3676   6.944  -0.199   9.751  0.2012  0.2661  0.5750
   29DOPE  H13R 3677   6.898  -0.125   9.682  1.0757  0.1586 -0.1383
   29DOPE  H13S 3678   6.920  -0.300   9.714  0.6883 -0.0022  0.9724
   29DOPE  C214 3679   7.095  -0.165   9.750  0.0251 -0.6000 -0.3336
   29DOPE  H14R 3680   7.138  -0.213   9.659  0.0771 -0.7191 -0.2462
   29DOPE  H14S 3681   7.136  -0.208   9.844  1.1340  1.6155  0.2770
   29DOPE  C215 3682   7.119  -0.012   9.749 -0.2278  0.2765  0.0994
   29DOPE  H15R 3683   7.076   0.013   9.849 -0.0645  0.4729  0.1187
   29DOPE  H15S 3684   7.068   0.036   9.663  0.2020  0.1350 -0.2383
   29DOPE  C216 3685   7.271   0.032   9.750 -0.2164 -0.4235 -0.2945
   29DOPE  H16R 3686   7.317  -0.042   9.819 -0.3066 -0.3229 -0.1250
   29DOPE  H16S 3687   7.286   0.138   9.777  1.5624 -0.7268  0.0355
   29DOPE  C217 3688   7.343   0.015   9.609  0.4980  0.0577 -0.2129
   29DOPE  H17R 3689   7.292   0.061   9.522  0.7529  0.1311 -0.3231
   29DOPE  H17S 3690   7.345  -0.095   9.593  0.6993  0.1957 -1.1709
   29DOPE  C218 3691   7.484   0.078   9.620 -0.2398  0.8176 -0.5731
   29DOPE  H18R 3692   7.533   0.062   9.522 -0.1294 -0.2812 -0.3497
   29DOPE  H18S 3693   7.543   0.029   9.701  0.4934  2.0044 -0.3564
   29DOPE  H18T 3694   7.477   0.186   9.645  3.1888  0.8170  1.0428
   29DOPE   C33 3695   6.715  -0.269  10.503  0.0603 -0.1668  0.2431
   29DOPE   H3X 3696   6.812  -0.271  10.556  0.2190 -0.3338 -0.0530
   29DOPE   H3Y 3697   6.684  -0.163  10.504  2.5834  0.6379  0.4372
   29DOPE   C34 3698   6.752  -0.297  10.358  0.8268  0.1915 -0.3377
   29DOPE   H4X 3699   6.658  -0.312  10.301 -0.0923 -1.8500  1.5708
   29DOPE   H4Y 3700   6.810  -0.219  10.305  0.9191  0.7694  0.5834
   29DOPE   C35 3701   6.841  -0.431  10.352 -0.5259 -0.3023 -0.5847
   29DOPE   H5X 3702   6.770  -0.510  10.385 -0.6170 -0.7144 -1.7199
   29DOPE   H5Y 3703   6.926  -0.409  10.419 -1.5527  4.0213 -0.3749
   29DOPE   C36 3704   6.879  -0.459  10.209  0.3218  0.6015  0.1103
   29DOPE   H6X 3705   6.950  -0.382  10.172 -0.9962  1.8058 -0.0084
   29DOPE   H6Y 3706   6.791  -0.441  10.144  0.7625  1.9706 -0.1332
   29DOPE   C37 3707   6.931  -0.595  10.180  0.0635 -0.0377 -0.2433
   29DOPE   H7X 3708   7.039  -0.599  10.206 -0.0188  0.2521  0.1467
   29DOPE   H7Y 3709   6.880  -0.673  10.240  0.7351 -1.5004 -1.4970
   29DOPE   C38 3710   6.904  -0.620  10.032 -0.5076 -0.2140 -0.2115
   29DOPE   H8X 3711   6.920  -0.518   9.992 -0.3006  0.6772  1.9707
   29DOPE   H8Y 3712   6.796  -0.641  10.020 -0.2905 -1.4823 -0.0324
   29DOPE   C39 3713   6.996  -0.722   9.971  0.4745  0.6691  0.3992
   29DOPE   H9X 3714   7.032  -0.805  10.033 -0.3868  1.4599  2.0147
   29DOPE  C310 3715   7.042  -0.713   9.846  0.4595  0.7526 -0.0054
   29DOPE  H10X 3716   7.101  -0.788   9.790 -0.7043  1.3515 -2.1589
   29DOPE  C311 3717   7.029  -0.592   9.760 -0.2556 -0.5853  0.3356
   29DOPE  H11X 3718   6.953  -0.607   9.680  0.6622  2.2631 -1.2253
   29DOPE  H11Y 3719   7.000  -0.499   9.813 -1.2641 -0.2397 -0.7798
   29DOPE  C312 3720   7.161  -0.567   9.678 -0.3575  0.2742 -0.2128
   29DOPE  H12X 3721   7.145  -0.488   9.602  0.4587  0.1279 -0.5459
   29DOPE  H12Y 3722   7.189  -0.662   9.626 -0.0976  0.8078 -1.0613
   29DOPE  C313 3723   7.277  -0.503   9.761  0.1837  0.6439 -0.4626
   29DOPE  H13X 3724   7.240  -0.405   9.797  2.0586  0.7485  1.3551
   29DOPE  H13Y 3725   7.314  -0.576   9.836 -0.8233  0.0964 -0.4891
   29DOPE  C314 3726   7.395  -0.468   9.681  0.6987  0.5390  0.7898
   29DOPE  H14X 3727   7.474  -0.420   9.743  0.3600 -0.5024  2.0867
   29DOPE  H14Y 3728   7.367  -0.405   9.595  1.3688 -0.4550 -0.1778
   29DOPE  C315 3729   7.445  -0.601   9.611  0.0622  0.2312  0.3808
   29DOPE  H15X 3730   7.370  -0.652   9.546  0.9274 -1.9141  0.9678
   29DOPE  H15Y 3731   7.477  -0.672   9.690 -0.0201 -1.3696 -0.9525
   29DOPE  C316 3732   7.559  -0.570   9.511  0.3281 -0.7190  0.7397
   29DOPE  H16X 3733   7.637  -0.535   9.582 -0.6096  0.0913  1.4077
   29DOPE  H16Y 3734   7.529  -0.480   9.453 -0.0175 -0.3190  1.5084
   29DOPE  C317 3735   7.603  -0.690   9.424 -0.7583 -0.1841  0.6045
   29DOPE  H17X 3736   7.632  -0.771   9.494  3.2007  0.9021  0.4976
   29DOPE  H17Y 3737   7.518  -0.713   9.356  0.9652 -0.4899 -1.5771
   29DOPE  C318 3738   7.726  -0.658   9.339  0.2778 -0.3747  0.0694
   29DOPE  H18X 3739   7.695  -0.586   9.260 -0.6009 -1.1204 -0.2721
   29DOPE  H18Y 3740   7.803  -0.609   9.402  0.8800 -0.6774 -0.4069
   29DOPE  H18Z 3741   7.776  -0.748   9.298  0.7106 -0.0521 -0.1230
   30DOPE     N 3742   0.164   6.737  10.967 -0.4001 -0.0612 -0.0081
   30DOPE   HN1 3743   0.167   6.823  10.908 -1.2146 -0.4380 -0.6319
   30DOPE   HN2 3744   0.262   6.704  10.973 -0.0332  1.2529  1.9838
   30DOPE   HN3 3745   0.107   6.668  10.913 -0.9101 -0.1233  0.6036
   30DOPE   C12 3746   0.115   6.757  11.105  0.2053  0.3468  0.1004
   30DOPE  H12A 3747   0.154   6.857  11.135  2.0103  0.8196 -3.2918
   30DOPE  H12B 3748   0.151   6.674  11.169 -1.5355 -0.8804 -0.4350
   30DOPE   C11 3749  -0.035   6.757  11.112 -0.0928  0.3979 -0.0359
   30DOPE  H11A 3750  -0.081   6.767  11.213  0.8734 -2.0855  0.7290
   30DOPE  H11B 3751  -0.074   6.657  11.081  0.2750  0.6593 -1.3897
   30DOPE     P 3752  -0.118   6.998  11.034 -0.2372 -0.3896  0.1837
   30DOPE   O13 3753   0.002   7.067  11.081  0.3441 -0.2061  0.6291
   30DOPE   O14 3754  -0.232   7.002  11.130  0.1095  0.1816  0.6404
   30DOPE   O11 3755  -0.169   7.070  10.898  0.0824  0.1239 -0.3455
   30DOPE   O12 3756  -0.086   6.850  11.010 -0.7202 -0.2416 -0.9751
   30DOPE    C1 3757  -0.221   6.988  10.794 -0.3949  0.5947 -0.3876
   30DOPE    HA 3758  -0.282   7.057  10.732 -0.9226 -0.7070 -1.3442
   30DOPE    HB 3759  -0.297   6.915  10.827 -1.5489  0.8748 -2.2891
   30DOPE    C2 3760  -0.120   6.915  10.705 -0.0912  0.1468  0.1239
   30DOPE    HS 3761  -0.066   6.835  10.760 -0.1754  0.0963  0.1330
   30DOPE   O21 3762  -0.030   7.013  10.648  0.1552 -0.1725 -0.3730
   30DOPE   C21 3763   0.087   7.027  10.714 -0.4774 -0.1622 -0.2954
   30DOPE   O22 3764   0.127   6.952  10.804  0.1129  0.1625  0.0692
   30DOPE   C22 3765   0.167   7.135  10.640 -0.4757  0.0060  0.6365
   30DOPE   H2R 3766   0.109   7.156  10.548 -0.4664 -1.8348  0.1725
   30DOPE   H2S 3767   0.264   7.085  10.623 -0.3048  0.0878  1.3131
   30DOPE    C3 3768  -0.202   6.845  10.587 -0.3895  0.3949 -0.6604
   30DOPE    HX 3769  -0.283   6.915  10.556  0.9877  1.7153 -1.4258
   30DOPE    HY 3770  -0.243   6.755  10.637  0.1710  1.1008  1.1593
   30DOPE   O31 3771  -0.129   6.801  10.470 -0.4523 -0.2185 -0.1135
   30DOPE   C31 3772  -0.027   6.716  10.488  0.6655  0.1896 -0.2086
   30DOPE   O32 3773  -0.001   6.662  10.595  0.0577  0.0703 -0.2074
   30DOPE   C32 3774   0.040   6.693  10.367  0.2099  0.0009  1.1670
   30DOPE   H2X 3775  -0.029   6.620  10.320  0.4152  1.5466 -1.7593
   30DOPE   H2Y 3776   0.034   6.787  10.309 -0.5888 -0.5270  0.3697
   30DOPE   C23 3777   0.187   7.260  10.729  0.3279 -0.1094 -0.1027
   30DOPE   H3R 3778   0.228   7.225  10.826  0.4326  1.0076  0.2745
   30DOPE   H3S 3779   0.087   7.307  10.741  0.5547  0.0395  1.3842
   30DOPE   C24 3780   0.278   7.370  10.668 -0.1998  0.2811 -0.1147
   30DOPE   H4R 3781   0.237   7.413  10.574  1.7686 -0.4476 -1.3642
   30DOPE   H4S 3782   0.376   7.320  10.652  0.1130  0.0185  2.3097
   30DOPE   C25 3783   0.298   7.479  10.774 -0.5112 -0.9140  0.0646
   30DOPE   H5R 3784   0.336   7.438  10.870 -0.5574  0.0789  0.5213
   30DOPE   H5S 3785   0.209   7.540  10.800  0.0507  0.7360 -1.6022
   30DOPE   C26 3786   0.404   7.587  10.715 -0.9735 -0.5984  0.5520
   30DOPE   H6R 3787   0.361   7.625  10.620 -0.5851 -1.1717  0.1366
   30DOPE   H6S 3788   0.489   7.522  10.687 -1.1792 -1.1888  1.2609
   30DOPE   C27 3789   0.451   7.693  10.811  0.4638 -0.0958 -0.4710
   30DOPE   H7R 3790   0.494   7.653  10.905 -0.1670 -2.9410 -1.2813
   30DOPE   H7S 3791   0.359   7.751  10.830  1.2352  1.2450 -0.6801
   30DOPE   C28 3792   0.544   7.798  10.745  0.7555 -0.2670  0.5999
   30DOPE   H8R 3793   0.560   7.881  10.817  2.9045  2.2208 -2.4405
   30DOPE   H8S 3794   0.486   7.838  10.659  1.6417 -0.4407 -0.0899
   30DOPE   C29 3795   0.685   7.759  10.714  0.1599  0.8978  0.8732
   30DOPE   H9R 3796   0.737   7.720  10.803  1.7753 -1.9741 -1.1744
   30DOPE  C210 3797   0.757   7.784  10.605  0.6582 -0.3616 -0.9340
   30DOPE  H10R 3798   0.861   7.748  10.610  0.2328 -1.4042  2.8021
   30DOPE  C211 3799   0.709   7.864  10.486 -0.1949 -0.4507  0.7067
   30DOPE  H11R 3800   0.599   7.872  10.473 -0.4086 -1.5367  1.7038
   30DOPE  H11S 3801   0.746   7.817  10.393  0.9425 -0.4352  1.1251
   30DOPE  C212 3802   0.773   8.009  10.487 -0.0854 -0.2042 -0.1362
   30DOPE  H12R 3803   0.882   8.009  10.510  0.1857  1.8486 -1.1753
   30DOPE  H12S 3804   0.720   8.064  10.568 -0.7103 -0.8533 -0.0866
   30DOPE  C213 3805   0.754   8.083  10.353 -0.0488  0.0006  0.5658
   30DOPE  H13R 3806   0.647   8.087  10.327  0.2615 -1.6984 -1.3146
   30DOPE  H13S 3807   0.783   8.022  10.264 -2.8569  1.2321 -1.3305
   30DOPE  C214 3808   0.828   8.218  10.347  0.3697 -0.0642 -0.4298
   30DOPE  H14R 3809   0.938   8.205  10.342  0.3519 -1.2486  1.3118
   30DOPE  H14S 3810   0.805   8.266  10.444 -0.6872  1.4297 -1.3697
   30DOPE  C215 3811   0.770   8.315  10.243 -0.0459 -0.9142 -1.2807
   30DOPE  H15R 3812   0.810   8.415  10.271  0.6728 -1.7384  0.7838
   30DOPE  H15S 3813   0.659   8.327  10.240  0.1545  1.2466 -1.8575
   30DOPE  C216 3814   0.811   8.292  10.101 -0.2162  0.1055  0.6800
   30DOPE  H16R 3815   0.758   8.362  10.034  1.1133  0.1227 -0.4087
   30DOPE  H16S 3816   0.800   8.185  10.075 -0.1743 -0.2787  2.1444
   30DOPE  C217 3817   0.953   8.335  10.063 -0.3930  0.3503 -0.5009
   30DOPE  H17R 3818   1.028   8.278  10.122 -0.5554 -1.6008 -2.0950
   30DOPE  H17S 3819   0.974   8.442  10.084  0.3355 -0.1700  1.6776
   30DOPE  C218 3820   0.990   8.309   9.917 -0.4841 -0.0697  0.5264
   30DOPE  H18R 3821   0.929   8.361   9.840  0.9755  0.2432 -0.4439
   30DOPE  H18S 3822   0.989   8.202   9.886 -0.2896  1.1191 -4.5044
   30DOPE  H18T 3823   1.092   8.347   9.895 -0.8916  0.4610 -0.5288
   30DOPE   C33 3824   0.185   6.645  10.391  0.2253 -0.3521  0.1566
   30DOPE   H3X 3825   0.188   6.555  10.456 -1.8387 -1.3522 -1.0409
   30DOPE   H3Y 3826   0.244   6.723  10.443  0.0481  1.2310 -1.8949
   30DOPE   C34 3827   0.255   6.605  10.261  0.0056  0.0267  0.1325
   30DOPE   H4X 3828   0.181   6.536  10.215 -0.6186  1.3356 -0.9031
   30DOPE   H4Y 3829   0.270   6.698  10.203  0.1462 -0.9955 -1.5406
   30DOPE   C35 3830   0.379   6.526  10.283 -0.4700  0.3137 -0.3145
   30DOPE   H5X 3831   0.407   6.462  10.197 -0.0631 -1.1234  0.8348
   30DOPE   H5Y 3832   0.369   6.462  10.374  1.7231 -0.7337 -0.7358
   30DOPE   C36 3833   0.502   6.616  10.308  0.3740  0.2887 -0.7839
   30DOPE   H6X 3834   0.584   6.547  10.335  1.2012  1.3229 -0.5753
   30DOPE   H6Y 3835   0.488   6.679  10.398  0.0385 -1.9710  0.8215
   30DOPE   C37 3836   0.561   6.690  10.181  0.6727 -0.9763 -0.1682
   30DOPE   H7X 3837   0.486   6.766  10.150  0.4921 -0.4097  1.5008
   30DOPE   H7Y 3838   0.649   6.740  10.226  0.8929 -2.4749  1.1696
   30DOPE   C38 3839   0.601   6.613  10.053 -0.0376 -0.0758  0.7581
   30DOPE   H8X 3840   0.511   6.570  10.004  0.5712 -0.5185  0.0081
   30DOPE   H8Y 3841   0.666   6.526  10.077  0.3517 -0.3972 -1.2715
   30DOPE   C39 3842   0.671   6.700   9.954  0.4482 -0.4684 -0.3138
   30DOPE   H9X 3843   0.724   6.788   9.990 -0.9171 -0.1467  1.0049
   30DOPE  C310 3844   0.677   6.674   9.822 -0.1146  0.4104 -0.2855
   30DOPE  H10X 3845   0.723   6.759   9.769  2.7828 -0.9752 -0.2003
   30DOPE  C311 3846   0.596   6.576   9.744 -0.0379  0.1842  0.2445
   30DOPE  H11X 3847   0.552   6.492   9.801 -2.2529  0.5397 -0.8341
   30DOPE  H11Y 3848   0.512   6.641   9.712  1.8878  2.2035 -1.0664
   30DOPE  C312 3849   0.661   6.532   9.607  0.3503 -0.0918 -0.8012
   30DOPE  H12X 3850   0.602   6.445   9.574 -0.1008  0.1879 -0.7378
   30DOPE  H12Y 3851   0.767   6.499   9.617  0.1000 -0.9547 -0.9436
   30DOPE  C313 3852   0.636   6.619   9.488  0.1304  0.2114 -0.6312
   30DOPE  H13X 3853   0.624   6.554   9.398 -1.0197 -1.2872  0.5401
   30DOPE  H13Y 3854   0.542   6.675   9.507  0.4499  0.7310 -0.5735
   30DOPE  C314 3855   0.758   6.705   9.462 -0.0069 -0.2887 -0.0219
   30DOPE  H14X 3856   0.770   6.775   9.548  2.1001 -3.3528  2.4063
   30DOPE  H14Y 3857   0.726   6.769   9.377  0.1720 -1.1281 -0.7299
   30DOPE  C315 3858   0.892   6.632   9.434  0.3883 -0.7944  0.3262
   30DOPE  H15X 3859   0.921   6.565   9.518 -0.6825 -0.0711  1.3137
   30DOPE  H15Y 3860   0.966   6.711   9.406 -0.1670 -0.8706 -1.4931
   30DOPE  C316 3861   0.882   6.541   9.309  0.1472  0.0190  0.3224
   30DOPE  H16X 3862   0.863   6.605   9.221 -2.5447  1.7697  2.0569
   30DOPE  H16Y 3863   0.793   6.476   9.323 -1.3190  1.7022 -0.8185
   30DOPE  C317 3864   1.020   6.468   9.297  0.4267 -0.0620  0.0065
   30DOPE  H17X 3865   1.069   6.491   9.394  1.4104 -1.2609 -0.1854
   30DOPE  H17Y 3866   1.015   6.357   9.298  1.9141 -0.2486  4.0520
   30DOPE  C318 3867   1.102   6.525   9.197 -0.4090 -0.1681  0.0506
   30DOPE  H18X 3868   1.128   6.632   9.211  2.4351 -0.7717  0.0870
   30DOPE  H18Y 3869   1.204   6.481   9.193  1.1602  3.1844 -1.0725
   30DOPE  H18Z 3870   1.065   6.505   9.094 -0.7956 -1.1210  0.3615
   31DOPE     N 3871   2.669   2.129   6.751  0.5322  0.3892 -0.8803
   31DOPE   HN1 3872   2.715   2.093   6.836 -0.2037  0.5653 -0.3995
   31DOPE   HN2 3873   2.664   2.048   6.686  0.1102 -0.1502 -0.1904
   31DOPE   HN3 3874   2.740   2.194   6.711  1.3670 -0.8876 -1.5439
   31DOPE   C12 3875   2.533   2.183   6.787  0.0495 -0.9739  0.5542
   31DOPE  H12A 3876   2.470   2.094   6.810  0.9388 -1.1313  2.5719
   31DOPE  H12B 3877   2.496   2.230   6.693  0.1105 -0.4739  0.7765
   31DOPE   C11 3878   2.539   2.268   6.907 -0.8251 -0.1553 -0.3251
   31DOPE  H11A 3879   2.433   2.295   6.926 -0.3139  1.2642  0.6714
   31DOPE  H11B 3880   2.591   2.364   6.887  0.7449 -0.7082  0.8696
   31DOPE     P 3881   2.501   2.131   7.133 -0.5848  0.2883  0.3915
   31DOPE   O13 3882   2.590   2.068   7.235  0.3654  0.2377 -0.1094
   31DOPE   O14 3883   2.390   2.047   7.079  0.2906 -0.3407  0.2278
   31DOPE   O11 3884   2.440   2.261   7.194 -0.3382  0.3922 -0.4439
   31DOPE   O12 3885   2.593   2.194   7.020 -0.0184 -0.2682  0.3695
   31DOPE    C1 3886   2.521   2.378   7.222 -0.0087  0.2534 -0.0949
   31DOPE    HA 3887   2.465   2.455   7.164 -2.8638 -1.6380 -0.0728
   31DOPE    HB 3888   2.624   2.369   7.181  0.3427 -1.8304  1.0888
   31DOPE    C2 3889   2.524   2.415   7.378 -0.8195  0.2436 -0.0042
   31DOPE    HS 3890   2.569   2.325   7.424  1.2139  0.6653 -1.0157
   31DOPE   O21 3891   2.393   2.458   7.420 -0.3704 -0.0769  0.2724
   31DOPE   C21 3892   2.316   2.362   7.469  0.5805 -0.3979  0.1426
   31DOPE   O22 3893   2.344   2.243   7.472 -0.2748 -0.4278 -0.0783
   31DOPE   C22 3894   2.179   2.422   7.510 -0.0051  0.1805 -0.6361
   31DOPE   H2R 3895   2.112   2.334   7.519  0.1402 -0.0751 -1.8808
   31DOPE   H2S 3896   2.145   2.482   7.422  0.7282  2.2968  0.4382
   31DOPE    C3 3897   2.633   2.526   7.385  0.4167 -0.1303 -0.2249
   31DOPE    HX 3898   2.580   2.610   7.337 -0.0306 -0.0861  0.3335
   31DOPE    HY 3899   2.721   2.499   7.322  0.4943 -3.1017  0.9585
   31DOPE   O31 3900   2.681   2.561   7.513  0.0599  0.0745  0.0326
   31DOPE   C31 3901   2.626   2.673   7.562  0.0359  0.8602 -0.0230
   31DOPE   O32 3902   2.559   2.751   7.499 -0.4159 -0.4061 -0.0831
   31DOPE   C32 3903   2.662   2.689   7.706  0.5439  0.1513 -0.4115
   31DOPE   H2X 3904   2.640   2.604   7.774  0.2378 -0.7174 -1.5623
   31DOPE   H2Y 3905   2.769   2.719   7.715  0.2056  0.7959  2.6768
   31DOPE   C23 3906   2.186   2.515   7.632  0.1898  0.2561 -0.4809
   31DOPE   H3R 3907   2.237   2.609   7.603 -2.4834  1.8297 -0.3896
   31DOPE   H3S 3908   2.247   2.459   7.707  0.4471  0.7558 -0.3101
   31DOPE   C24 3909   2.047   2.540   7.688  0.1217 -0.2284  0.3812
   31DOPE   H4R 3910   1.999   2.439   7.690 -1.0801  0.3121 -0.2323
   31DOPE   H4S 3911   2.005   2.602   7.606 -3.1919 -3.8768 -1.0618
   31DOPE   C25 3912   2.040   2.614   7.816  0.1218 -0.2623  0.0167
   31DOPE   H5R 3913   2.088   2.549   7.892  2.2108 -1.4601 -2.1950
   31DOPE   H5S 3914   1.941   2.648   7.855  1.4573  2.5872  1.1372
   31DOPE   C26 3915   2.115   2.740   7.823  0.0079  0.0640 -0.5927
   31DOPE   H6R 3916   2.098   2.808   7.737  0.9332  1.5639  0.3637
   31DOPE   H6S 3917   2.223   2.711   7.818 -0.1482 -0.3573 -2.0411
   31DOPE   C27 3918   2.096   2.820   7.958 -0.0691  0.1542 -0.1715
   31DOPE   H7R 3919   2.181   2.892   7.963 -1.0755  1.3742 -0.1861
   31DOPE   H7S 3920   2.111   2.745   8.038  2.3294 -0.9363 -1.5288
   31DOPE   C28 3921   1.957   2.891   7.958 -0.5982  0.1705  0.0242
   31DOPE   H8R 3922   1.881   2.813   7.938 -0.5747  0.6855 -2.3389
   31DOPE   H8S 3923   1.941   2.965   7.878 -0.7738  0.2188  0.1044
   31DOPE   C29 3924   1.937   2.959   8.090 -0.3014  0.4328 -0.6033
   31DOPE   H9R 3925   1.940   2.888   8.174  0.1886 -0.8440 -1.6532
   31DOPE  C210 3926   1.926   3.088   8.120  0.0141  0.0619  0.3064
   31DOPE  H10R 3927   1.928   3.110   8.228 -0.3002 -3.2190  1.0722
   31DOPE  C211 3928   1.921   3.199   8.022 -0.8103 -0.2641  0.3229
   31DOPE  H11R 3929   1.953   3.172   7.919  0.6273  2.1567  0.0585
   31DOPE  H11S 3930   1.998   3.274   8.053  0.0312 -0.4689 -1.1962
   31DOPE  C212 3931   1.786   3.263   7.992 -0.4422 -0.6559  0.1181
   31DOPE  H12R 3932   1.718   3.184   7.954 -0.7934 -0.4346  0.2926
   31DOPE  H12S 3933   1.805   3.329   7.904  0.2727 -3.8442 -2.3131
   31DOPE  C213 3934   1.712   3.341   8.100  0.6101 -0.8392 -0.0475
   31DOPE  H13R 3935   1.705   3.283   8.195  2.4234  0.2219  0.7977
   31DOPE  H13S 3936   1.606   3.366   8.076  0.3561  0.0118  1.7739
   31DOPE  C214 3937   1.784   3.474   8.137  0.4914 -0.1933 -0.1449
   31DOPE  H14R 3938   1.788   3.538   8.047  2.8511 -0.4890 -0.3192
   31DOPE  H14S 3939   1.885   3.447   8.174 -1.5375 -1.8110  5.2650
   31DOPE  C215 3940   1.709   3.546   8.245 -0.0973  0.6950 -0.3193
   31DOPE  H15R 3941   1.701   3.486   8.338 -1.7499  0.5217 -0.5474
   31DOPE  H15S 3942   1.602   3.543   8.215 -0.3061 -3.2144  0.3343
   31DOPE  C216 3943   1.763   3.688   8.253 -0.1861  0.5415 -0.3677
   31DOPE  H16R 3944   1.758   3.737   8.153  0.6664 -0.3630 -0.8690
   31DOPE  H16S 3945   1.864   3.699   8.296 -0.6809  0.4341  0.8591
   31DOPE  C217 3946   1.666   3.758   8.352 -0.1259  0.4556 -0.1014
   31DOPE  H17R 3947   1.642   3.707   8.448  0.0553 -0.4309 -0.5180
   31DOPE  H17S 3948   1.580   3.782   8.286  2.9407  1.2783 -4.1565
   31DOPE  C218 3949   1.717   3.896   8.384  0.3956 -0.9375  0.0007
   31DOPE  H18R 3950   1.639   3.959   8.433  0.8979  0.1186 -0.5294
   31DOPE  H18S 3951   1.757   3.955   8.299 -1.9971  1.0217  0.1169
   31DOPE  H18T 3952   1.801   3.880   8.455 -0.9675 -1.7956  1.4681
   31DOPE   C33 3953   2.583   2.799   7.778 -0.3287  0.2247 -0.0834
   31DOPE   H3X 3954   2.481   2.764   7.804 -0.2308  0.5375  0.7490
   31DOPE   H3Y 3955   2.572   2.881   7.703  1.3074 -1.1076 -1.8781
   31DOPE   C34 3956   2.631   2.867   7.899 -0.5355 -0.8186  0.2271
   31DOPE   H4X 3957   2.640   2.787   7.976 -0.9037  1.8844  3.3084
   31DOPE   H4Y 3958   2.734   2.906   7.883 -0.9788  0.0703 -0.5366
   31DOPE   C35 3959   2.545   2.974   7.957  0.3612 -0.2836 -0.4500
   31DOPE   H5X 3960   2.439   2.945   7.971 -0.1307  0.6620 -1.8459
   31DOPE   H5Y 3961   2.537   3.060   7.886  0.2411  0.4227  0.3963
   31DOPE   C36 3962   2.604   3.029   8.086 -0.6027 -0.1888  0.3681
   31DOPE   H6X 3963   2.712   3.052   8.075 -0.4287 -0.8724  0.6002
   31DOPE   H6Y 3964   2.583   2.949   8.160 -1.6801  0.8330  1.2093
   31DOPE   C37 3965   2.548   3.164   8.132  0.1273 -0.2351 -0.5160
   31DOPE   H7X 3966   2.613   3.222   8.201  0.7352 -1.5244  0.0246
   31DOPE   H7Y 3967   2.535   3.219   8.036  1.7396  1.1217 -0.0090
   31DOPE   C38 3968   2.402   3.158   8.186 -0.2119  0.1133  0.0806
   31DOPE   H8X 3969   2.388   3.109   8.284 -0.7593  3.2333  1.6783
   31DOPE   H8Y 3970   2.345   3.098   8.112 -0.8470  0.7374  0.0527
   31DOPE   C39 3971   2.334   3.293   8.198 -0.0302  0.1088  0.0062
   31DOPE   H9X 3972   2.360   3.364   8.118 -4.8675  3.3202  0.8641
   31DOPE  C310 3973   2.250   3.335   8.298 -0.8757 -0.1529 -0.2649
   31DOPE  H10X 3974   2.234   3.444   8.293  1.3848  0.1890 -1.3034
   31DOPE  C311 3975   2.203   3.262   8.424  0.0793 -0.4500  0.5386
   31DOPE  H11X 3976   2.100   3.302   8.436 -0.4175 -1.4369 -0.2867
   31DOPE  H11Y 3977   2.194   3.154   8.400 -0.4964  0.0314 -1.6268
   31DOPE  C312 3978   2.298   3.287   8.545  0.3440 -0.0373 -0.6277
   31DOPE  H12X 3979   2.306   3.396   8.566 -0.0862  0.0626 -0.9724
   31DOPE  H12Y 3980   2.403   3.259   8.522  1.4413  3.4051 -0.3029
   31DOPE  C313 3981   2.257   3.211   8.668  0.8281 -0.7034  0.8919
   31DOPE  H13X 3982   2.153   3.250   8.682  1.1205  0.2950  0.3498
   31DOPE  H13Y 3983   2.244   3.101   8.656 -1.6697 -0.4906  0.9734
   31DOPE  C314 3984   2.339   3.238   8.795  0.1351  0.5501  0.5273
   31DOPE  H14X 3985   2.363   3.346   8.799 -0.3062  0.6218  1.4730
   31DOPE  H14Y 3986   2.432   3.177   8.793 -0.4674 -0.4119 -1.6985
   31DOPE  C315 3987   2.259   3.196   8.919 -0.3169 -0.4320  0.1659
   31DOPE  H15X 3988   2.194   3.115   8.879 -0.1506  0.9878 -3.3397
   31DOPE  H15Y 3989   2.193   3.275   8.960  0.9053 -0.7301  2.9098
   31DOPE  C316 3990   2.337   3.121   9.040 -0.9393 -0.0913  0.1781
   31DOPE  H16X 3991   2.421   3.189   9.065 -0.9602  0.8214 -1.9691
   31DOPE  H16Y 3992   2.382   3.029   8.996 -2.1024 -0.5704 -0.0476
   31DOPE  C317 3993   2.250   3.089   9.162 -0.3841 -1.1137  0.4117
   31DOPE  H17X 3994   2.152   3.055   9.123 -1.8401 -0.5092  3.2606
   31DOPE  H17Y 3995   2.293   2.999   9.212  0.8957 -0.7349  0.0412
   31DOPE  C318 3996   2.242   3.199   9.269 -0.1626 -0.2734 -0.3272
   31DOPE  H18X 3997   2.202   3.290   9.219  0.4320 -0.0744 -0.4410
   31DOPE  H18Y 3998   2.178   3.157   9.349  0.3569 -0.0749  0.1968
   31DOPE  H18Z 3999   2.334   3.231   9.321 -0.8273  0.8478  0.1934
   32DOPE     N 4000   3.307   1.436   7.210 -0.7498 -0.3059 -0.5279
   32DOPE   HN1 4001   3.226   1.389   7.166 -1.5069  0.1133  0.3950
   32DOPE   HN2 4002   3.271   1.518   7.263 -0.8651  1.4351 -3.0893
   32DOPE   HN3 4003   3.383   1.474   7.149  0.6287 -0.2545  1.1423
   32DOPE   C12 4004   3.376   1.339   7.307 -0.0975  0.2954 -0.0165
   32DOPE  H12A 4005   3.409   1.253   7.245 -0.1034 -0.0971  0.5135
   32DOPE  H12B 4006   3.295   1.316   7.379  0.5772  0.7369  0.9036
   32DOPE   C11 4007   3.487   1.415   7.385 -0.3298 -0.4162 -0.1487
   32DOPE  H11A 4008   3.549   1.361   7.459  0.1630 -3.4042 -2.5378
   32DOPE  H11B 4009   3.448   1.494   7.453 -0.5197 -1.1682  0.6291
   32DOPE     P 4010   3.714   1.399   7.252  0.1480 -0.2407 -0.0538
   32DOPE   O13 4011   3.791   1.499   7.177  0.1148  0.1531 -0.5089
   32DOPE   O14 4012   3.683   1.276   7.181  0.9117 -0.2056 -0.3977
   32DOPE   O11 4013   3.785   1.356   7.381  0.1369  0.1320  0.0123
   32DOPE   O12 4014   3.578   1.469   7.290  0.4026 -0.5723 -0.1053
   32DOPE    C1 4015   3.810   1.427   7.494 -0.6521  0.6741 -0.0991
   32DOPE    HA 4016   3.791   1.362   7.582  0.3661  0.3884 -0.0795
   32DOPE    HB 4017   3.738   1.511   7.501 -0.9610  0.2955  1.8333
   32DOPE    C2 4018   3.955   1.485   7.496  0.0918 -0.5839  0.2791
   32DOPE    HS 4019   3.972   1.525   7.394 -0.6135  0.6584  0.6353
   32DOPE   O21 4020   4.047   1.382   7.528 -0.1513  0.2008 -0.0307
   32DOPE   C21 4021   4.175   1.416   7.506  0.3769  0.4974  0.2274
   32DOPE   O22 4022   4.210   1.509   7.432 -1.0122 -0.6210  0.0903
   32DOPE   C22 4023   4.265   1.326   7.586 -0.0454  1.1550  0.2127
   32DOPE   H2R 4024   4.344   1.291   7.516  2.5429  0.4716  3.1995
   32DOPE   H2S 4025   4.204   1.235   7.604  1.4471 -0.1500 -0.9810
   32DOPE    C3 4026   3.964   1.604   7.599  0.0562  0.8032  0.2075
   32DOPE    HX 4027   3.873   1.667   7.595 -0.1044  0.5417 -0.4707
   32DOPE    HY 4028   4.049   1.667   7.565  0.6599 -0.8993 -1.7069
   32DOPE   O31 4029   3.985   1.549   7.728  0.0851 -0.0258 -0.0136
   32DOPE   C31 4030   3.947   1.621   7.830  0.3666 -0.2489  0.5291
   32DOPE   O32 4031   3.915   1.743   7.826 -0.0371 -0.4241 -0.0696
   32DOPE   C32 4032   3.948   1.533   7.953 -0.1367  0.1311 -0.4911
   32DOPE   H2X 4033   3.901   1.437   7.923 -1.5539  1.2521 -2.0577
   32DOPE   H2Y 4034   4.056   1.513   7.970 -0.0215 -0.2254 -1.6215
   32DOPE   C23 4035   4.312   1.392   7.707 -0.2339 -0.2308 -0.3922
   32DOPE   H3R 4036   4.232   1.441   7.768 -0.3980 -1.0111  0.0293
   32DOPE   H3S 4037   4.363   1.484   7.673 -2.4803  1.4812  0.5984
   32DOPE   C24 4038   4.395   1.305   7.794 -0.5431 -0.4711 -0.3603
   32DOPE   H4R 4039   4.483   1.263   7.741 -0.2020  0.6759 -0.7537
   32DOPE   H4S 4040   4.342   1.219   7.841  0.7186  0.2093  2.5918
   32DOPE   C25 4041   4.454   1.377   7.919  0.3008 -0.0850  0.0711
   32DOPE   H5R 4042   4.512   1.466   7.885  1.1256 -1.0082 -1.0102
   32DOPE   H5S 4043   4.533   1.310   7.960 -2.4918 -3.0489  1.0008
   32DOPE   C26 4044   4.348   1.398   8.025 -0.0929 -0.1788  0.0036
   32DOPE   H6R 4045   4.296   1.301   8.040 -2.1398  1.1110  2.0715
   32DOPE   H6S 4046   4.275   1.478   8.001 -0.4345  0.5107  2.9279
   32DOPE   C27 4047   4.424   1.432   8.155  0.1189  0.1296  0.3933
   32DOPE   H7R 4048   4.488   1.519   8.132  2.3623 -1.6112 -0.3247
   32DOPE   H7S 4049   4.488   1.346   8.184  2.2991  1.8974  1.0770
   32DOPE   C28 4050   4.335   1.456   8.274  0.0845 -0.4161 -0.1489
   32DOPE   H8R 4051   4.404   1.429   8.357 -0.7147 -0.4500  0.5157
   32DOPE   H8S 4052   4.247   1.390   8.283  0.2496 -0.5436  0.6980
   32DOPE   C29 4053   4.282   1.598   8.271 -0.2804  0.3929 -0.2122
   32DOPE   H9R 4054   4.205   1.615   8.196 -0.7495 -0.0175  0.1705
   32DOPE  C210 4055   4.326   1.705   8.346 -0.0562  0.7459 -0.0080
   32DOPE  H10R 4056   4.279   1.803   8.328 -1.8874  0.4692  2.6312
   32DOPE  C211 4057   4.443   1.704   8.441  0.0080 -0.3919  0.2145
   32DOPE  H11R 4058   4.484   1.601   8.437 -1.8888 -1.1863 -0.2253
   32DOPE  H11S 4059   4.408   1.704   8.547  2.2705 -0.4719  1.0100
   32DOPE  C212 4060   4.563   1.799   8.416 -0.1892  0.5116  0.1432
   32DOPE  H12R 4061   4.568   1.813   8.306  0.9308 -0.4169  0.0595
   32DOPE  H12S 4062   4.656   1.740   8.429  0.4573  1.1719 -1.2067
   32DOPE  C213 4063   4.556   1.937   8.470 -0.3309 -0.0760 -0.2899
   32DOPE  H13R 4064   4.658   1.966   8.502 -0.5345  0.1992  0.1079
   32DOPE  H13S 4065   4.491   1.954   8.558 -0.4563  0.0616 -0.4095
   32DOPE  C214 4066   4.518   2.035   8.362  0.1550 -0.1522 -0.3908
   32DOPE  H14R 4067   4.419   2.009   8.319  0.0423  0.4714 -0.5196
   32DOPE  H14S 4068   4.591   2.035   8.278  0.9256  1.2439  0.2345
   32DOPE  C215 4069   4.495   2.177   8.409 -0.2671 -0.2149 -1.2491
   32DOPE  H15R 4070   4.408   2.183   8.478 -1.5105 -0.4886 -2.7419
   32DOPE  H15S 4071   4.473   2.251   8.330  2.2091  1.2473 -0.6664
   32DOPE  C216 4072   4.613   2.242   8.499 -0.1573 -0.3818  0.7220
   32DOPE  H16R 4073   4.699   2.260   8.430 -2.2053  3.0001 -1.1641
   32DOPE  H16S 4074   4.646   2.160   8.567 -1.1397 -1.0330  0.4371
   32DOPE  C217 4075   4.582   2.376   8.566 -0.2987 -0.5744  0.1657
   32DOPE  H17R 4076   4.512   2.343   8.645  2.3034 -2.1365  1.9707
   32DOPE  H17S 4077   4.525   2.448   8.503 -1.1113 -1.0088  0.3827
   32DOPE  C218 4078   4.699   2.457   8.625 -0.1952  0.8380 -0.5342
   32DOPE  H18R 4079   4.774   2.496   8.552  1.3865  2.1959  1.6841
   32DOPE  H18S 4080   4.756   2.393   8.696 -1.1825  1.4241  0.8139
   32DOPE  H18T 4081   4.661   2.546   8.679  1.1618  0.9386  0.2879
   32DOPE   C33 4082   3.874   1.589   8.062 -0.0244 -0.5432  0.0329
   32DOPE   H3X 4083   3.775   1.628   8.033  0.2978  0.0366 -0.3121
   32DOPE   H3Y 4084   3.932   1.679   8.092 -0.2458 -0.2167 -0.5084
   32DOPE   C34 4085   3.864   1.497   8.184  0.4556  0.1949 -0.0455
   32DOPE   H4X 4086   3.797   1.416   8.147  0.0501 -0.2765  1.6494
   32DOPE   H4Y 4087   3.965   1.461   8.213  0.7959  0.5015 -0.8227
   32DOPE   C35 4088   3.804   1.563   8.308 -0.7519 -0.4145  0.5527
   32DOPE   H5X 4089   3.770   1.482   8.377 -0.7845 -0.3845  0.5710
   32DOPE   H5Y 4090   3.718   1.622   8.271  0.0972 -0.4704 -1.6794
   32DOPE   C36 4091   3.911   1.655   8.376 -0.5134  1.1039  0.5615
   32DOPE   H6X 4092   3.932   1.738   8.305 -2.7366  0.8023 -0.4964
   32DOPE   H6Y 4093   4.001   1.589   8.384 -1.1772 -0.0899 -1.2585
   32DOPE   C37 4094   3.870   1.718   8.507  0.6935 -0.6182 -0.1340
   32DOPE   H7X 4095   3.779   1.777   8.483  0.6991 -1.0810 -1.3407
   32DOPE   H7Y 4096   3.834   1.642   8.580  0.1761 -0.2683 -0.0205
   32DOPE   C38 4097   3.984   1.793   8.567  0.3943 -0.1070 -0.4485
   32DOPE   H8X 4098   4.033   1.853   8.487 -0.1284  1.7046  0.5224
   32DOPE   H8Y 4099   4.065   1.731   8.611 -0.4476 -1.1050 -0.2826
   32DOPE   C39 4100   3.937   1.887   8.674  0.1827 -0.1296 -0.8256
   32DOPE   H9X 4101   3.831   1.915   8.683  0.7321  1.6353  0.8102
   32DOPE  C310 4102   4.023   1.953   8.764  0.0249 -0.4903  0.1469
   32DOPE  H10X 4103   3.976   2.007   8.847  1.3208 -0.6270  0.9877
   32DOPE  C311 4104   4.176   1.961   8.751  0.3092 -0.0167 -0.0459
   32DOPE  H11X 4105   4.217   1.859   8.762  1.1564  0.1676 -1.2874
   32DOPE  H11Y 4106   4.198   2.003   8.651 -0.0602 -0.7875 -0.4547
   32DOPE  C312 4107   4.239   2.055   8.856 -0.1352  0.6230 -0.1287
   32DOPE  H12X 4108   4.224   2.007   8.955  0.1899  0.3185 -0.2248
   32DOPE  H12Y 4109   4.192   2.156   8.857  0.2139  0.7919 -0.5587
   32DOPE  C313 4110   4.393   2.064   8.846 -0.0296  0.0717 -0.3257
   32DOPE  H13X 4111   4.430   1.961   8.825 -0.0862 -0.2871  1.2597
   32DOPE  H13Y 4112   4.420   2.125   8.757  1.9278  1.9491  1.4656
   32DOPE  C314 4113   4.473   2.120   8.972  0.1104  0.1958  0.4538
   32DOPE  H14X 4114   4.443   2.069   9.067  1.0823 -1.3281 -0.0101
   32DOPE  H14Y 4115   4.439   2.225   8.979  0.9524  0.6580 -1.7679
   32DOPE  C315 4116   4.622   2.110   8.939 -0.2116  0.1732 -0.2138
   32DOPE  H15X 4117   4.628   2.145   8.834  1.1169  1.5552  0.2868
   32DOPE  H15Y 4118   4.640   2.000   8.949 -0.1498  0.3169  1.6313
   32DOPE  C316 4119   4.721   2.177   9.025 -0.1791  0.2794 -0.1316
   32DOPE  H16X 4120   4.709   2.150   9.132  0.7949  1.0809  0.1997
   32DOPE  H16Y 4121   4.707   2.287   9.016 -0.3883  0.4950  2.2794
   32DOPE  C317 4122   4.871   2.153   8.991 -0.3324  0.0220  0.0379
   32DOPE  H17X 4123   4.890   2.149   8.882 -0.9864 -1.6203 -0.0601
   32DOPE  H17Y 4124   4.920   2.242   9.036 -1.9834  0.7049  0.5636
   32DOPE  C318 4125   4.931   2.019   9.048  0.4173 -0.1731 -0.1921
   32DOPE  H18X 4126   5.031   2.011   8.999  0.8499  1.0966  0.4269
   32DOPE  H18Y 4127   4.945   2.022   9.158  1.9274 -0.9353 -0.3319
   32DOPE  H18Z 4128   4.879   1.927   9.016 -0.7184  0.4889 -0.2857
   33DOPE     N 4129   3.423   0.891   6.925 -0.1811  0.0476 -0.2954
   33DOPE   HN1 4130   3.456   0.795   6.949 -0.1902  0.2851  0.6741
   33DOPE   HN2 4131   3.384   0.889   6.828  1.3442  0.5382 -0.9597
   33DOPE   HN3 4132   3.500   0.959   6.937  0.9628 -1.0554 -1.0764
   33DOPE   C12 4133   3.310   0.938   7.009  0.9426 -0.3898  0.4494
   33DOPE  H12A 4134   3.352   0.929   7.111  1.8033 -1.5499  0.0106
   33DOPE  H12B 4135   3.220   0.875   6.992 -0.8697  2.1601 -0.0049
   33DOPE   C11 4136   3.278   1.081   6.978 -0.4612 -0.5588 -0.2671
   33DOPE  H11A 4137   3.206   1.089   6.894  0.4898  1.0514 -0.9891
   33DOPE  H11B 4138   3.371   1.140   6.959  0.0375 -0.5508  1.8604
   33DOPE     P 4139   3.077   1.179   7.120 -0.5102  0.0718  0.3068
   33DOPE   O13 4140   2.996   1.104   7.022  0.0330  0.2190 -0.5813
   33DOPE   O14 4141   3.065   1.326   7.127 -0.4608  0.9820 -0.0710
   33DOPE   O11 4142   3.044   1.129   7.268 -0.2795  0.1449 -0.4097
   33DOPE   O12 4143   3.229   1.145   7.092 -0.0497  0.3337 -0.2292
   33DOPE    C1 4144   3.131   1.023   7.319  0.6910  0.5516  0.8125
   33DOPE    HA 4145   3.240   1.044   7.313  0.8541 -0.5921 -1.0723
   33DOPE    HB 4146   3.123   0.928   7.261 -2.2647  0.5067  1.1630
   33DOPE    C2 4147   3.099   0.987   7.470  0.0720  0.2302  0.3802
   33DOPE    HS 4148   2.991   0.960   7.469 -0.2880  1.5592  0.2872
   33DOPE   O21 4149   3.123   1.107   7.552  0.0569 -0.2259  0.6375
   33DOPE   C21 4150   3.037   1.133   7.648  0.0327  0.4114  0.7202
   33DOPE   O22 4151   2.947   1.060   7.693 -0.1104  0.3217  0.2004
   33DOPE   C22 4152   3.084   1.258   7.708 -0.2760  0.0397  0.1166
   33DOPE   H2R 4153   3.082   1.335   7.627 -1.4596  1.8071  1.7610
   33DOPE   H2S 4154   3.187   1.246   7.747 -1.1494 -0.5465  2.3649
   33DOPE    C3 4155   3.177   0.866   7.521 -0.0651  0.8522 -0.0333
   33DOPE    HX 4156   3.284   0.896   7.524  0.9167 -2.2229 -0.5648
   33DOPE    HY 4157   3.154   0.779   7.455 -0.4808  0.6519  0.3662
   33DOPE   O31 4158   3.133   0.842   7.657  0.3191  0.7697  0.6711
   33DOPE   C31 4159   3.207   0.741   7.705 -0.0209 -0.2869  0.5180
   33DOPE   O32 4160   3.298   0.682   7.644 -0.0956  0.1366 -0.3281
   33DOPE   C32 4161   3.150   0.714   7.848  0.9275  0.0010 -0.1134
   33DOPE   H2X 4162   3.155   0.812   7.900  1.0708  0.1003 -0.3079
   33DOPE   H2Y 4163   3.044   0.686   7.835  0.7752 -0.7019  2.1868
   33DOPE   C23 4164   2.988   1.310   7.815  0.6500  0.0970  0.3449
   33DOPE   H3R 4165   2.885   1.290   7.779  0.9508  0.8681 -0.9946
   33DOPE   H3S 4166   2.998   1.421   7.821 -0.5412  0.1944  0.9836
   33DOPE   C24 4167   3.017   1.239   7.942 -0.3954  0.6580  0.1729
   33DOPE   H4R 4168   3.114   1.268   7.990 -1.0069  2.6515  0.2993
   33DOPE   H4S 4169   3.035   1.130   7.931  2.1270  1.1656 -1.6365
   33DOPE   C25 4170   2.919   1.266   8.066  0.3822  0.1466  0.3188
   33DOPE   H5R 4171   2.950   1.209   8.156 -0.4413  1.0422  1.1924
   33DOPE   H5S 4172   2.822   1.229   8.027  0.7732  0.1795 -0.7102
   33DOPE   C26 4173   2.898   1.412   8.098  0.1160 -0.4128 -0.4832
   33DOPE   H6R 4174   2.840   1.476   8.028 -0.1258 -0.1268 -0.0263
   33DOPE   H6S 4175   2.988   1.476   8.107 -1.7938  2.5652 -1.0874
   33DOPE   C27 4176   2.810   1.426   8.225 -0.1475 -0.4567 -0.2544
   33DOPE   H7R 4177   2.862   1.371   8.307 -1.5061 -2.0178 -0.3818
   33DOPE   H7S 4178   2.718   1.366   8.212 -0.1126 -0.4121 -0.7216
   33DOPE   C28 4179   2.774   1.567   8.258  0.7023  0.1893  0.0362
   33DOPE   H8R 4180   2.688   1.611   8.201  0.2010  1.5704  1.7518
   33DOPE   H8S 4181   2.861   1.634   8.239 -0.9391  2.3349 -0.4450
   33DOPE   C29 4182   2.729   1.579   8.398  0.3725 -0.9173  0.3890
   33DOPE   H9R 4183   2.622   1.600   8.411  0.3052 -1.3155  0.5041
   33DOPE  C210 4184   2.803   1.594   8.513 -0.5292  0.3476  0.1005
   33DOPE  H10R 4185   2.740   1.617   8.600 -0.8606  1.1275 -0.3358
   33DOPE  C211 4186   2.959   1.590   8.521  0.5505  0.4907  0.0265
   33DOPE  H11R 4187   3.005   1.562   8.424 -0.2291 -0.0815 -0.1888
   33DOPE  H11S 4188   2.979   1.503   8.587  0.1119 -2.1662 -3.1013
   33DOPE  C212 4189   3.004   1.716   8.591 -0.3319 -0.9225 -0.2101
   33DOPE  H12R 4190   3.102   1.720   8.643 -0.9758  1.3494  0.9918
   33DOPE  H12S 4191   2.928   1.747   8.667  0.7380 -0.0185  0.5282
   33DOPE  C213 4192   3.026   1.832   8.488  0.2412  0.6521 -0.2962
   33DOPE  H13R 4193   2.939   1.859   8.425  0.5435 -1.0174 -1.4821
   33DOPE  H13S 4194   3.109   1.789   8.428  0.6269  1.0676 -0.0706
   33DOPE  C214 4195   3.082   1.963   8.562 -0.1501  0.0722  0.3152
   33DOPE  H14R 4196   3.161   1.928   8.631  1.3084  0.3846 -1.1483
   33DOPE  H14S 4197   3.000   2.017   8.614  1.2441  1.3095  1.3096
   33DOPE  C215 4198   3.140   2.057   8.456  0.0772 -0.0173 -0.2819
   33DOPE  H15R 4199   3.064   2.060   8.376 -0.2434 -0.9080 -0.0255
   33DOPE  H15S 4200   3.229   2.001   8.419  0.5196 -0.3212  1.1791
   33DOPE  C216 4201   3.181   2.202   8.499 -0.0027  0.0015  0.0655
   33DOPE  H16R 4202   3.268   2.189   8.566  0.7725  0.6255 -0.8109
   33DOPE  H16S 4203   3.095   2.248   8.553  0.5944  0.9078  0.2685
   33DOPE  C217 4204   3.230   2.289   8.386 -0.0838 -0.0989 -0.1617
   33DOPE  H17R 4205   3.306   2.230   8.331 -1.1967 -0.6817 -1.1198
   33DOPE  H17S 4206   3.261   2.387   8.428  0.7509 -0.5702  0.3666
   33DOPE  C218 4207   3.120   2.319   8.288  0.0232 -0.3217  0.1881
   33DOPE  H18R 4208   3.069   2.230   8.245  0.5228 -0.7683  0.5042
   33DOPE  H18S 4209   3.145   2.393   8.209 -0.9601 -0.4530 -0.2621
   33DOPE  H18T 4210   3.033   2.356   8.346  0.8978 -0.6413  1.7743
   33DOPE   C33 4211   3.229   0.605   7.922 -0.0935  0.1366 -0.0434
   33DOPE   H3X 4212   3.332   0.643   7.935 -0.0516 -0.2323  0.7552
   33DOPE   H3Y 4213   3.242   0.512   7.863  1.2986 -0.0116  0.4819
   33DOPE   C34 4214   3.165   0.573   8.062  0.5023 -0.2486  0.4885
   33DOPE   H4X 4215   3.166   0.664   8.125 -1.6889 -0.2088  0.5418
   33DOPE   H4Y 4216   3.063   0.529   8.057 -0.1558  1.3022 -1.5679
   33DOPE   C35 4217   3.256   0.466   8.139 -0.3949 -0.2198 -0.0534
   33DOPE   H5X 4218   3.358   0.509   8.133 -0.5274 -0.1136 -2.1571
   33DOPE   H5Y 4219   3.247   0.371   8.081 -0.1824  0.4824 -1.2596
   33DOPE   C36 4220   3.230   0.452   8.292 -0.4566 -0.2237  0.2215
   33DOPE   H6X 4221   3.309   0.389   8.337 -0.2252 -0.9166 -1.1092
   33DOPE   H6Y 4222   3.132   0.404   8.312 -1.1574  1.1211  0.1432
   33DOPE   C37 4223   3.236   0.580   8.374 -0.3261  0.2695  0.3134
   33DOPE   H7X 4224   3.320   0.646   8.346  0.4948 -0.8469  0.1023
   33DOPE   H7Y 4225   3.139   0.634   8.360 -2.3128 -2.7757  1.3135
   33DOPE   C38 4226   3.246   0.545   8.515  0.1524 -1.1949 -0.3047
   33DOPE   H8X 4227   3.345   0.497   8.523  0.9277  0.6338  3.6142
   33DOPE   H8Y 4228   3.179   0.465   8.554  1.7502 -0.6571  4.1907
   33DOPE   C39 4229   3.244   0.660   8.613 -0.6432 -0.0071 -0.1030
   33DOPE   H9X 4230   3.341   0.711   8.621 -0.1511 -1.0437  0.7939
   33DOPE  C310 4231   3.141   0.722   8.670  0.1112 -0.1471 -0.5593
   33DOPE  H10X 4232   3.157   0.812   8.732 -0.7651 -0.9417  0.8634
   33DOPE  C311 4233   3.002   0.686   8.641  0.4714 -0.1952 -0.4919
   33DOPE  H11X 4234   2.968   0.736   8.548 -0.8991  0.4888  0.3401
   33DOPE  H11Y 4235   2.985   0.578   8.617 -2.7475  0.4879 -1.7659
   33DOPE  C312 4236   2.892   0.725   8.738 -0.2509 -0.4361 -0.3593
   33DOPE  H12X 4237   2.789   0.696   8.706 -0.6069  0.6278 -0.2384
   33DOPE  H12Y 4238   2.885   0.836   8.747  0.2671 -0.3380 -1.0381
   33DOPE  C313 4239   2.909   0.656   8.871 -0.1340 -0.9102  0.6416
   33DOPE  H13X 4240   2.861   0.557   8.859 -0.2600 -0.8384  0.5517
   33DOPE  H13Y 4241   3.018   0.645   8.892  0.2505 -0.1157 -0.8017
   33DOPE  C314 4242   2.843   0.736   8.986  0.2133  0.6520 -0.1787
   33DOPE  H14X 4243   2.737   0.744   8.956  0.0075 -1.2969 -0.1388
   33DOPE  H14Y 4244   2.892   0.835   8.992  0.1332  0.6854 -0.0779
   33DOPE  C315 4245   2.850   0.680   9.124  0.0515  0.8658 -0.2705
   33DOPE  H15X 4246   2.825   0.572   9.124  0.3381  0.8004 -0.5301
   33DOPE  H15Y 4247   2.787   0.751   9.181 -0.9339  1.4478 -2.0012
   33DOPE  C316 4248   2.992   0.686   9.184 -0.1281 -0.4451  0.0613
   33DOPE  H16X 4249   3.038   0.786   9.169 -0.5366 -0.2235  0.2703
   33DOPE  H16Y 4250   3.055   0.605   9.141  0.4714 -0.5105  1.0364
   33DOPE  C317 4251   2.982   0.660   9.339  0.0487 -0.3559 -0.2912
   33DOPE  H17X 4252   2.917   0.738   9.385  0.5693  1.1965 -2.0482
   33DOPE  H17Y 4253   2.946   0.555   9.341 -0.0092 -0.3415 -0.5691
   33DOPE  C318 4254   3.114   0.671   9.407  0.1924  0.2181 -0.2591
   33DOPE  H18X 4255   3.143   0.777   9.421 -0.1120  0.4823 -1.5280
   33DOPE  H18Y 4256   3.125   0.603   9.494  0.2234 -0.4721 -0.7881
   33DOPE  H18Z 4257   3.191   0.623   9.342  1.7480  1.7749  0.3453
   34DOPE     N 4258   2.752   4.121   6.725  0.0700 -0.3158 -0.2425
   34DOPE   HN1 4259   2.770   4.035   6.669 -1.6505  0.4777 -2.1777
   34DOPE   HN2 4260   2.724   4.201   6.664 -1.7278 -0.3119  0.5105
   34DOPE   HN3 4261   2.837   4.150   6.776 -0.0064  0.5647 -0.5933
   34DOPE   C12 4262   2.636   4.110   6.821 -0.1589  0.6470 -0.3209
   34DOPE  H12A 4263   2.661   4.173   6.909 -3.2606  1.7133 -0.0542
   34DOPE  H12B 4264   2.621   4.002   6.841 -1.7062  0.9943  0.5483
   34DOPE   C11 4265   2.512   4.167   6.762  0.6438 -0.9759  0.0981
   34DOPE  H11A 4266   2.430   4.160   6.837  0.0057  3.1893  0.0412
   34DOPE  H11B 4267   2.472   4.118   6.671 -0.9258  0.5618 -0.0950
   34DOPE     P 4268   2.416   4.410   6.692 -0.3359  0.0411 -0.2062
   34DOPE   O13 4269   2.411   4.436   6.550 -0.0556 -0.2419  0.5257
   34DOPE   O14 4270   2.447   4.525   6.782  0.4313 -0.8001  0.3123
   34DOPE   O11 4271   2.282   4.329   6.740 -0.8509 -0.4924 -0.4118
   34DOPE   O12 4272   2.532   4.304   6.724  0.4621  0.6285 -0.6441
   34DOPE    C1 4273   2.183   4.387   6.826 -0.6267 -0.6303  0.0433
   34DOPE    HA 4274   2.086   4.386   6.772 -0.7887  0.0758  0.3257
   34DOPE    HB 4275   2.199   4.494   6.849  0.4283 -1.1759  2.0372
   34DOPE    C2 4276   2.180   4.312   6.958  0.0714 -0.6102  0.0207
   34DOPE    HS 4277   2.108   4.372   7.018  0.4527 -1.2448  1.1467
   34DOPE   O21 4278   2.310   4.294   7.021  0.5702  0.4693 -0.1673
   34DOPE   C21 4279   2.348   4.405   7.087  0.4598  0.1479  1.2128
   34DOPE   O22 4280   2.279   4.505   7.105  0.1205  0.0898  0.6465
   34DOPE   C22 4281   2.498   4.396   7.091  0.3757  0.0375 -0.1090
   34DOPE   H2R 4282   2.531   4.367   6.989  2.5397 -4.2805  1.5581
   34DOPE   H2S 4283   2.526   4.314   7.160  1.2704 -0.1762 -0.7123
   34DOPE    C3 4284   2.101   4.172   6.950 -0.1112 -0.3599 -0.1116
   34DOPE    HX 4285   2.164   4.097   6.897 -1.0861 -1.4441  0.2405
   34DOPE    HY 4286   2.008   4.187   6.892  0.7565  0.6587 -1.3013
   34DOPE   O31 4287   2.064   4.125   7.078  0.1011  0.3682  0.6354
   34DOPE   C31 4288   2.126   4.016   7.122 -0.1908 -0.0330 -0.7376
   34DOPE   O32 4289   2.221   3.965   7.072 -0.1372  0.1815 -0.8041
   34DOPE   C32 4290   2.061   3.959   7.243 -0.4383  1.1917  0.2599
   34DOPE   H2X 4291   1.951   3.973   7.251 -0.7347 -0.9607  0.3838
   34DOPE   H2Y 4292   2.084   3.851   7.245 -0.6545  1.1514  0.6591
   34DOPE   C23 4293   2.564   4.524   7.135  0.2634  0.2885  0.3922
   34DOPE   H3R 4294   2.535   4.622   7.092  0.2832  0.2224  0.2280
   34DOPE   H3S 4295   2.669   4.497   7.114  0.0364 -0.6791  0.4393
   34DOPE   C24 4296   2.567   4.536   7.291  0.3598  0.5078 -0.5752
   34DOPE   H4R 4297   2.603   4.445   7.343 -1.9456  1.5019  3.1026
   34DOPE   H4S 4298   2.458   4.544   7.311  0.3840 -1.6475  0.6975
   34DOPE   C25 4299   2.644   4.657   7.339 -0.2474 -0.2153  0.2429
   34DOPE   H5R 4300   2.626   4.741   7.269  2.2063 -1.3871 -1.9700
   34DOPE   H5S 4301   2.749   4.631   7.314 -0.1665  0.8353 -0.5728
   34DOPE   C26 4302   2.626   4.701   7.485  0.4556 -0.0311  0.6303
   34DOPE   H6R 4303   2.531   4.757   7.499  0.7782  0.6640  0.0655
   34DOPE   H6S 4304   2.695   4.787   7.497 -1.2795  1.4004  0.8962
   34DOPE   C27 4305   2.661   4.593   7.581 -0.0437 -0.1100 -0.4918
   34DOPE   H7R 4306   2.769   4.568   7.571 -0.4757 -2.4818  0.1538
   34DOPE   H7S 4307   2.602   4.501   7.564  0.5126 -0.5307 -0.1473
   34DOPE   C28 4308   2.641   4.648   7.724 -0.5388  0.7161 -0.1818
   34DOPE   H8R 4309   2.652   4.557   7.786  2.4946  1.5406  0.6083
   34DOPE   H8S 4310   2.538   4.688   7.740  0.3404  2.5470  1.2295
   34DOPE   C29 4311   2.750   4.745   7.764 -0.0682 -0.3788 -0.2778
   34DOPE   H9R 4312   2.851   4.707   7.746  1.1900  3.7327 -3.6342
   34DOPE  C210 4313   2.731   4.851   7.841 -1.0694 -0.5092  0.4152
   34DOPE  H10R 4314   2.826   4.907   7.850  0.2869 -2.3970 -1.1022
   34DOPE  C211 4315   2.599   4.914   7.874  0.1590 -0.3056  0.1332
   34DOPE  H11R 4316   2.523   4.835   7.890 -0.0724 -0.2091 -0.4809
   34DOPE  H11S 4317   2.561   4.976   7.789 -0.1957 -2.2436 -1.1716
   34DOPE  C212 4318   2.598   5.002   7.997  0.1269  0.6223 -0.1933
   34DOPE  H12R 4319   2.499   5.049   8.014 -0.7050 -1.6418  1.7143
   34DOPE  H12S 4320   2.675   5.082   7.986  0.6243  0.2955  0.7740
   34DOPE  C213 4321   2.634   4.915   8.122  0.4237 -0.4363  1.2209
   34DOPE  H13R 4322   2.740   4.883   8.126  0.2861 -0.8969  1.2373
   34DOPE  H13S 4323   2.580   4.820   8.102  2.3583 -1.2851 -0.3542
   34DOPE  C214 4324   2.604   4.970   8.257  1.0975  0.0903  0.2487
   34DOPE  H14R 4325   2.497   4.997   8.268  0.8917 -0.6478  0.1016
   34DOPE  H14S 4326   2.662   5.062   8.281  2.4505 -0.3884 -1.0563
   34DOPE  C215 4327   2.608   4.864   8.371 -1.0186 -0.6236  0.0041
   34DOPE  H15R 4328   2.710   4.820   8.376 -0.5262  0.6152  2.6192
   34DOPE  H15S 4329   2.526   4.794   8.349 -1.8678  0.4168 -0.2297
   34DOPE  C216 4330   2.580   4.921   8.512  0.2137  0.2384 -0.1792
   34DOPE  H16R 4331   2.477   4.962   8.517 -0.3375 -0.8736 -1.6904
   34DOPE  H16S 4332   2.646   5.008   8.535  1.5382 -1.3105  2.2855
   34DOPE  C217 4333   2.602   4.825   8.633 -0.5456 -0.6392  0.2781
   34DOPE  H17R 4334   2.572   4.882   8.723  0.2491 -0.0675  0.1880
   34DOPE  H17S 4335   2.708   4.793   8.628 -1.1242 -2.5798 -0.5666
   34DOPE  C218 4336   2.519   4.695   8.621 -0.1509  0.1555  0.1529
   34DOPE  H18R 4337   2.531   4.629   8.710 -1.1394  1.0926  1.0045
   34DOPE  H18S 4338   2.549   4.633   8.534 -0.2640 -1.7760  1.4339
   34DOPE  H18T 4339   2.413   4.721   8.602 -0.1439 -1.0111 -1.7305
   34DOPE   C33 4340   2.140   4.014   7.355 -0.1607 -0.6066  0.4191
   34DOPE   H3X 4341   2.246   3.982   7.350  0.0497 -0.0528  1.1705
   34DOPE   H3Y 4342   2.098   3.962   7.443 -1.9341  0.4542  0.2505
   34DOPE   C34 4343   2.121   4.160   7.387  0.3101 -0.5169  0.1256
   34DOPE   H4X 4344   2.098   4.217   7.295  0.2595 -0.8766 -0.0884
   34DOPE   H4Y 4345   2.039   4.171   7.461 -0.1749  1.9458 -0.6879
   34DOPE   C35 4346   2.243   4.219   7.462 -0.0477 -0.0332 -0.3688
   34DOPE   H5X 4347   2.331   4.215   7.393 -1.3813  0.8853 -2.2134
   34DOPE   H5Y 4348   2.260   4.150   7.547 -3.4219 -0.6248 -0.0648
   34DOPE   C36 4349   2.229   4.361   7.511  0.0217 -0.6348  0.6679
   34DOPE   H6X 4350   2.318   4.401   7.564 -0.2204  1.7548 -0.5739
   34DOPE   H6Y 4351   2.145   4.351   7.583  1.0251  0.2390  2.0127
   34DOPE   C37 4352   2.190   4.472   7.408 -0.2319 -0.6324 -0.3448
   34DOPE   H7X 4353   2.275   4.474   7.337 -0.0157 -0.8413 -0.0971
   34DOPE   H7Y 4354   2.094   4.443   7.360  0.1676 -2.3152 -0.2082
   34DOPE   C38 4355   2.175   4.609   7.477 -0.1020  0.3401  0.1961
   34DOPE   H8X 4356   2.175   4.691   7.402 -2.4510  0.4212  0.2137
   34DOPE   H8Y 4357   2.267   4.622   7.539  0.4006  0.1920 -0.5092
   34DOPE   C39 4358   2.056   4.621   7.566  0.8435  0.3950 -0.2994
   34DOPE   H9X 4359   1.958   4.639   7.518 -0.0762 -0.0303  1.3410
   34DOPE  C310 4360   2.043   4.608   7.699  0.0550  0.1466 -0.2329
   34DOPE  H10X 4361   1.946   4.605   7.752 -0.7968 -1.7379 -1.8090
   34DOPE  C311 4362   2.157   4.580   7.788  0.2055  0.1706 -0.2313
   34DOPE  H11X 4363   2.256   4.588   7.737 -1.1292  0.4784 -2.9673
   34DOPE  H11Y 4364   2.158   4.662   7.863 -0.6116  0.9811 -1.0764
   34DOPE  C312 4365   2.130   4.448   7.862 -0.4076  0.3982 -0.2845
   34DOPE  H12X 4366   2.116   4.370   7.784 -1.4612 -0.2020  0.4735
   34DOPE  H12Y 4367   2.033   4.458   7.916 -0.1832 -0.6148  0.3270
   34DOPE  C313 4368   2.248   4.399   7.953  0.5455  0.0578  1.1659
   34DOPE  H13X 4369   2.231   4.297   7.994  0.4299  0.1858  1.4346
   34DOPE  H13Y 4370   2.333   4.386   7.882 -1.1865 -0.6469 -0.8990
   34DOPE  C314 4371   2.283   4.490   8.070 -0.1670  0.5617  0.5258
   34DOPE  H14X 4372   2.185   4.513   8.116 -0.0852 -0.8401  1.4500
   34DOPE  H14Y 4373   2.325   4.582   8.023 -1.5614  1.3381  0.7396
   34DOPE  C315 4374   2.376   4.433   8.178 -0.6110  0.4125  0.3020
   34DOPE  H15X 4375   2.483   4.454   8.159  0.1408 -2.0478  1.3044
   34DOPE  H15Y 4376   2.369   4.322   8.169 -1.0843  0.3952  0.8251
   34DOPE  C316 4377   2.349   4.467   8.328 -0.0201  0.4784  0.7024
   34DOPE  H16X 4378   2.340   4.576   8.350 -0.9739  0.1930  1.8415
   34DOPE  H16Y 4379   2.435   4.429   8.388  0.6157 -0.3840 -0.7208
   34DOPE  C317 4380   2.217   4.399   8.375  0.6200  0.3428 -0.5585
   34DOPE  H17X 4381   2.135   4.430   8.307 -1.3017 -1.1172  0.9809
   34DOPE  H17Y 4382   2.219   4.290   8.354  1.8392  0.8617 -3.6824
   34DOPE  C318 4383   2.190   4.437   8.522 -0.5604  0.1804  0.6238
   34DOPE  H18X 4384   2.094   4.392   8.555  0.6130 -1.7266  1.6792
   34DOPE  H18Y 4385   2.265   4.408   8.599 -0.9746 -2.1403  0.2142
   34DOPE  H18Z 4386   2.196   4.548   8.523 -1.2278  0.2398 -0.7265
   35DOPE     N 4387   4.784   1.235   7.087 -0.2309 -0.4934 -0.5038
   35DOPE   HN1 4388   4.685   1.204   7.083 -0.5957  0.7393 -3.2394
   35DOPE   HN2 4389   4.808   1.290   7.002  0.2873  0.6077  0.3315
   35DOPE   HN3 4390   4.841   1.149   7.074  1.5940  0.7806 -1.3626
   35DOPE   C12 4391   4.827   1.322   7.208 -0.5017  0.0877  0.1203
   35DOPE  H12A 4392   4.768   1.279   7.291 -0.8181  3.7686  2.0441
   35DOPE  H12B 4393   4.796   1.429   7.198  1.4241  1.0077  2.9555
   35DOPE   C11 4394   4.980   1.318   7.216  0.2067  0.4357 -0.8135
   35DOPE  H11A 4395   5.015   1.212   7.218  1.7102  0.9004 -1.5277
   35DOPE  H11B 4396   5.001   1.372   7.311 -1.1616 -1.6783  0.8008
   35DOPE     P 4397   5.203   1.398   7.119  0.3301  0.1723  0.3040
   35DOPE   O13 4398   5.249   1.471   6.997  0.2882 -0.3225 -0.0792
   35DOPE   O14 4399   5.270   1.267   7.154 -0.3248 -0.2124 -0.2556
   35DOPE   O11 4400   5.209   1.494   7.248 -0.2325 -0.2047  0.2856
   35DOPE   O12 4401   5.045   1.376   7.101  0.0828  0.1026  0.5581
   35DOPE    C1 4402   5.119   1.609   7.241  0.2325 -0.9850 -0.2608
   35DOPE    HA 4403   5.016   1.582   7.273  0.4315  0.4902  1.8279
   35DOPE    HB 4404   5.098   1.652   7.141 -1.7254 -0.0153  0.4993
   35DOPE    C2 4405   5.173   1.726   7.330 -0.3815  0.5675  0.4922
   35DOPE    HS 4406   5.259   1.765   7.271 -2.6985  0.2321 -3.4789
   35DOPE   O21 4407   5.217   1.670   7.459 -0.4775 -0.2050 -0.5264
   35DOPE   C21 4408   5.316   1.739   7.511 -0.2444 -0.3685  0.4597
   35DOPE   O22 4409   5.351   1.854   7.476 -0.0442  0.2569 -0.0663
   35DOPE   C22 4410   5.378   1.661   7.628  0.3483 -0.3173  0.0356
   35DOPE   H2R 4411   5.401   1.557   7.600 -1.2170 -0.2706 -1.6155
   35DOPE   H2S 4412   5.313   1.661   7.718  0.5064 -1.6328  0.1595
   35DOPE    C3 4413   5.078   1.851   7.336  0.1191  0.0940  1.1666
   35DOPE    HX 4414   5.029   1.864   7.237 -0.3978  2.2982  1.6706
   35DOPE    HY 4415   5.142   1.942   7.344  1.0606 -0.4837  0.4722
   35DOPE   O31 4416   4.982   1.850   7.447 -0.2251  0.4670  1.0785
   35DOPE   C31 4417   4.867   1.783   7.425  0.1924 -0.9289 -0.6298
   35DOPE   O32 4418   4.829   1.727   7.325 -0.3041 -0.6726  0.0236
   35DOPE   C32 4419   4.790   1.782   7.557  0.3192 -0.3802 -0.6230
   35DOPE   H2X 4420   4.823   1.686   7.601  2.5578  1.5335  2.2828
   35DOPE   H2Y 4421   4.823   1.866   7.622 -1.0355  0.5943 -1.1404
   35DOPE   C23 4422   5.511   1.729   7.679 -0.2370  0.3022 -0.1042
   35DOPE   H3R 4423   5.507   1.833   7.719 -1.2844  0.1551  0.2148
   35DOPE   H3S 4424   5.579   1.731   7.591 -0.5546 -2.6678 -0.5060
   35DOPE   C24 4425   5.581   1.642   7.783  0.3404 -0.2985 -0.6491
   35DOPE   H4R 4426   5.564   1.536   7.753  1.7377 -0.0756 -2.3790
   35DOPE   H4S 4427   5.535   1.659   7.882  0.7264 -1.8388 -0.1694
   35DOPE   C25 4428   5.725   1.684   7.803  0.3107  0.3496  0.3961
   35DOPE   H5R 4429   5.736   1.785   7.849 -1.2648  0.4393  0.6239
   35DOPE   H5S 4430   5.771   1.691   7.702  0.7418  0.7240  0.6159
   35DOPE   C26 4431   5.815   1.586   7.884 -0.1780 -0.7871 -0.1842
   35DOPE   H6R 4432   5.768   1.582   7.985 -1.7698 -0.8388 -0.8931
   35DOPE   H6S 4433   5.911   1.636   7.907 -1.5776  1.5561  0.8993
   35DOPE   C27 4434   5.824   1.458   7.810 -0.2308 -0.5037 -0.0869
   35DOPE   H7R 4435   5.870   1.456   7.708  1.0642 -3.8631  0.4174
   35DOPE   H7S 4436   5.725   1.413   7.789 -0.7672  0.4166  0.4079
   35DOPE   C28 4437   5.898   1.345   7.891 -0.4367 -0.9970  0.5157
   35DOPE   H8R 4438   6.007   1.365   7.883 -1.0014  1.6549 -3.1342
   35DOPE   H8S 4439   5.889   1.256   7.825 -0.0879 -0.1237 -0.7489
   35DOPE   C29 4440   5.833   1.322   8.027 -0.2785  0.0462 -0.3454
   35DOPE   H9R 4441   5.737   1.270   8.037 -0.9630  1.0082 -1.6216
   35DOPE  C210 4442   5.892   1.368   8.137 -0.7463 -0.7517  0.0153
   35DOPE  H10R 4443   5.838   1.344   8.230 -0.4925  1.2874  0.7234
   35DOPE  C211 4444   6.025   1.442   8.150  0.3588  0.8364 -0.3994
   35DOPE  H11R 4445   6.019   1.496   8.247  1.5374 -1.6949  1.1863
   35DOPE  H11S 4446   6.040   1.510   8.063  1.2799  2.4194  0.9270
   35DOPE  C212 4447   6.139   1.336   8.155  0.0876  0.9620 -0.5830
   35DOPE  H12R 4448   6.138   1.276   8.061  2.1886 -1.2734  0.7110
   35DOPE  H12S 4449   6.118   1.266   8.238 -1.3819  0.7405 -1.0975
   35DOPE  C213 4450   6.285   1.385   8.158 -0.1029  0.1025  0.0786
   35DOPE  H13R 4451   6.306   1.453   8.243  1.7696  0.8819 -0.9510
   35DOPE  H13S 4452   6.311   1.424   8.057 -1.6408  1.4879  0.1885
   35DOPE  C214 4453   6.383   1.266   8.193  0.2304 -0.9548  0.8346
   35DOPE  H14R 4454   6.413   1.206   8.105  3.1633 -2.0141  2.4091
   35DOPE  H14S 4455   6.342   1.198   8.271 -3.7084  1.8376  1.4954
   35DOPE  C215 4456   6.519   1.318   8.242 -0.2814 -0.8334  0.8082
   35DOPE  H15R 4457   6.512   1.337   8.352 -0.7751  1.6006  0.4114
   35DOPE  H15S 4458   6.545   1.413   8.191 -0.8037 -0.4411  1.2517
   35DOPE  C216 4459   6.618   1.208   8.213 -0.0445  0.3475 -0.0421
   35DOPE  H16R 4460   6.718   1.247   8.245 -0.0436  0.6231 -0.3784
   35DOPE  H16S 4461   6.627   1.183   8.105  0.3396 -1.2885  0.3425
   35DOPE  C217 4462   6.583   1.080   8.290 -0.4625  0.9289  1.0782
   35DOPE  H17R 4463   6.513   1.013   8.236  1.6342 -0.5882  0.0881
   35DOPE  H17S 4464   6.544   1.101   8.392  1.1766  2.0067  1.5242
   35DOPE  C218 4465   6.706   0.995   8.315 -0.4367 -0.0247 -0.2384
   35DOPE  H18R 4466   6.676   0.901   8.365 -1.2986 -0.1843 -1.0387
   35DOPE  H18S 4467   6.777   1.043   8.386  0.6891 -0.5020 -0.9975
   35DOPE  H18T 4468   6.755   0.960   8.222 -2.2633  1.9674 -2.0756
   35DOPE   C33 4469   4.631   1.778   7.554 -0.0270  0.3076  0.2326
   35DOPE   H3X 4470   4.577   1.694   7.504 -1.0048 -0.4593  2.4484
   35DOPE   H3Y 4471   4.598   1.879   7.522 -3.0803 -1.0549 -1.3088
   35DOPE   C34 4472   4.573   1.775   7.700 -0.0595  0.5004  0.1538
   35DOPE   H4X 4473   4.564   1.666   7.723 -0.2330  0.1341 -1.5247
   35DOPE   H4Y 4474   4.652   1.806   7.772  1.1961 -1.8540 -0.0986
   35DOPE   C35 4475   4.440   1.855   7.706  0.0153 -0.2525  0.1117
   35DOPE   H5X 4476   4.390   1.831   7.609  0.3951  0.3005 -0.2224
   35DOPE   H5Y 4477   4.449   1.965   7.712 -2.1494 -0.0547  0.8634
   35DOPE   C36 4478   4.345   1.818   7.827 -0.0644 -0.1221  0.4835
   35DOPE   H6X 4479   4.335   1.708   7.837  1.2705 -0.5621 -2.1458
   35DOPE   H6Y 4480   4.244   1.853   7.795  0.4485 -0.0743 -1.1516
   35DOPE   C37 4481   4.375   1.887   7.960 -0.3978  0.3341 -0.4457
   35DOPE   H7X 4482   4.438   1.817   8.020 -2.3545 -1.3427 -0.2328
   35DOPE   H7Y 4483   4.433   1.979   7.939 -0.6172  0.3634 -0.9419
   35DOPE   C38 4484   4.256   1.938   8.044 -0.1166  0.3040 -0.0929
   35DOPE   H8X 4485   4.305   2.016   8.106 -2.2286  0.5630  1.3833
   35DOPE   H8Y 4486   4.227   1.852   8.108  2.8934 -0.2750  0.6500
   35DOPE   C39 4487   4.135   2.001   7.983 -0.7249  0.2234  0.9163
   35DOPE   H9X 4488   4.153   2.020   7.876  1.8003 -1.1001  1.0324
   35DOPE  C310 4489   4.014   2.026   8.047 -0.4120  0.2266 -0.6187
   35DOPE  H10X 4490   3.936   2.061   7.978  0.4952  0.5976 -1.4852
   35DOPE  C311 4491   3.962   2.003   8.192  0.1606  0.4721  0.3906
   35DOPE  H11X 4492   3.857   1.966   8.189 -0.2058  1.4348  1.0642
   35DOPE  H11Y 4493   4.026   1.926   8.241 -1.0958 -1.1967 -0.4741
   35DOPE  C312 4494   3.966   2.121   8.288  0.3410  0.4457 -0.1972
   35DOPE  H12X 4495   3.915   2.085   8.380 -1.4962  1.1703 -0.8752
   35DOPE  H12Y 4496   3.894   2.190   8.238 -0.5614 -0.0471  0.4004
   35DOPE  C313 4497   4.106   2.171   8.306  0.3696  0.2217  0.8907
   35DOPE  H13X 4498   4.162   2.080   8.337 -0.0999 -0.7290 -0.9249
   35DOPE  H13Y 4499   4.164   2.209   8.219 -0.7854 -0.1087 -0.0579
   35DOPE  C314 4500   4.122   2.278   8.414  0.7550  0.0617  0.3601
   35DOPE  H14X 4501   4.076   2.371   8.375  2.1557  1.2006  1.3098
   35DOPE  H14Y 4502   4.226   2.316   8.429  0.5309  0.0582  2.0827
   35DOPE  C315 4503   4.045   2.258   8.542 -0.5840 -1.3798  0.3198
   35DOPE  H15X 4504   4.048   2.153   8.578 -1.5286 -1.6953 -0.4939
   35DOPE  H15Y 4505   3.938   2.276   8.521 -0.3402  0.6489  0.6102
   35DOPE  C316 4506   4.101   2.353   8.660 -0.3034 -0.0035 -0.7079
   35DOPE  H16X 4507   4.115   2.456   8.620  1.0642  1.0872  2.3059
   35DOPE  H16Y 4508   4.205   2.328   8.690  0.4726  3.3622 -0.1897
   35DOPE  C317 4509   4.000   2.351   8.774 -0.1036 -0.1182 -0.0146
   35DOPE  H17X 4510   3.905   2.394   8.735  0.6121  1.6562  0.0706
   35DOPE  H17Y 4511   3.987   2.244   8.800  0.8669  0.1318  1.6214
   35DOPE  C318 4512   4.028   2.432   8.897 -0.2459  0.5700  0.1592
   35DOPE  H18X 4513   4.133   2.408   8.925 -0.0443 -0.4260 -1.3242
   35DOPE  H18Y 4514   4.033   2.539   8.867 -0.6821  0.0721 -1.8075
   35DOPE  H18Z 4515   3.959   2.411   8.981  1.4999 -0.6741  1.3461
   36DOPE     N 4516   4.562   2.342   7.359 -1.1664 -0.5242 -0.0456
   36DOPE   HN1 4517   4.467   2.384   7.358 -1.1239 -0.4277  0.0123
   36DOPE   HN2 4518   4.634   2.404   7.401 -0.0577 -0.9867 -1.2045
   36DOPE   HN3 4519   4.606   2.340   7.265  1.1698  0.3385  0.9818
   36DOPE   C12 4520   4.565   2.207   7.429 -0.1250 -0.0160  0.9062
   36DOPE  H12A 4521   4.520   2.224   7.529 -2.1997  0.1743 -0.0049
   36DOPE  H12B 4522   4.670   2.170   7.429 -0.5426 -1.3296 -0.8698
   36DOPE   C11 4523   4.489   2.104   7.354  0.3744 -0.4469  1.1681
   36DOPE  H11A 4524   4.512   2.002   7.392 -1.6656 -0.7339  1.7707
   36DOPE  H11B 4525   4.524   2.109   7.249  0.8513  0.2218  1.3563
   36DOPE     P 4526   4.239   2.095   7.458  0.3727 -0.2542  0.2604
   36DOPE   O13 4527   4.221   1.951   7.443 -0.0639  0.0785 -0.9818
   36DOPE   O14 4528   4.130   2.193   7.429 -0.2212  1.0152 -0.1009
   36DOPE   O11 4529   4.311   2.132   7.599  0.5839 -0.3017 -0.2111
   36DOPE   O12 4530   4.345   2.140   7.353  0.2100 -0.4293 -0.2743
   36DOPE    C1 4531   4.240   2.224   7.683 -0.3810 -0.2970 -0.0030
   36DOPE    HA 4532   4.270   2.197   7.787  1.4755 -2.1126 -0.9351
   36DOPE    HB 4533   4.130   2.216   7.680 -0.5180  1.3605 -2.2911
   36DOPE    C2 4534   4.284   2.373   7.653  0.4256  0.3218  0.0862
   36DOPE    HS 4535   4.296   2.376   7.543 -0.7678 -2.0938 -0.1728
   36DOPE   O21 4536   4.406   2.395   7.725 -0.0352  0.5819  0.8674
   36DOPE   C21 4537   4.472   2.502   7.676 -0.2630  0.5252  0.0787
   36DOPE   O22 4538   4.454   2.552   7.567  0.2945 -0.6158  0.1099
   36DOPE   C22 4539   4.566   2.551   7.790 -0.1308 -0.6131  0.6746
   36DOPE   H2R 4540   4.628   2.467   7.827  0.4487  0.3818  2.0105
   36DOPE   H2S 4541   4.503   2.583   7.876  1.7317  0.8629  1.5643
   36DOPE    C3 4542   4.177   2.480   7.700  0.1150  0.5744  0.3094
   36DOPE    HX 4543   4.090   2.460   7.635  0.0633 -0.7777  0.7541
   36DOPE    HY 4544   4.222   2.575   7.665  0.3911 -0.1407 -1.3694
   36DOPE   O31 4545   4.131   2.470   7.838  0.6987  0.0385  0.1301
   36DOPE   C31 4546   4.201   2.549   7.918  0.0997  0.4900  0.1529
   36DOPE   O32 4547   4.261   2.649   7.881 -0.0272 -0.0057  0.0267
   36DOPE   C32 4548   4.172   2.526   8.065 -0.2355 -0.1769  0.0176
   36DOPE   H2X 4549   4.067   2.491   8.074 -0.3341 -0.2701 -1.3210
   36DOPE   H2Y 4550   4.247   2.456   8.107  0.0017  0.6204  0.9815
   36DOPE   C23 4551   4.662   2.669   7.746 -0.0756  0.3660 -0.3588
   36DOPE   H3R 4552   4.603   2.746   7.693  0.5762  0.1621 -1.4110
   36DOPE   H3S 4553   4.734   2.632   7.670  0.7563  0.2767  0.4474
   36DOPE   C24 4554   4.746   2.731   7.863  0.3632 -0.4287 -0.0716
   36DOPE   H4R 4555   4.822   2.806   7.831  0.5430  0.4974  2.3079
   36DOPE   H4S 4556   4.806   2.647   7.904 -0.4269 -0.2717  1.4687
   36DOPE   C25 4557   4.664   2.797   7.965  0.2317 -0.3838  0.7916
   36DOPE   H5R 4558   4.597   2.722   8.012 -0.8023  1.8811  3.2185
   36DOPE   H5S 4559   4.599   2.875   7.918 -0.7162 -2.7780 -2.2169
   36DOPE   C26 4560   4.742   2.854   8.078 -0.5761 -0.3250  0.0969
   36DOPE   H6R 4561   4.799   2.941   8.040 -0.6162  0.8229  2.4817
   36DOPE   H6S 4562   4.816   2.775   8.103  0.8221  0.2610 -1.9836
   36DOPE   C27 4563   4.658   2.898   8.203  0.2529  0.7360  0.1824
   36DOPE   H7R 4564   4.585   2.957   8.143 -0.8911 -2.5193 -1.9051
   36DOPE   H7S 4565   4.726   2.963   8.262 -1.6011  2.5040  0.5108
   36DOPE   C28 4566   4.602   2.782   8.285  0.3446  0.3258  0.6180
   36DOPE   H8R 4567   4.551   2.713   8.215  0.0466 -1.1641  2.2145
   36DOPE   H8S 4568   4.537   2.817   8.369  0.1639  0.1571  0.5478
   36DOPE   C29 4569   4.717   2.711   8.360 -0.5527 -0.5214  0.2308
   36DOPE   H9R 4570   4.786   2.638   8.314  1.8451  0.6086  1.8262
   36DOPE  C210 4571   4.766   2.754   8.477  0.7564  0.6396  0.3244
   36DOPE  H10R 4572   4.838   2.694   8.534  1.6477  0.7231 -0.6783
   36DOPE  C211 4573   4.711   2.860   8.564 -0.3389  0.0915  0.0798
   36DOPE  H11R 4574   4.611   2.826   8.599 -0.7290  0.2792 -0.8348
   36DOPE  H11S 4575   4.706   2.963   8.524 -0.4959  0.0875  0.0887
   36DOPE  C212 4576   4.793   2.877   8.693 -0.1058  0.9742 -0.0255
   36DOPE  H12R 4577   4.897   2.910   8.669 -1.2310  2.6720 -3.0363
   36DOPE  H12S 4578   4.794   2.778   8.743 -0.3894  0.3778 -1.1929
   36DOPE  C213 4579   4.744   2.986   8.790  0.8620 -0.2278  0.4697
   36DOPE  H13R 4580   4.634   2.984   8.801  0.7482 -1.0211 -0.6693
   36DOPE  H13S 4581   4.767   3.079   8.734  0.6462  1.4989  3.0499
   36DOPE  C214 4582   4.818   2.982   8.927  0.0839 -0.3055 -0.0596
   36DOPE  H14R 4583   4.926   2.961   8.912 -0.3482 -2.6679 -0.3674
   36DOPE  H14S 4584   4.774   2.898   8.985 -1.4389  0.5657  0.0863
   36DOPE  C215 4585   4.814   3.119   9.001 -0.1977  0.3377 -0.2806
   36DOPE  H15R 4586   4.859   3.198   8.937 -1.8609  1.5196 -0.0572
   36DOPE  H15S 4587   4.870   3.115   9.096  1.4490 -2.2337 -1.2509
   36DOPE  C216 4588   4.666   3.168   9.009  0.0466  0.1721 -0.0980
   36DOPE  H16R 4589   4.611   3.094   9.071  2.5503 -1.5529  0.2173
   36DOPE  H16S 4590   4.613   3.184   8.913  0.7300  0.7707 -0.3803
   36DOPE  C217 4591   4.668   3.290   9.105 -0.1440 -0.1907 -0.1551
   36DOPE  H17R 4592   4.747   3.362   9.073 -0.6069  0.3904 -0.0107
   36DOPE  H17S 4593   4.691   3.270   9.211  0.0892  0.7537 -0.0122
   36DOPE  C218 4594   4.539   3.376   9.106  0.0348 -0.1708 -0.3996
   36DOPE  H18R 4595   4.536   3.419   9.004 -0.0071  1.5651  0.3079
   36DOPE  H18S 4596   4.540   3.461   9.177 -2.1912  0.8032 -1.4360
   36DOPE  H18T 4597   4.451   3.311   9.128  0.0890  0.5047  2.2303
   36DOPE   C33 4598   4.197   2.665   8.138 -0.1582  0.3232 -0.3536
   36DOPE   H3X 4599   4.132   2.749   8.105 -2.3142  1.1771  5.0276
   36DOPE   H3Y 4600   4.305   2.691   8.129  0.4269 -2.1357 -1.1052
   36DOPE   C34 4601   4.176   2.653   8.297 -0.0296  0.4569  0.8361
   36DOPE   H4X 4602   4.069   2.635   8.323 -0.6208  3.5259  0.9411
   36DOPE   H4Y 4603   4.240   2.569   8.332  2.1264  1.8481  0.4105
   36DOPE   C35 4604   4.219   2.785   8.358  0.5912 -0.0973  0.0605
   36DOPE   H5X 4605   4.159   2.873   8.327  1.4562  0.7848  0.8240
   36DOPE   H5Y 4606   4.320   2.811   8.319  0.2861  1.2661  0.1508
   36DOPE   C36 4607   4.243   2.772   8.511  0.7789  0.2704 -0.4315
   36DOPE   H6X 4608   4.331   2.704   8.516  0.1279 -0.7736 -2.1865
   36DOPE   H6Y 4609   4.148   2.727   8.547 -0.1467  1.7364 -0.9749
   36DOPE   C37 4610   4.251   2.897   8.586 -0.4182 -0.7614 -0.1271
   36DOPE   H7X 4611   4.318   2.957   8.520 -0.7799 -0.7371 -0.4716
   36DOPE   H7Y 4612   4.156   2.954   8.592  1.4382  2.5159  0.2963
   36DOPE   C38 4613   4.311   2.894   8.727  0.0261 -0.3275  0.6034
   36DOPE   H8X 4614   4.410   2.845   8.718 -0.8245 -2.0291  0.1387
   36DOPE   H8Y 4615   4.247   2.830   8.791  0.8002  0.5333  2.3027
   36DOPE   C39 4616   4.347   3.029   8.793 -0.1031  0.0422 -0.1267
   36DOPE   H9X 4617   4.433   3.082   8.751  0.5536 -0.5134  0.4894
   36DOPE  C310 4618   4.281   3.088   8.894  0.1698 -0.0538  0.0776
   36DOPE  H10X 4619   4.321   3.183   8.931 -0.4571  0.1763  0.1808
   36DOPE  C311 4620   4.164   3.034   8.970  0.3000  0.8246  0.6086
   36DOPE  H11X 4621   4.080   3.104   8.952 -0.3361  0.0687  0.5949
   36DOPE  H11Y 4622   4.122   2.937   8.936  2.3495  0.3056 -0.6532
   36DOPE  C312 4623   4.196   3.026   9.122 -0.6957 -0.1599  0.5753
   36DOPE  H12X 4624   4.112   3.040   9.193 -2.2312  1.1755 -1.3908
   36DOPE  H12Y 4625   4.262   3.112   9.148  1.1414 -1.3409  0.0399
   36DOPE  C313 4626   4.254   2.886   9.162  0.3685 -0.3002 -0.1338
   36DOPE  H13X 4627   4.223   2.859   9.265  0.6163  0.3094  0.1095
   36DOPE  H13Y 4628   4.220   2.812   9.087  0.3276 -0.0738 -0.3403
   36DOPE  C314 4629   4.405   2.906   9.178  0.2107  0.0143  0.4778
   36DOPE  H14X 4630   4.427   2.966   9.268  0.2647 -1.8923  1.8088
   36DOPE  H14Y 4631   4.449   2.973   9.101 -0.1796 -0.2464  0.0234
   36DOPE  C315 4632   4.486   2.783   9.177  0.0805 -0.0407  0.4540
   36DOPE  H15X 4633   4.445   2.699   9.238  2.1287 -1.7487 -0.4076
   36DOPE  H15Y 4634   4.588   2.796   9.219 -0.0689  0.4859  0.6563
   36DOPE  C316 4635   4.506   2.742   9.034 -0.0671 -0.3366 -0.1638
   36DOPE  H16X 4636   4.566   2.815   8.976  0.3994 -0.5342  0.0658
   36DOPE  H16Y 4637   4.412   2.744   8.974  1.3255 -0.8352 -2.5111
   36DOPE  C317 4638   4.574   2.603   9.014 -0.3197 -0.0216  0.0090
   36DOPE  H17X 4639   4.514   2.524   9.063 -1.5436  0.4842 -0.6147
   36DOPE  H17Y 4640   4.585   2.582   8.905  1.1863 -1.2491  0.3548
   36DOPE  C318 4641   4.706   2.592   9.083 -0.6909 -0.3233 -0.2555
   36DOPE  H18X 4642   4.688   2.598   9.193  1.0113 -0.1941  0.0480
   36DOPE  H18Y 4643   4.748   2.492   9.060 -0.7688 -0.3779 -0.1622
   36DOPE  H18Z 4644   4.770   2.676   9.049 -0.5716  0.0351  0.7900
   37DOPE     N 4645   2.662   1.189   7.618 -0.0331  0.0191 -0.4330
   37DOPE   HN1 4646   2.674   1.277   7.673 -0.9374 -1.2787  2.0261
   37DOPE   HN2 4647   2.683   1.102   7.670 -0.3151 -1.9566 -3.4004
   37DOPE   HN3 4648   2.735   1.189   7.544  1.6749 -1.6647  1.1489
   37DOPE   C12 4649   2.528   1.184   7.551 -0.0545 -0.0027 -0.1711
   37DOPE  H12A 4650   2.448   1.167   7.627  0.0752  1.7589  0.4043
   37DOPE  H12B 4651   2.542   1.102   7.477 -3.5037 -0.8681 -0.0616
   37DOPE   C11 4652   2.492   1.327   7.505  0.1125  0.3805 -0.0514
   37DOPE  H11A 4653   2.471   1.382   7.600 -1.8818  0.6392 -0.5881
   37DOPE  H11B 4654   2.396   1.325   7.448  0.3230 -0.3918 -0.3844
   37DOPE     P 4655   2.599   1.554   7.431  0.3726  0.1159  0.0682
   37DOPE   O13 4656   2.485   1.622   7.366  0.0421 -0.6817 -0.2808
   37DOPE   O14 4657   2.733   1.598   7.380  0.4712 -0.5495 -0.1975
   37DOPE   O11 4658   2.579   1.589   7.584 -0.2449 -0.1606 -0.5473
   37DOPE   O12 4659   2.590   1.393   7.429  0.6211  0.0685 -0.3981
   37DOPE    C1 4660   2.638   1.700   7.651  0.3773 -0.3823 -0.0954
   37DOPE    HA 4661   2.552   1.770   7.661 -0.1751 -0.5201 -3.1368
   37DOPE    HB 4662   2.706   1.754   7.582 -1.1622 -0.0080 -1.3723
   37DOPE    C2 4663   2.723   1.663   7.776 -0.1026  0.4514 -0.4734
   37DOPE    HS 4664   2.814   1.603   7.760 -0.4277 -0.3055  0.4300
   37DOPE   O21 4665   2.633   1.606   7.871 -0.5978  0.4601 -0.6404
   37DOPE   C21 4666   2.602   1.475   7.846 -0.1298 -0.8823 -0.3894
   37DOPE   O22 4667   2.665   1.402   7.772 -0.3053  0.7236  0.3338
   37DOPE   C22 4668   2.493   1.442   7.941  0.2923  0.1006 -0.6881
   37DOPE   H2R 4669   2.393   1.452   7.893 -0.3450 -0.5728  0.4680
   37DOPE   H2S 4670   2.487   1.518   8.021  1.8789 -0.4735  0.0188
   37DOPE    C3 4671   2.760   1.801   7.836  0.1772 -0.4439  0.7050
   37DOPE    HX 4672   2.666   1.860   7.846  0.1120 -0.1981 -1.1110
   37DOPE    HY 4673   2.802   1.860   7.752 -1.7115 -1.2668 -0.8852
   37DOPE   O31 4674   2.833   1.801   7.962 -0.0226 -0.1547 -0.3126
   37DOPE   C31 4675   2.966   1.780   7.949 -0.2715  0.3822  0.7855
   37DOPE   O32 4676   3.022   1.761   7.839 -0.0494 -0.2778 -0.4094
   37DOPE   C32 4677   3.038   1.777   8.078  0.3027  0.0961 -0.5297
   37DOPE   H2X 4678   2.964   1.800   8.158 -0.3926 -0.7142 -0.9249
   37DOPE   H2Y 4679   3.065   1.671   8.095 -0.1786 -0.2658 -1.9485
   37DOPE   C23 4680   2.506   1.298   7.984 -0.0673 -0.3950  0.4005
   37DOPE   H3R 4681   2.610   1.280   8.019  0.3593 -1.0997 -1.1730
   37DOPE   H3S 4682   2.485   1.237   7.894 -1.1904 -0.5987  0.7844
   37DOPE   C24 4683   2.397   1.257   8.085 -0.6827 -0.0600 -0.5311
   37DOPE   H4R 4684   2.301   1.280   8.034 -0.2487 -1.5111 -2.1025
   37DOPE   H4S 4685   2.406   1.323   8.174 -0.0592 -2.5774  1.4065
   37DOPE   C25 4686   2.400   1.109   8.128  0.4578 -0.7043 -0.2642
   37DOPE   H5R 4687   2.478   1.068   8.059 -0.4670 -1.0209 -1.1433
   37DOPE   H5S 4688   2.300   1.062   8.117  0.6826 -2.1110  2.6987
   37DOPE   C26 4689   2.443   1.090   8.273 -0.5925 -0.3926  0.5172
   37DOPE   H6R 4690   2.454   0.981   8.291 -0.8635 -0.5369 -0.1703
   37DOPE   H6S 4691   2.360   1.133   8.333 -0.1841  0.2475  0.6343
   37DOPE   C27 4692   2.565   1.163   8.318 -0.4951 -0.5503 -0.8392
   37DOPE   H7R 4693   2.529   1.268   8.331 -1.9751 -1.2543  1.5051
   37DOPE   H7S 4694   2.646   1.146   8.244 -1.4010  0.7905 -2.1865
   37DOPE   C28 4695   2.599   1.114   8.464 -0.1613  0.3067  0.4261
   37DOPE   H8R 4696   2.652   1.018   8.446  1.4456  1.1511  0.4639
   37DOPE   H8S 4697   2.507   1.094   8.521  1.2932  0.2943  2.8893
   37DOPE   C29 4698   2.685   1.200   8.541 -0.1935  0.6736 -0.5054
   37DOPE   H9R 4699   2.742   1.278   8.488  0.9337 -0.2651 -0.7303
   37DOPE  C210 4700   2.719   1.183   8.672  0.4024 -0.3158 -0.6866
   37DOPE  H10R 4701   2.760   1.275   8.716  0.7555  0.4173 -2.4656
   37DOPE  C211 4702   2.678   1.083   8.784 -0.6369 -0.0300  1.0553
   37DOPE  H11R 4703   2.771   1.045   8.829 -0.8894  1.0571  2.5603
   37DOPE  H11S 4704   2.639   0.994   8.729 -1.4126  0.5927  0.5704
   37DOPE  C212 4705   2.575   1.124   8.889  0.0029  0.1110 -0.4600
   37DOPE  H12R 4706   2.475   1.139   8.842 -0.6936  0.8219  1.1734
   37DOPE  H12S 4707   2.596   1.224   8.932  1.1721  0.1750 -1.1333
   37DOPE  C213 4708   2.557   1.025   9.005  0.0034  0.3251 -0.0313
   37DOPE  H13R 4709   2.661   1.011   9.042 -0.3846 -2.2877  0.3042
   37DOPE  H13S 4710   2.524   0.922   8.977 -0.2104  0.2071  0.6292
   37DOPE  C214 4711   2.474   1.080   9.117  0.1676  0.2578 -0.2542
   37DOPE  H14R 4712   2.520   1.178   9.142  0.3841 -0.4576  2.4300
   37DOPE  H14S 4713   2.477   1.017   9.208 -1.2469 -1.2033 -1.1482
   37DOPE  C215 4714   2.326   1.102   9.084  0.9131 -0.2844 -0.3248
   37DOPE  H15R 4715   2.274   1.006   9.069 -0.7644  0.2051  1.8464
   37DOPE  H15S 4716   2.310   1.153   8.987  1.5622  0.5438 -0.0102
   37DOPE  C216 4717   2.239   1.164   9.208 -0.0972 -0.5318  0.6963
   37DOPE  H16R 4718   2.308   1.222   9.274 -1.7582  0.1539  1.9024
   37DOPE  H16S 4719   2.192   1.086   9.271  1.4212 -0.5233  1.8964
   37DOPE  C217 4720   2.143   1.269   9.158  0.6888  0.0092  0.0672
   37DOPE  H17R 4721   2.187   1.352   9.099  0.8624  1.6438  2.3650
   37DOPE  H17S 4722   2.098   1.325   9.243  3.6490  0.4680  1.4738
   37DOPE  C218 4723   2.040   1.205   9.059 -0.2771 -0.0894  0.1921
   37DOPE  H18R 4724   1.975   1.280   9.010  0.0318 -0.1797 -0.3638
   37DOPE  H18S 4725   1.978   1.134   9.118 -0.7217 -2.5194 -2.9109
   37DOPE  H18T 4726   2.094   1.149   8.979  0.8854  1.2055  0.0376
   37DOPE   C33 4727   3.163   1.875   8.078  0.3785  0.9762 -0.1840
   37DOPE   H3X 4728   3.241   1.865   7.999  0.1832 -0.0206 -0.2734
   37DOPE   H3Y 4729   3.218   1.839   8.168  0.9721 -4.4058 -2.3239
   37DOPE   C34 4730   3.119   2.012   8.079  0.3889 -0.6509 -0.1422
   37DOPE   H4X 4731   3.023   2.019   8.134  0.6862  0.9170  0.2339
   37DOPE   H4Y 4732   3.206   2.059   8.130  0.5077 -0.8265 -0.1829
   37DOPE   C35 4733   3.105   2.082   7.939 -0.4145  0.4690 -0.1979
   37DOPE   H5X 4734   3.027   2.022   7.888 -4.5253  1.1458  4.5553
   37DOPE   H5Y 4735   3.203   2.069   7.888  0.4076 -3.0478  1.9584
   37DOPE   C36 4736   3.062   2.223   7.949  0.0738  0.2878  0.0200
   37DOPE   H6X 4737   3.143   2.284   7.994  1.0709 -0.3760 -0.8142
   37DOPE   H6Y 4738   2.968   2.237   8.006  0.2636  0.0236  0.4009
   37DOPE   C37 4739   3.040   2.283   7.806 -0.0882  0.3136 -1.2328
   37DOPE   H7X 4740   3.105   2.372   7.796  0.9914 -0.5278 -1.9309
   37DOPE   H7Y 4741   3.081   2.211   7.732 -2.1646 -1.2440 -0.9822
   37DOPE   C38 4742   2.899   2.345   7.777 -0.0604 -0.9865 -0.0120
   37DOPE   H8X 4743   2.900   2.416   7.691  1.6436 -0.5318  0.3543
   37DOPE   H8Y 4744   2.857   2.401   7.863 -0.1279 -2.0381  0.6555
   37DOPE   C39 4745   2.809   2.230   7.738  0.1999 -0.8456 -0.5838
   37DOPE   H9X 4746   2.836   2.178   7.645 -0.8146 -2.3674 -0.0709
   37DOPE  C310 4747   2.709   2.182   7.808  0.1374 -0.1651 -0.3195
   37DOPE  H10X 4748   2.655   2.095   7.769 -2.0877  2.1008 -2.6771
   37DOPE  C311 4749   2.655   2.228   7.937  0.1031 -0.3374  0.3263
   37DOPE  H11X 4750   2.634   2.138   7.998  1.4809 -0.2950  0.8997
   37DOPE  H11Y 4751   2.729   2.290   7.993 -0.0919  0.6410 -0.4611
   37DOPE  C312 4752   2.536   2.328   7.904 -0.0461  0.2446 -0.3836
   37DOPE  H12X 4753   2.462   2.266   7.849  1.1529 -0.6492 -1.0224
   37DOPE  H12Y 4754   2.572   2.408   7.836 -0.0994  0.3835 -0.2511
   37DOPE  C313 4755   2.474   2.391   8.033 -0.0598 -0.3333 -0.2362
   37DOPE  H13X 4756   2.379   2.446   8.015 -0.6729 -1.2736  0.0181
   37DOPE  H13Y 4757   2.454   2.314   8.111  0.6956  1.4258  1.8004
   37DOPE  C314 4758   2.574   2.499   8.092  0.1476  0.4089 -0.0922
   37DOPE  H14X 4759   2.593   2.580   8.019  2.1626 -0.9162 -1.1417
   37DOPE  H14Y 4760   2.671   2.450   8.117  0.7745  1.6851  0.0218
   37DOPE  C315 4761   2.515   2.569   8.213  0.6714 -0.7498 -0.8997
   37DOPE  H15X 4762   2.596   2.627   8.263  0.7623 -1.7521  0.1630
   37DOPE  H15Y 4763   2.472   2.498   8.287 -0.4900  1.1301  0.3482
   37DOPE  C316 4764   2.402   2.674   8.184 -1.1653  0.1577 -0.4080
   37DOPE  H16X 4765   2.315   2.622   8.138 -0.7691  1.3440 -2.6277
   37DOPE  H16Y 4766   2.447   2.744   8.111 -0.8479  1.4320  0.9748
   37DOPE  C317 4767   2.343   2.749   8.310  0.2129  0.2600  0.5226
   37DOPE  H17X 4768   2.248   2.794   8.275 -1.5426 -3.0871  0.5967
   37DOPE  H17Y 4769   2.301   2.676   8.382  0.0072 -0.0214  0.1224
   37DOPE  C318 4770   2.436   2.841   8.391 -0.8912 -0.0233  0.3217
   37DOPE  H18X 4771   2.521   2.777   8.423 -2.0038 -1.2404  0.9698
   37DOPE  H18Y 4772   2.480   2.932   8.345 -2.3919  1.7208  2.1372
   37DOPE  H18Z 4773   2.390   2.879   8.485 -0.3898 -0.4071  0.7218
   38DOPE     N 4774   4.921   2.941   6.950  0.7515 -0.1432  0.1958
   38DOPE   HN1 4775   5.019   2.974   6.941  0.4748  0.4226 -0.8723
   38DOPE   HN2 4776   4.912   2.891   7.041  1.8449 -0.1933  0.2919
   38DOPE   HN3 4777   4.903   2.873   6.874 -0.2957 -1.4576  1.5633
   38DOPE   C12 4778   4.833   3.066   6.926  0.2206 -0.1264 -0.0671
   38DOPE  H12A 4779   4.881   3.121   6.843 -2.7304  2.3871 -0.2854
   38DOPE  H12B 4780   4.837   3.121   7.022  0.7596 -2.5373  1.3809
   38DOPE   C11 4781   4.691   3.023   6.892 -0.1819  0.1124  0.0475
   38DOPE  H11A 4782   4.638   2.955   6.962 -4.1892  1.1921 -1.6473
   38DOPE  H11B 4783   4.706   2.974   6.793  1.3796 -0.5524  0.5687
   38DOPE     P 4784   4.471   3.114   6.794  0.0448 -0.0487 -0.0370
   38DOPE   O13 4785   4.489   3.028   6.671  0.2416 -0.0007  0.0247
   38DOPE   O14 4786   4.407   3.247   6.769  0.4427 -0.2385 -0.5212
   38DOPE   O11 4787   4.382   3.026   6.885  0.4041  0.0561 -0.4241
   38DOPE   O12 4788   4.611   3.134   6.873 -0.3056  0.2015  0.2438
   38DOPE    C1 4789   4.304   3.081   6.998 -0.3038 -0.3040 -0.1214
   38DOPE    HA 4790   4.233   3.005   7.036 -0.0085  0.4113  1.9767
   38DOPE    HB 4791   4.242   3.166   6.961 -1.2217 -0.9051  0.0106
   38DOPE    C2 4792   4.392   3.144   7.112 -0.6697 -0.7392 -0.1222
   38DOPE    HS 4793   4.441   3.231   7.062 -0.5090 -1.2743 -0.9285
   38DOPE   O21 4794   4.491   3.043   7.151  0.1567  0.1075 -0.2558
   38DOPE   C21 4795   4.600   3.094   7.207  1.1395  0.3730  0.8210
   38DOPE   O22 4796   4.639   3.210   7.194 -0.3295 -0.3920 -0.3491
   38DOPE   C22 4797   4.672   2.984   7.288 -0.4042 -0.2359  0.4662
   38DOPE   H2R 4798   4.776   3.016   7.311 -0.6479  1.6603 -0.8311
   38DOPE   H2S 4799   4.680   2.889   7.231  0.4779 -0.1428  0.4241
   38DOPE    C3 4800   4.311   3.190   7.232  0.8450 -0.8835 -0.8243
   38DOPE    HX 4801   4.266   3.094   7.267  2.4718 -1.2889  0.2609
   38DOPE    HY 4802   4.229   3.260   7.207  1.1015 -0.7931 -1.4432
   38DOPE   O31 4803   4.384   3.261   7.339  0.1192  0.2745 -1.0851
   38DOPE   C31 4804   4.420   3.387   7.297  0.3429 -0.1274  0.2098
   38DOPE   O32 4805   4.377   3.443   7.198 -0.1982  0.2589 -0.2756
   38DOPE   C32 4806   4.524   3.448   7.399  0.7761  0.7934  0.3045
   38DOPE   H2X 4807   4.584   3.356   7.413 -0.6840 -0.3576 -0.6733
   38DOPE   H2Y 4808   4.569   3.538   7.352 -0.0379  0.2594 -1.6108
   38DOPE   C23 4809   4.595   2.960   7.423 -0.2799  0.0807  0.2204
   38DOPE   H3R 4810   4.596   2.854   7.457 -1.9337 -0.4531 -1.2099
   38DOPE   H3S 4811   4.486   2.973   7.402 -0.4618 -0.9475  0.4431
   38DOPE   C24 4812   4.641   3.052   7.530  0.2371  0.6441 -0.0335
   38DOPE   H4R 4813   4.631   3.159   7.502  0.0550  1.1438  1.8286
   38DOPE   H4S 4814   4.750   3.032   7.544 -0.2771 -2.7975 -0.0635
   38DOPE   C25 4815   4.563   3.027   7.664 -0.2240 -0.2855  0.6325
   38DOPE   H5R 4816   4.622   3.030   7.758  0.4500  0.2913  0.2021
   38DOPE   H5S 4817   4.514   2.927   7.658 -2.1124  0.6503 -0.7731
   38DOPE   C26 4818   4.459   3.141   7.683 -0.1356  0.2409 -0.1055
   38DOPE   H6R 4819   4.406   3.147   7.585  1.9815  1.1984 -1.2444
   38DOPE   H6S 4820   4.515   3.236   7.693  3.1810 -1.7140  1.3686
   38DOPE   C27 4821   4.363   3.106   7.797 -0.0481  0.2095  0.3258
   38DOPE   H7R 4822   4.346   2.997   7.786 -1.5902  0.4917 -0.3251
   38DOPE   H7S 4823   4.267   3.162   7.792 -0.0064  0.2051 -0.7221
   38DOPE   C28 4824   4.428   3.142   7.932  0.3233 -0.2533  0.1740
   38DOPE   H8R 4825   4.410   3.252   7.937  0.7905 -0.2026  0.8715
   38DOPE   H8S 4826   4.538   3.129   7.925  0.2021 -1.8925  0.8709
   38DOPE   C29 4827   4.359   3.074   8.041  0.3144 -0.2854 -0.2981
   38DOPE   H9R 4828   4.296   2.985   8.026  0.0023 -0.0382 -0.4645
   38DOPE  C210 4829   4.349   3.136   8.164 -0.0467  0.2002  0.6123
   38DOPE  H10R 4830   4.322   3.068   8.247 -1.4314  0.5532  0.4735
   38DOPE  C211 4831   4.413   3.262   8.210  0.0322 -0.2369 -0.5356
   38DOPE  H11R 4832   4.334   3.335   8.237 -0.4866 -1.1824  0.6279
   38DOPE  H11S 4833   4.477   3.301   8.129  1.8814  2.7729  2.1551
   38DOPE  C212 4834   4.499   3.233   8.332  0.3147  0.6041  0.5763
   38DOPE  H12R 4835   4.562   3.143   8.315  0.7666  0.6143  2.0664
   38DOPE  H12S 4836   4.442   3.196   8.420  1.7175 -2.5242  0.3000
   38DOPE  C213 4837   4.593   3.355   8.366 -0.3985  0.0632  0.3540
   38DOPE  H13R 4838   4.541   3.453   8.352 -0.2425 -0.0051 -0.8451
   38DOPE  H13S 4839   4.681   3.371   8.300  0.2439  0.9104  1.3758
   38DOPE  C214 4840   4.639   3.347   8.512 -0.1126 -0.4801  0.0147
   38DOPE  H14R 4841   4.719   3.270   8.520 -0.1880 -0.4546  1.0323
   38DOPE  H14S 4842   4.553   3.331   8.580  0.3214 -0.7796  0.5011
   38DOPE  C215 4843   4.706   3.475   8.563  0.1524  0.3363 -0.3106
   38DOPE  H15R 4844   4.636   3.561   8.550  0.4446  0.8291  1.1792
   38DOPE  H15S 4845   4.791   3.497   8.495 -0.0483  3.1156  0.1946
   38DOPE  C216 4846   4.762   3.471   8.701  0.1768  0.2087 -0.9187
   38DOPE  H16R 4847   4.826   3.380   8.705  0.4568  0.4107  2.8297
   38DOPE  H16S 4848   4.684   3.458   8.779  0.6699  0.8205 -0.3092
   38DOPE  C217 4849   4.862   3.574   8.748 -0.2287  0.3074  0.7348
   38DOPE  H17R 4850   4.827   3.680   8.746  1.7102  1.0570  2.5853
   38DOPE  H17S 4851   4.952   3.578   8.683  0.2239  1.4096  1.3896
   38DOPE  C218 4852   4.909   3.557   8.897 -0.6416 -0.0911 -0.0823
   38DOPE  H18R 4853   4.973   3.647   8.913 -0.8562  0.2220 -0.8755
   38DOPE  H18S 4854   4.961   3.459   8.897 -1.3443 -0.4994  1.8588
   38DOPE  H18T 4855   4.819   3.558   8.961 -1.7692 -0.5453 -1.6101
   38DOPE   C33 4856   4.442   3.490   7.524 -0.2514 -0.7193 -0.3499
   38DOPE   H3X 4857   4.420   3.387   7.559  1.3785 -1.1032 -0.3719
   38DOPE   H3Y 4858   4.349   3.548   7.502 -0.1787  0.2489  1.6171
   38DOPE   C34 4859   4.531   3.559   7.623  0.8600  0.1862  0.9967
   38DOPE   H4X 4860   4.632   3.513   7.627  0.5438 -0.9248 -1.7575
   38DOPE   H4Y 4861   4.551   3.666   7.602 -1.5787  1.0884  2.8720
   38DOPE   C35 4862   4.483   3.541   7.761  0.4979  0.6346  0.3414
   38DOPE   H5X 4863   4.484   3.432   7.781  0.9684  0.7738  1.1477
   38DOPE   H5Y 4864   4.378   3.579   7.759  0.2402 -0.0863 -0.4716
   38DOPE   C36 4865   4.565   3.618   7.869 -0.4016 -0.5760 -0.0907
   38DOPE   H6X 4866   4.546   3.727   7.859  1.9641  0.0036  0.9863
   38DOPE   H6Y 4867   4.672   3.597   7.847  0.4145  2.9497 -0.1935
   38DOPE   C37 4868   4.534   3.574   8.014  0.2171  0.3548  0.0862
   38DOPE   H7X 4869   4.436   3.618   8.042  0.0535  0.2419 -0.3014
   38DOPE   H7Y 4870   4.540   3.463   8.012 -1.2997  0.2597 -1.1138
   38DOPE   C38 4871   4.642   3.619   8.112  0.0865  0.2579  0.1187
   38DOPE   H8X 4872   4.746   3.587   8.091  0.1079 -0.4789  1.2792
   38DOPE   H8Y 4873   4.618   3.568   8.207 -0.0896 -2.1232 -1.1185
   38DOPE   C39 4874   4.647   3.763   8.140  0.2983  0.2100 -0.5400
   38DOPE   H9X 4875   4.560   3.817   8.100  0.0026  0.7494  0.7807
   38DOPE  C310 4876   4.740   3.827   8.215  0.4796 -0.7863  0.7043
   38DOPE  H10X 4877   4.727   3.936   8.212 -2.4896 -1.0935 -1.8275
   38DOPE  C311 4878   4.855   3.767   8.285 -0.2874  0.3028  0.0841
   38DOPE  H11X 4879   4.869   3.659   8.266  0.0317  0.0375  1.7153
   38DOPE  H11Y 4880   4.952   3.809   8.248 -0.7820  1.0538 -0.4085
   38DOPE  C312 4881   4.843   3.790   8.437 -0.1265  0.1572  0.1554
   38DOPE  H12X 4882   4.922   3.726   8.482 -2.0752 -2.7988 -0.3245
   38DOPE  H12Y 4883   4.741   3.764   8.473 -0.7797  1.6009 -0.5820
   38DOPE  C313 4884   4.853   3.934   8.493  0.5932  0.9199 -0.7125
   38DOPE  H13X 4885   4.946   3.973   8.446  0.8924 -0.2833 -1.1533
   38DOPE  H13Y 4886   4.760   3.989   8.463 -0.5947 -0.7306 -0.1882
   38DOPE  C314 4887   4.872   3.937   8.646 -0.0374 -1.1642  0.2085
   38DOPE  H14X 4888   4.967   3.885   8.674 -0.0574 -2.0984 -1.3573
   38DOPE  H14Y 4889   4.789   3.883   8.696  1.6363 -3.0890  1.0929
   38DOPE  C315 4890   4.863   4.081   8.696  0.0565 -0.0773 -0.3136
   38DOPE  H15X 4891   4.763   4.125   8.676 -0.6478 -0.3779  2.1853
   38DOPE  H15Y 4892   4.942   4.131   8.636  0.3530 -1.0568 -0.7615
   38DOPE  C316 4893   4.895   4.090   8.847  0.3372  0.4224 -0.0515
   38DOPE  H16X 4894   4.992   4.040   8.862 -1.1178 -2.0745  1.6591
   38DOPE  H16Y 4895   4.827   4.033   8.913  1.4547 -0.0593  0.6988
   38DOPE  C317 4896   4.913   4.230   8.898 -0.0106  0.4575 -0.5378
   38DOPE  H17X 4897   4.983   4.293   8.839 -0.5742 -0.6361 -2.4664
   38DOPE  H17Y 4898   4.818   4.287   8.909  0.3341  0.6524  2.3511
   38DOPE  C318 4899   4.970   4.222   9.037  0.1127 -1.1469 -0.5346
   38DOPE  H18X 4900   5.074   4.185   9.049 -0.4991 -1.9997  3.6306
   38DOPE  H18Y 4901   4.982   4.326   9.075  3.0351 -1.6955  0.3042
   38DOPE  H18Z 4902   4.899   4.167   9.101  0.0673 -2.9200 -2.0043
   39DOPE     N 4903   1.641   3.269   7.058 -0.2845  0.0601 -0.4229
   39DOPE   HN1 4904   1.561   3.317   7.104  0.3708 -0.3240  1.1901
   39DOPE   HN2 4905   1.633   3.253   6.956  0.6428 -0.2847 -0.4500
   39DOPE   HN3 4906   1.650   3.174   7.099 -1.1475  0.2755  0.3256
   39DOPE   C12 4907   1.759   3.352   7.082  0.2010 -1.1024  0.2340
   39DOPE  H12A 4908   1.762   3.392   7.186  2.6424  0.4199 -0.3326
   39DOPE  H12B 4909   1.752   3.435   7.009  2.0947  0.0184  1.2160
   39DOPE   C11 4910   1.894   3.281   7.074 -0.7661  0.2533  0.9156
   39DOPE  H11A 4911   1.908   3.226   7.169  4.2330 -1.6983 -0.6788
   39DOPE  H11B 4912   1.971   3.360   7.062 -1.0352  0.1455 -2.6066
   39DOPE     P 4913   2.040   3.138   6.899 -0.1884 -0.0757 -0.1013
   39DOPE   O13 4914   2.128   3.243   6.849  0.1307  1.0695 -0.2858
   39DOPE   O14 4915   2.005   3.036   6.802 -0.2120  0.4063  0.0495
   39DOPE   O11 4916   2.122   3.082   7.023  1.1403  0.5332  0.2975
   39DOPE   O12 4917   1.905   3.199   6.961  0.5693  0.2993  0.2163
   39DOPE    C1 4918   2.099   2.960   7.094 -0.4816 -0.1913 -0.4113
   39DOPE    HA 4919   2.195   2.907   7.113 -0.6219 -0.5301 -0.6436
   39DOPE    HB 4920   2.047   2.880   7.038  0.9223 -0.8310 -0.8672
   39DOPE    C2 4921   2.036   2.973   7.232 -0.0190 -0.1992 -0.4882
   39DOPE    HS 4922   1.934   3.012   7.214  0.4309  0.3711 -1.9907
   39DOPE   O21 4923   2.109   3.077   7.303  0.8607 -0.6475 -0.1058
   39DOPE   C21 4924   2.062   3.121   7.419 -1.0131  0.7390  0.3858
   39DOPE   O22 4925   1.951   3.110   7.462  0.3211 -0.4300  0.2326
   39DOPE   C22 4926   2.172   3.188   7.492  0.1232 -0.5971  0.9172
   39DOPE   H2R 4927   2.179   3.296   7.465 -0.0033 -0.2069  2.3966
   39DOPE   H2S 4928   2.265   3.133   7.465 -0.9995 -2.0210 -0.2017
   39DOPE    C3 4929   2.034   2.838   7.309  0.4963  0.8398 -0.4490
   39DOPE    HX 4930   2.140   2.806   7.320  0.4985  0.1105 -2.2948
   39DOPE    HY 4931   1.977   2.765   7.247  0.7538  0.4548 -0.2390
   39DOPE   O31 4932   1.975   2.852   7.435  0.1437  0.2884  0.2159
   39DOPE   C31 4933   1.847   2.823   7.446  0.2943 -0.6119 -0.3192
   39DOPE   O32 4934   1.776   2.786   7.358  0.0618  0.5808  0.7121
   39DOPE   C32 4935   1.802   2.859   7.582  0.5047 -0.3132  0.1950
   39DOPE   H2X 4936   1.795   2.765   7.642 -1.7724  0.4402  1.2163
   39DOPE   H2Y 4937   1.880   2.922   7.630  1.7672  0.1744 -2.3525
   39DOPE   C23 4938   2.147   3.189   7.638 -0.5170 -0.4015 -0.5068
   39DOPE   H3R 4939   2.121   3.087   7.671 -0.4395  0.7437  3.6600
   39DOPE   H3S 4940   2.060   3.257   7.656 -0.3700 -0.5705  0.9527
   39DOPE   C24 4941   2.271   3.230   7.719 -0.8609  0.4730  0.4113
   39DOPE   H4R 4942   2.354   3.166   7.682 -0.4735  1.8901 -1.3597
   39DOPE   H4S 4943   2.248   3.207   7.825 -0.5898 -1.3090  0.1156
   39DOPE   C25 4944   2.322   3.375   7.701 -0.3964  0.1858 -0.4807
   39DOPE   H5R 4945   2.261   3.425   7.779  0.2552  0.8192 -0.3709
   39DOPE   H5S 4946   2.301   3.410   7.598 -0.7565 -0.3930 -0.6094
   39DOPE   C26 4947   2.467   3.402   7.746 -0.4882  0.4647 -0.7605
   39DOPE   H6R 4948   2.537   3.365   7.667 -1.2866 -2.6485 -0.1709
   39DOPE   H6S 4949   2.492   3.346   7.839  0.0566  0.3348 -0.9786
   39DOPE   C27 4950   2.486   3.546   7.798  0.0719  0.3995 -0.0562
   39DOPE   H7R 4951   2.428   3.566   7.891 -0.1378 -1.5759  0.3031
   39DOPE   H7S 4952   2.458   3.621   7.721 -1.4129  0.0167  0.0788
   39DOPE   C28 4953   2.630   3.569   7.842 -0.3535  0.2765  0.6734
   39DOPE   H8R 4954   2.680   3.532   7.750 -1.5800 -3.3616  1.2678
   39DOPE   H8S 4955   2.662   3.508   7.929 -1.9648 -1.4319  0.1416
   39DOPE   C29 4956   2.651   3.714   7.873  0.2235 -0.0624 -0.3429
   39DOPE   H9R 4957   2.693   3.784   7.800  0.4348  2.0051  1.6240
   39DOPE  C210 4958   2.658   3.761   7.998 -0.2118  0.2704  0.8257
   39DOPE  H10R 4959   2.679   3.867   8.017 -0.0859  0.6358 -1.1498
   39DOPE  C211 4960   2.630   3.687   8.127  0.1631  0.5009 -0.0502
   39DOPE  H11R 4961   2.542   3.621   8.119  1.7607 -1.5762 -1.5890
   39DOPE  H11S 4962   2.604   3.767   8.199 -2.8655 -0.3651 -0.0666
   39DOPE  C212 4963   2.753   3.612   8.180 -0.0478  0.6542 -0.5018
   39DOPE  H12R 4964   2.837   3.682   8.198  0.9161 -0.4870 -0.4643
   39DOPE  H12S 4965   2.792   3.539   8.106  0.1124  0.2256 -0.0007
   39DOPE  C213 4966   2.714   3.522   8.302  0.7267 -0.7745 -0.2861
   39DOPE  H13R 4967   2.792   3.449   8.334 -0.8475 -1.4681  2.2516
   39DOPE  H13S 4968   2.624   3.468   8.264 -0.5016  0.4236  0.8165
   39DOPE  C214 4969   2.674   3.602   8.431 -0.7143  0.0388  0.2114
   39DOPE  H14R 4970   2.582   3.659   8.407 -0.6772 -0.1249 -0.3319
   39DOPE  H14S 4971   2.763   3.667   8.444 -0.0779 -1.0004  1.2042
   39DOPE  C215 4972   2.637   3.514   8.556 -0.0935  0.6578 -0.0775
   39DOPE  H15R 4973   2.735   3.478   8.594 -0.4022  0.3633  0.4443
   39DOPE  H15S 4974   2.583   3.426   8.516 -0.6077  0.1673  1.6159
   39DOPE  C216 4975   2.576   3.581   8.669 -0.2415 -0.2165 -0.2824
   39DOPE  H16R 4976   2.527   3.517   8.745  0.3182 -0.9050 -0.4891
   39DOPE  H16S 4977   2.493   3.643   8.629 -0.1749  0.0901  0.0558
   39DOPE  C217 4978   2.657   3.690   8.742  0.3687  0.0860  0.1626
   39DOPE  H17R 4979   2.590   3.732   8.821 -1.5137  0.0889 -1.3448
   39DOPE  H17S 4980   2.670   3.762   8.659 -0.1173 -0.8680 -0.7626
   39DOPE  C218 4981   2.795   3.668   8.805 -0.2094  0.2684 -0.2705
   39DOPE  H18R 4982   2.879   3.650   8.734  0.3220 -1.0278  0.6262
   39DOPE  H18S 4983   2.784   3.579   8.871 -3.0946  1.2753  0.7773
   39DOPE  H18T 4984   2.826   3.757   8.863 -0.3950 -0.1217  0.4387
   39DOPE   C33 4985   1.661   2.926   7.585 -0.0559  0.1292 -0.4933
   39DOPE   H3X 4986   1.632   2.968   7.487  3.3710  2.0865 -0.8254
   39DOPE   H3Y 4987   1.669   3.020   7.643  0.5190  2.0020 -3.4016
   39DOPE   C34 4988   1.546   2.836   7.636  0.5350  0.3189  0.0824
   39DOPE   H4X 4989   1.447   2.886   7.634  0.5157  0.3278 -2.4162
   39DOPE   H4Y 4990   1.541   2.751   7.564  0.5285 -2.5241  3.1868
   39DOPE   C35 4991   1.571   2.774   7.779  0.7716 -0.3029  0.3268
   39DOPE   H5X 4992   1.664   2.714   7.778  0.7564 -0.5144 -3.4722
   39DOPE   H5Y 4993   1.487   2.705   7.803 -0.8575  1.2970 -0.4810
   39DOPE   C36 4994   1.554   2.884   7.888 -0.8481  0.1683  0.5324
   39DOPE   H6X 4995   1.460   2.940   7.871 -0.4448  0.3296 -1.3646
   39DOPE   H6Y 4996   1.638   2.952   7.862  1.0931 -2.5840 -0.9160
   39DOPE   C37 4997   1.568   2.822   8.026  0.1519  0.3013 -0.4567
   39DOPE   H7X 4998   1.485   2.753   8.053  1.2104 -1.3116 -1.1669
   39DOPE   H7Y 4999   1.661   2.763   8.019 -0.4285 -1.0858  2.2664
   39DOPE   C38 5000   1.580   2.921   8.149  0.4519 -0.0363  0.0365
   39DOPE   H8X 5001   1.678   2.973   8.146  1.2248 -1.4836 -0.9230
   39DOPE   H8Y 5002   1.575   2.875   8.250 -0.2175 -0.3183 -0.1191
   39DOPE   C39 5003   1.471   3.029   8.138 -0.1114 -0.1568 -0.0466
   39DOPE   H9X 5004   1.499   3.121   8.085  2.5333 -1.1676 -0.5652
   39DOPE  C310 5005   1.345   3.012   8.182  0.4929 -0.3439  0.1526
   39DOPE  H10X 5006   1.277   3.099   8.179  2.1862  1.0677  0.6132
   39DOPE  C311 5007   1.295   2.891   8.256  0.1677 -0.6013 -0.0867
   39DOPE  H11X 5008   1.237   2.823   8.192 -1.6673  0.0379  0.8278
   39DOPE  H11Y 5009   1.382   2.843   8.306  0.9951  1.0910  0.1687
   39DOPE  C312 5010   1.216   2.944   8.381  0.0685 -0.3227  0.5207
   39DOPE  H12X 5011   1.169   2.857   8.432 -2.8455  0.8392 -0.0122
   39DOPE  H12Y 5012   1.126   3.003   8.356 -1.1640 -1.7828  1.3494
   39DOPE  C313 5013   1.302   3.019   8.483 -0.4444 -0.5328 -0.1402
   39DOPE  H13X 5014   1.386   2.954   8.516 -0.3320 -1.1886 -1.6072
   39DOPE  H13Y 5015   1.343   3.101   8.420 -1.9508 -1.7534 -2.9262
   39DOPE  C314 5016   1.218   3.059   8.602  0.4792  1.1301 -0.2174
   39DOPE  H14X 5017   1.156   2.976   8.640  0.1298  1.2243 -0.5765
   39DOPE  H14Y 5018   1.150   3.130   8.551 -0.7019 -0.4566 -0.9416
   39DOPE  C315 5019   1.282   3.129   8.723  0.4644  0.2469  0.1360
   39DOPE  H15X 5020   1.213   3.163   8.803  0.2643  2.8598 -1.0515
   39DOPE  H15Y 5021   1.357   3.207   8.696 -1.0120  1.0153 -2.0093
   39DOPE  C316 5022   1.374   3.036   8.802 -0.0570  0.1190  0.1831
   39DOPE  H16X 5023   1.456   3.018   8.729 -0.6381 -0.8411 -0.2429
   39DOPE  H16Y 5024   1.338   2.933   8.822  3.4340 -1.2090  0.4383
   39DOPE  C317 5025   1.435   3.106   8.920  0.1979  0.1138  0.3245
   39DOPE  H17X 5026   1.487   3.198   8.885 -0.6687  1.6444  2.7328
   39DOPE  H17Y 5027   1.350   3.143   8.982 -0.0634 -2.6690  1.7679
   39DOPE  C318 5028   1.522   3.014   9.006  0.6742  0.5442 -0.1256
   39DOPE  H18X 5029   1.551   3.070   9.097  0.7899 -0.0180  0.1842
   39DOPE  H18Y 5030   1.465   2.922   9.029  0.7876  0.0358 -1.7593
   39DOPE  H18Z 5031   1.610   2.969   8.955  0.9841 -0.6602  1.3963
   40DOPE     N 5032   4.028   5.038   7.279  0.0746 -0.4010  0.3097
   40DOPE   HN1 5033   4.023   5.140   7.263 -1.2522 -0.2898  1.2638
   40DOPE   HN2 5034   3.953   5.012   7.346 -1.8297  0.0348 -1.5514
   40DOPE   HN3 5035   4.117   5.016   7.328 -0.2372 -1.3364  0.4783
   40DOPE   C12 5036   3.999   4.959   7.154  0.2398 -0.0049 -0.0370
   40DOPE  H12A 5037   3.905   4.996   7.110 -0.2718 -2.2977 -1.0456
   40DOPE  H12B 5038   3.968   4.860   7.195  1.6095 -0.6722 -0.5515
   40DOPE   C11 5039   4.124   4.936   7.069 -0.3001 -0.0891 -0.4838
   40DOPE  H11A 5040   4.209   4.908   7.134 -1.5233 -2.2852  0.2900
   40DOPE  H11B 5041   4.150   5.033   7.021  0.9241  0.7116  1.6899
   40DOPE     P 5042   4.169   4.684   6.986 -0.4794 -0.2679 -0.1948
   40DOPE   O13 5043   4.286   4.685   7.077 -0.0093 -0.0528  0.3007
   40DOPE   O14 5044   4.201   4.633   6.851 -0.2831 -0.4087  0.3209
   40DOPE   O11 5045   4.056   4.594   7.047 -0.5030 -0.2856  0.0324
   40DOPE   O12 5046   4.100   4.827   6.973  0.0551  0.0019  0.2866
   40DOPE    C1 5047   4.074   4.456   7.087 -0.3620 -0.8074 -0.0498
   40DOPE    HA 5048   4.179   4.422   7.068  0.4717  1.6646 -0.2564
   40DOPE    HB 5049   4.025   4.380   7.022  1.4267  0.0449 -2.5844
   40DOPE    C2 5050   4.039   4.441   7.237 -0.2720 -0.2648  0.0523
   40DOPE    HS 5051   3.933   4.469   7.250  0.0325  1.2628 -0.5564
   40DOPE   O21 5052   4.133   4.522   7.306 -0.2909 -0.2541  0.2735
   40DOPE   C21 5053   4.086   4.603   7.391  0.1160 -0.1301 -1.1629
   40DOPE   O22 5054   3.969   4.623   7.423 -0.4088 -0.5933  0.0216
   40DOPE   C22 5055   4.203   4.688   7.442 -0.0229 -0.0662  0.5660
   40DOPE   H2R 5056   4.218   4.772   7.371 -2.4364 -0.6773 -0.7659
   40DOPE   H2S 5057   4.297   4.629   7.437  0.9876  1.4715  0.8814
   40DOPE    C3 5058   4.047   4.292   7.285 -0.0820  0.0301 -0.6757
   40DOPE    HX 5059   4.154   4.260   7.289 -0.0632  0.1267 -0.4219
   40DOPE    HY 5060   3.997   4.229   7.208  2.8505  2.8501 -5.4684
   40DOPE   O31 5061   3.985   4.281   7.420 -0.3672 -0.3312 -0.4789
   40DOPE   C31 5062   3.869   4.225   7.431  0.8824 -0.3615  0.0661
   40DOPE   O32 5063   3.810   4.167   7.338 -0.3519  0.4885  0.1229
   40DOPE   C32 5064   3.804   4.247   7.568 -0.8541  0.3733  0.0345
   40DOPE   H2X 5065   3.880   4.220   7.645 -0.3079  0.9216 -0.3060
   40DOPE   H2Y 5066   3.778   4.354   7.584  0.7725  1.1052 -1.7164
   40DOPE   C23 5067   4.186   4.749   7.580  0.6334  0.1246  0.4411
   40DOPE   H3R 5068   4.125   4.693   7.653  0.0242  0.8051  0.4702
   40DOPE   H3S 5069   4.139   4.850   7.571  1.4126  0.4497 -0.1407
   40DOPE   C24 5070   4.321   4.785   7.652  0.2571 -0.3344 -0.0057
   40DOPE   H4R 5071   4.359   4.858   7.577  0.3935 -0.3083  0.0873
   40DOPE   H4S 5072   4.388   4.696   7.660  2.4223  1.1256 -0.9181
   40DOPE   C25 5073   4.301   4.863   7.783  0.3175  0.7524 -1.0467
   40DOPE   H5R 5074   4.215   4.931   7.769 -0.3563 -0.3476 -2.6079
   40DOPE   H5S 5075   4.394   4.918   7.809 -0.3193  1.9938 -1.3443
   40DOPE   C26 5076   4.257   4.774   7.900 -0.0735 -0.4744 -0.4590
   40DOPE   H6R 5077   4.328   4.689   7.908 -2.1434 -2.4127 -1.4684
   40DOPE   H6S 5078   4.161   4.730   7.865 -0.0391 -1.0258  0.1278
   40DOPE   C27 5079   4.232   4.855   8.029 -0.5774 -0.1908 -0.0734
   40DOPE   H7R 5080   4.144   4.921   8.009 -0.8632  0.1177  2.0021
   40DOPE   H7S 5081   4.323   4.916   8.044 -0.1280  0.4696 -4.1896
   40DOPE   C28 5082   4.186   4.766   8.152  0.2567  0.3840  0.2751
   40DOPE   H8R 5083   4.137   4.683   8.097 -1.0145  2.0439 -1.2347
   40DOPE   H8S 5084   4.109   4.825   8.206 -1.0418 -0.4149 -0.6417
   40DOPE   C29 5085   4.295   4.723   8.247  0.8126 -0.1248 -0.1472
   40DOPE   H9R 5086   4.396   4.705   8.207  1.6422  3.1405  0.1822
   40DOPE  C210 5087   4.298   4.747   8.378  0.4605 -0.2519  0.2504
   40DOPE  H10R 5088   4.393   4.729   8.431  1.1751  0.8610 -0.6097
   40DOPE  C211 5089   4.186   4.802   8.457 -0.6002  0.2830 -0.6891
   40DOPE  H11R 5090   4.125   4.883   8.410  1.2628  2.6449  0.7548
   40DOPE  H11S 5091   4.225   4.853   8.548 -0.8966  0.3631 -0.6060
   40DOPE  C212 5092   4.101   4.677   8.496 -0.6664  0.4722 -0.0370
   40DOPE  H12R 5093   4.165   4.603   8.548 -2.3388 -1.4404 -0.5376
   40DOPE  H12S 5094   4.072   4.619   8.406  0.8673 -0.1848 -0.1420
   40DOPE  C213 5095   3.986   4.717   8.590 -0.1239 -0.3666  0.5337
   40DOPE  H13R 5096   3.935   4.622   8.614  1.5857 -0.6341  3.7741
   40DOPE  H13S 5097   3.918   4.794   8.546  0.9935  0.0626 -0.5076
   40DOPE  C214 5098   4.034   4.765   8.729 -0.3371 -0.0891 -0.6051
   40DOPE  H14R 5099   4.084   4.863   8.716 -4.0807  1.9293 -1.0359
   40DOPE  H14S 5100   4.096   4.681   8.767  0.6168 -0.0085 -1.9156
   40DOPE  C215 5101   3.922   4.786   8.825  0.0579 -0.3189 -0.3894
   40DOPE  H15R 5102   3.873   4.688   8.843  2.9860 -1.6196  1.1633
   40DOPE  H15S 5103   3.850   4.855   8.776 -2.1704 -0.1865  2.7641
   40DOPE  C216 5104   3.976   4.843   8.958  1.0604  0.0084  1.1091
   40DOPE  H16R 5105   4.029   4.937   8.931 -0.7795  1.4999  2.3893
   40DOPE  H16S 5106   4.060   4.778   8.989  1.6385 -0.7191 -1.7231
   40DOPE  C217 5107   3.872   4.849   9.072  0.7410 -0.0661 -0.9275
   40DOPE  H17R 5108   3.834   4.745   9.079  1.0498 -0.1791 -0.9134
   40DOPE  H17S 5109   3.787   4.918   9.053  0.5025  0.0663  0.5245
   40DOPE  C218 5110   3.946   4.889   9.205  0.4375 -0.5007  0.6236
   40DOPE  H18R 5111   3.876   4.869   9.289 -0.6899 -0.9862 -0.4077
   40DOPE  H18S 5112   3.955   5.000   9.206  0.7058 -0.5198  0.3394
   40DOPE  H18T 5113   4.041   4.832   9.217  0.6630 -0.2545  0.0083
   40DOPE   C33 5114   3.686   4.153   7.587 -0.0384  0.0633 -0.1059
   40DOPE   H3X 5115   3.721   4.051   7.562  0.0051 -0.2546  1.2201
   40DOPE   H3Y 5116   3.606   4.180   7.514  0.6739  0.7601 -0.6525
   40DOPE   C34 5117   3.634   4.135   7.732  0.2247 -0.3484 -0.2409
   40DOPE   H4X 5118   3.559   4.054   7.717 -1.2931  0.9831 -0.0786
   40DOPE   H4Y 5119   3.721   4.092   7.786  0.2108 -1.1603 -0.8467
   40DOPE   C35 5120   3.580   4.265   7.788 -0.7882  0.4469  1.0329
   40DOPE   H5X 5121   3.492   4.303   7.732 -0.2790  1.0683  0.6372
   40DOPE   H5Y 5122   3.657   4.344   7.779  2.6607 -2.5744  1.5773
   40DOPE   C36 5123   3.537   4.230   7.932  0.1008  0.4672  0.3592
   40DOPE   H6X 5124   3.615   4.170   7.985 -0.2665  0.8800  1.3958
   40DOPE   H6Y 5125   3.452   4.158   7.929 -0.6008  1.1471  2.5612
   40DOPE   C37 5126   3.506   4.354   8.011  0.0298 -0.3712 -0.3768
   40DOPE   H7X 5127   3.600   4.412   8.026 -1.5095  2.1869 -0.1320
   40DOPE   H7Y 5128   3.434   4.426   7.966  0.4376  0.0806 -0.3108
   40DOPE   C38 5129   3.434   4.312   8.149  0.2482 -0.2459  0.1738
   40DOPE   H8X 5130   3.329   4.290   8.118  0.4495  3.1586 -3.9420
   40DOPE   H8Y 5131   3.423   4.409   8.201 -1.9543 -0.6123  0.4942
   40DOPE   C39 5132   3.492   4.212   8.242 -0.0760 -0.5167  0.0078
   40DOPE   H9X 5133   3.549   4.125   8.206  2.2546  0.7914  0.3672
   40DOPE  C310 5134   3.482   4.220   8.381  0.3689  0.2746 -0.0716
   40DOPE  H10X 5135   3.541   4.145   8.435  1.0012 -0.2722 -1.4623
   40DOPE  C311 5136   3.423   4.326   8.467  0.3252 -0.8621 -0.8786
   40DOPE  H11X 5137   3.342   4.378   8.413 -0.4416 -0.6898  0.4128
   40DOPE  H11Y 5138   3.381   4.289   8.563  0.5128  2.1356  0.4708
   40DOPE  C312 5139   3.522   4.435   8.514 -0.5362  0.0237 -0.0974
   40DOPE  H12X 5140   3.541   4.507   8.432  3.2368 -3.0121 -2.2276
   40DOPE  H12Y 5141   3.617   4.391   8.550  0.1073  2.1343  0.9268
   40DOPE  C313 5142   3.461   4.513   8.633 -0.7067  0.8152 -0.0304
   40DOPE  H13X 5143   3.484   4.454   8.724 -0.7919 -0.8455 -1.0503
   40DOPE  H13Y 5144   3.518   4.608   8.632 -0.5473  0.7257 -1.6444
   40DOPE  C314 5145   3.311   4.539   8.621 -0.5564 -0.5186  0.0318
   40DOPE  H14X 5146   3.253   4.445   8.610 -2.7955  0.7587  0.2299
   40DOPE  H14Y 5147   3.282   4.602   8.534  2.0600 -0.7763 -1.1225
   40DOPE  C315 5148   3.254   4.599   8.747  0.2588 -0.5073 -0.0786
   40DOPE  H15X 5149   3.145   4.580   8.739  0.4557 -2.0104  0.5874
   40DOPE  H15Y 5150   3.288   4.705   8.753  0.0283 -0.5055  1.9769
   40DOPE  C316 5151   3.288   4.529   8.878 -0.1780 -0.1129  0.9283
   40DOPE  H16X 5152   3.397   4.527   8.898  0.2617  1.1928 -1.0401
   40DOPE  H16Y 5153   3.262   4.423   8.860  0.0381  0.1280 -0.9839
   40DOPE  C317 5154   3.204   4.573   8.994  0.0440 -1.0239  0.4503
   40DOPE  H17X 5155   3.241   4.668   9.039  0.9194 -0.0285 -2.1404
   40DOPE  H17Y 5156   3.104   4.591   8.947 -0.4495 -2.8019  0.7564
   40DOPE  C318 5157   3.188   4.470   9.099 -0.0290  0.7325  0.0068
   40DOPE  H18X 5158   3.139   4.499   9.194  0.3306  0.8419  0.1613
   40DOPE  H18Y 5159   3.122   4.390   9.059  0.6246 -0.3298  0.9685
   40DOPE  H18Z 5160   3.287   4.423   9.117  0.5568  0.4837 -3.2114
   41DOPE     N 5161   1.240   4.581   6.817  0.3883 -0.4692 -0.1326
   41DOPE   HN1 5162   1.300   4.594   6.901  0.5057  1.6692 -0.4737
   41DOPE   HN2 5163   1.290   4.618   6.734 -0.8214 -0.9103 -1.0932
   41DOPE   HN3 5164   1.149   4.632   6.823  0.2408 -0.7686  0.1660
   41DOPE   C12 5165   1.218   4.435   6.791  0.1776 -1.1848 -0.1262
   41DOPE  H12A 5166   1.187   4.427   6.685  2.7999  0.3706 -1.1094
   41DOPE  H12B 5167   1.143   4.415   6.871  0.9645  0.6896  1.1436
   41DOPE   C11 5168   1.348   4.362   6.821 -0.2439  0.2558  0.1326
   41DOPE  H11A 5169   1.429   4.405   6.758  2.0638 -2.4366  1.0646
   41DOPE  H11B 5170   1.329   4.255   6.798  2.4663 -0.4760  0.8635
   41DOPE     P 5171   1.448   4.261   7.037 -0.1424  0.4257  0.5971
   41DOPE   O13 5172   1.586   4.223   6.989 -0.6525 -0.2654 -0.1299
   41DOPE   O14 5173   1.346   4.154   7.055 -0.0678 -0.3839 -0.3731
   41DOPE   O11 5174   1.460   4.328   7.176  0.2593 -0.0951  0.2260
   41DOPE   O12 5175   1.387   4.387   6.954  0.6100  0.2060 -0.0880
   41DOPE    C1 5176   1.346   4.380   7.246 -0.3759 -0.2991  0.0944
   41DOPE    HA 5177   1.259   4.312   7.232 -1.4236  1.1619 -0.7969
   41DOPE    HB 5178   1.320   4.483   7.214 -0.6670 -0.2779  0.3960
   41DOPE    C2 5179   1.379   4.394   7.399 -0.2240  0.6081  0.5625
   41DOPE    HS 5180   1.374   4.503   7.420 -0.3640 -0.0069  4.3312
   41DOPE   O21 5181   1.508   4.328   7.429 -0.0088 -0.2740 -0.5676
   41DOPE   C21 5182   1.603   4.419   7.443  0.5361  0.3512 -0.0264
   41DOPE   O22 5183   1.596   4.535   7.410 -0.4472 -0.2393 -0.0519
   41DOPE   C22 5184   1.734   4.353   7.488 -0.2123 -0.2790 -0.2597
   41DOPE   H2R 5185   1.802   4.439   7.509 -1.9945  0.4516  3.4437
   41DOPE   H2S 5186   1.775   4.293   7.405  2.0065  0.2853  0.3597
   41DOPE    C3 5187   1.266   4.333   7.484  0.0301 -1.0018 -0.1311
   41DOPE    HX 5188   1.278   4.224   7.497 -1.2550 -1.0410  0.9146
   41DOPE    HY 5189   1.165   4.352   7.442  0.7459 -1.5263 -2.2194
   41DOPE   O31 5190   1.261   4.389   7.618 -0.2863 -0.8602 -0.1508
   41DOPE   C31 5191   1.208   4.517   7.629 -0.3416  0.4172  0.3155
   41DOPE   O32 5192   1.163   4.586   7.540 -0.5419 -0.0996  0.2651
   41DOPE   C32 5193   1.213   4.558   7.777  0.1992  0.2292  0.1513
   41DOPE   H2X 5194   1.318   4.568   7.809 -0.2882  2.7511  1.1346
   41DOPE   H2Y 5195   1.162   4.656   7.783 -0.7704 -0.2990  0.8997
   41DOPE   C23 5196   1.726   4.264   7.618 -0.0609 -0.2703  0.3881
   41DOPE   H3R 5197   1.806   4.188   7.610  0.1674  0.0700 -0.8035
   41DOPE   H3S 5198   1.621   4.228   7.624 -0.0679 -0.1031  1.4622
   41DOPE   C24 5199   1.738   4.338   7.755 -0.4363  0.4093  0.2103
   41DOPE   H4R 5200   1.840   4.381   7.761 -0.8980  1.6531 -0.3712
   41DOPE   H4S 5201   1.715   4.258   7.829  1.2201  1.0695  1.4981
   41DOPE   C25 5202   1.640   4.453   7.771 -0.0640 -0.4006  0.1025
   41DOPE   H5R 5203   1.537   4.417   7.752 -0.3683  0.6825 -0.3611
   41DOPE   H5S 5204   1.658   4.532   7.695  1.3084  0.6212  1.4147
   41DOPE   C26 5205   1.653   4.523   7.907 -0.0180  0.5549  0.2730
   41DOPE   H6R 5206   1.588   4.611   7.890  1.9421  1.7721 -1.3991
   41DOPE   H6S 5207   1.758   4.558   7.913  0.7160 -1.6571  2.3077
   41DOPE   C27 5208   1.595   4.431   8.025 -1.2455  0.2869  0.3828
   41DOPE   H7R 5209   1.651   4.335   8.021  0.0005  1.0139 -1.1205
   41DOPE   H7S 5210   1.490   4.408   7.997 -0.8109  1.0926 -2.2108
   41DOPE   C28 5211   1.589   4.492   8.160 -0.3923 -0.0768 -0.8987
   41DOPE   H8R 5212   1.566   4.414   8.236  0.5190 -0.9316 -1.4796
   41DOPE   H8S 5213   1.502   4.560   8.176 -1.6268 -1.8265  0.1089
   41DOPE   C29 5214   1.721   4.551   8.197  0.3413 -0.1024  0.3624
   41DOPE   H9R 5215   1.741   4.652   8.157  1.0247  0.3568  1.7975
   41DOPE  C210 5216   1.821   4.498   8.268  0.1274 -0.0865 -0.3062
   41DOPE  H10R 5217   1.922   4.539   8.277  0.5144 -0.3669 -2.8630
   41DOPE  C211 5218   1.805   4.368   8.338  0.6183  0.8277  0.4077
   41DOPE  H11R 5219   1.890   4.304   8.308 -0.7358 -0.7494 -0.2190
   41DOPE  H11S 5220   1.712   4.309   8.322  1.3322 -0.3517  0.4711
   41DOPE  C212 5221   1.795   4.396   8.492 -0.1743 -0.0912  0.0060
   41DOPE  H12R 5222   1.695   4.438   8.514 -0.8438 -0.8945 -1.3752
   41DOPE  H12S 5223   1.869   4.469   8.531  0.2273 -0.3822 -0.2037
   41DOPE  C213 5224   1.812   4.266   8.570 -0.4386 -0.0056  0.0111
   41DOPE  H13R 5225   1.904   4.209   8.543  1.0992  2.5248 -0.4460
   41DOPE  H13S 5226   1.718   4.216   8.539 -0.9476  0.0374  1.4338
   41DOPE  C214 5227   1.800   4.279   8.727  0.3603  0.2370  0.0323
   41DOPE  H14R 5228   1.701   4.329   8.734 -0.3513 -0.4594 -3.1982
   41DOPE  H14S 5229   1.880   4.346   8.766 -0.2109  0.1010  1.4763
   41DOPE  C215 5230   1.792   4.143   8.801  0.1375  0.0161 -0.0682
   41DOPE  H15R 5231   1.843   4.156   8.898  2.4796  0.1172 -1.2364
   41DOPE  H15S 5232   1.860   4.072   8.749  1.3468  0.3297  1.0493
   41DOPE  C216 5233   1.651   4.091   8.800  0.1650  0.4128 -0.6460
   41DOPE  H16R 5234   1.593   4.128   8.713  1.3645 -0.8516 -2.0480
   41DOPE  H16S 5235   1.598   4.138   8.885  0.3637  0.2872 -0.4532
   41DOPE  C217 5236   1.652   3.936   8.823 -0.3304  0.1926 -0.1632
   41DOPE  H17R 5237   1.706   3.889   8.737  3.6568  2.0223  1.0946
   41DOPE  H17S 5238   1.545   3.907   8.832 -0.4175  0.7898  0.7590
   41DOPE  C218 5239   1.725   3.889   8.952 -0.1127 -0.3571 -0.3050
   41DOPE  H18R 5240   1.833   3.915   8.954 -0.4420  1.1145  1.7687
   41DOPE  H18S 5241   1.710   3.779   8.962 -0.3017 -0.4029 -1.0483
   41DOPE  H18T 5242   1.686   3.926   9.049 -1.3941  2.2229 -1.7133
   41DOPE   C33 5243   1.134   4.464   7.869  0.1266 -0.4203  0.0654
   41DOPE   H3X 5244   1.150   4.355   7.858  1.9369 -0.0316 -1.7487
   41DOPE   H3Y 5245   1.028   4.492   7.850  0.4143  0.4554 -0.2873
   41DOPE   C34 5246   1.141   4.491   8.023 -0.0365 -0.0244 -0.1286
   41DOPE   H4X 5247   1.241   4.463   8.063 -0.0233 -0.0431 -0.1739
   41DOPE   H4Y 5248   1.131   4.599   8.048  1.2246 -0.2626  1.5952
   41DOPE   C35 5249   1.033   4.412   8.096 -0.0347 -0.4081  0.2549
   41DOPE   H5X 5250   1.044   4.305   8.068 -0.1048 -0.5041  0.5869
   41DOPE   H5Y 5251   0.935   4.432   8.048  0.5806 -0.8075 -1.2010
   41DOPE   C36 5252   1.031   4.426   8.253 -0.4897  0.4848  0.7310
   41DOPE   H6X 5253   0.995   4.529   8.274 -0.0200  0.8063 -0.0180
   41DOPE   H6Y 5254   1.137   4.425   8.286 -0.3377  0.2919  0.2521
   41DOPE   C37 5255   0.963   4.303   8.314  0.4271  0.0305 -0.3382
   41DOPE   H7X 5256   0.853   4.307   8.296  0.3931 -0.2921 -0.2030
   41DOPE   H7Y 5257   0.993   4.222   8.244 -0.2600 -0.9632  0.4725
   41DOPE   C38 5258   0.992   4.282   8.466  0.9334 -0.2542 -0.2585
   41DOPE   H8X 5259   0.932   4.355   8.524  1.8069 -0.3148  0.7514
   41DOPE   H8Y 5260   1.098   4.309   8.483  0.1033  2.4994  1.2262
   41DOPE   C39 5261   0.958   4.141   8.516 -0.2774  0.2680  0.9262
   41DOPE   H9X 5262   1.017   4.065   8.462  0.7329  0.2794  1.9538
   41DOPE  C310 5263   0.871   4.111   8.618  0.7888  0.0931 -0.3823
   41DOPE  H10X 5264   0.861   4.005   8.648 -0.8317 -0.5323 -2.8458
   41DOPE  C311 5265   0.775   4.209   8.691 -0.1810 -0.1895  0.2047
   41DOPE  H11X 5266   0.814   4.234   8.792  1.2014 -0.8214 -0.1431
   41DOPE  H11Y 5267   0.756   4.302   8.634  0.9808 -0.0101  0.0788
   41DOPE  C312 5268   0.632   4.151   8.711  0.9623 -0.4643 -0.2491
   41DOPE  H12X 5269   0.578   4.236   8.758  0.9463  1.8123 -4.0265
   41DOPE  H12Y 5270   0.638   4.053   8.763  0.6196 -0.6372 -0.5282
   41DOPE  C313 5271   0.552   4.133   8.581 -0.3464  1.5698  0.1287
   41DOPE  H13X 5272   0.599   4.060   8.512 -1.2353 -0.0099  1.1443
   41DOPE  H13Y 5273   0.453   4.092   8.611  1.4362 -2.1209  1.5726
   41DOPE  C314 5274   0.514   4.266   8.500  0.7010  0.6093 -0.2644
   41DOPE  H14X 5275   0.593   4.322   8.446 -0.2244 -0.1364 -2.5575
   41DOPE  H14Y 5276   0.468   4.336   8.572  1.0408  0.6199 -0.0569
   41DOPE  C315 5277   0.414   4.242   8.381 -0.3170 -0.2435  0.5243
   41DOPE  H15X 5278   0.329   4.181   8.419 -0.3128  0.1783  1.2358
   41DOPE  H15Y 5279   0.455   4.172   8.306  0.9856  0.2618  0.7511
   41DOPE  C316 5280   0.358   4.366   8.310 -0.0945  0.4040 -0.9019
   41DOPE  H16X 5281   0.432   4.403   8.235  0.9935  0.2263  0.0573
   41DOPE  H16Y 5282   0.356   4.448   8.386  0.3063  0.4257 -0.9137
   41DOPE  C317 5283   0.222   4.350   8.251  0.0091  1.1891  0.6484
   41DOPE  H17X 5284   0.228   4.286   8.161 -2.7656  3.2415 -1.1585
   41DOPE  H17Y 5285   0.156   4.291   8.318  0.0641  0.1816 -0.1773
   41DOPE  C318 5286   0.151   4.474   8.196  0.2078 -0.7576  0.4873
   41DOPE  H18X 5287   0.140   4.551   8.275 -1.9081 -0.8731  0.3675
   41DOPE  H18Y 5288   0.204   4.518   8.110 -0.0529  0.9631  1.1711
   41DOPE  H18Z 5289   0.046   4.453   8.167 -0.0559  2.3289 -1.1357
   42DOPE     N 5290   0.562   3.312   6.738 -0.1780 -0.0799 -0.1248
   42DOPE   HN1 5291   0.642   3.357   6.787 -0.7860  1.3947 -0.4292
   42DOPE   HN2 5292   0.529   3.391   6.679  0.9286  1.2226  0.9314
   42DOPE   HN3 5293   0.494   3.271   6.806  0.1982 -1.7077 -0.6736
   42DOPE   C12 5294   0.587   3.195   6.649 -0.0851  0.3043 -0.3809
   42DOPE  H12A 5295   0.632   3.236   6.556 -0.8693 -0.6005 -1.1909
   42DOPE  H12B 5296   0.491   3.148   6.618  0.4671  0.0911 -1.8617
   42DOPE   C11 5297   0.670   3.095   6.716 -0.2618 -0.0255 -0.0075
   42DOPE  H11A 5298   0.766   3.142   6.747  0.2867  0.7310 -2.5704
   42DOPE  H11B 5299   0.694   3.023   6.634  1.7957 -0.1713  0.6608
   42DOPE     P 5300   0.676   2.918   6.907 -0.1772  0.1844  0.0559
   42DOPE   O13 5301   0.756   2.840   6.807  0.4897 -0.0676 -0.0205
   42DOPE   O14 5302   0.578   2.843   6.984 -0.2896 -0.0392 -0.4582
   42DOPE   O11 5303   0.764   3.003   7.015 -0.1504  0.0611  0.2182
   42DOPE   O12 5304   0.603   3.032   6.828 -0.5044 -0.3416  0.5866
   42DOPE    C1 5305   0.706   3.055   7.138 -0.4938 -0.0308  0.5739
   42DOPE    HA 5306   0.689   2.965   7.201 -1.3500 -0.0692  0.3026
   42DOPE    HB 5307   0.618   3.118   7.111  1.9724  3.3795 -0.2323
   42DOPE    C2 5308   0.792   3.161   7.215 -1.2656  0.5405  0.4841
   42DOPE    HS 5309   0.824   3.242   7.147  1.2889 -1.0583 -0.3899
   42DOPE   O21 5310   0.908   3.085   7.263 -0.1940  0.3219  0.1484
   42DOPE   C21 5311   1.018   3.147   7.258 -0.7118  0.4489  0.4628
   42DOPE   O22 5312   1.044   3.257   7.207 -0.2422  0.1268  0.2281
   42DOPE   C22 5313   1.122   3.074   7.343  0.0506  0.3064  0.3000
   42DOPE   H2R 5314   1.185   3.010   7.277 -0.0676 -1.1421  1.5324
   42DOPE   H2S 5315   1.073   3.006   7.415 -2.9141  1.5072 -0.4282
   42DOPE    C3 5316   0.706   3.234   7.330 -0.7753  0.4483  0.1773
   42DOPE    HX 5317   0.672   3.146   7.389 -2.3968 -0.9586 -2.6368
   42DOPE    HY 5318   0.614   3.286   7.298 -0.4351  1.4588  0.8088
   42DOPE   O31 5319   0.786   3.309   7.415  0.4700  1.4842  0.6617
   42DOPE   C31 5320   0.822   3.427   7.374 -0.2743  1.0206  0.0630
   42DOPE   O32 5321   0.777   3.482   7.279  0.1734  0.2009  0.3250
   42DOPE   C32 5322   0.938   3.471   7.460 -0.9281 -0.0965  0.5972
   42DOPE   H2X 5323   0.966   3.389   7.530 -1.9848 -2.3471 -1.4842
   42DOPE   H2Y 5324   1.023   3.469   7.389 -1.5126  0.7186 -0.1528
   42DOPE   C23 5325   1.204   3.180   7.419  0.3787  0.3286  0.3172
   42DOPE   H3R 5326   1.139   3.240   7.485 -0.1272 -0.4459  0.5394
   42DOPE   H3S 5327   1.247   3.244   7.339 -1.2188  0.2300 -0.6616
   42DOPE   C24 5328   1.328   3.135   7.495  0.6615  0.0945  0.4344
   42DOPE   H4R 5329   1.381   3.050   7.446 -2.8209 -3.0677  1.6456
   42DOPE   H4S 5330   1.290   3.089   7.589 -0.4735 -1.0355 -0.5361
   42DOPE   C25 5331   1.419   3.255   7.528  0.5367 -0.0407  0.3336
   42DOPE   H5R 5332   1.345   3.336   7.541  0.3236 -0.1734 -0.0364
   42DOPE   H5S 5333   1.463   3.270   7.427 -1.0231 -2.8526 -0.8974
   42DOPE   C26 5334   1.506   3.239   7.657  0.3060 -0.3807  0.1745
   42DOPE   H6R 5335   1.610   3.217   7.624  0.2227 -0.3626 -0.1005
   42DOPE   H6S 5336   1.460   3.167   7.727  0.5521 -2.4461 -1.7027
   42DOPE   C27 5337   1.512   3.376   7.735 -0.1015 -0.5050 -0.1365
   42DOPE   H7R 5338   1.555   3.458   7.673  1.6402 -0.5876  0.9003
   42DOPE   H7S 5339   1.595   3.379   7.809  0.5595 -1.6607 -0.8163
   42DOPE   C28 5340   1.383   3.416   7.806  0.3859 -0.0437  0.5201
   42DOPE   H8R 5341   1.341   3.330   7.862 -0.4467  0.2374  0.3411
   42DOPE   H8S 5342   1.309   3.449   7.729 -0.1481 -0.1281  0.9944
   42DOPE   C29 5343   1.398   3.535   7.898  0.0099 -0.4793 -0.4490
   42DOPE   H9R 5344   1.443   3.624   7.852 -0.0683  0.3381  1.0072
   42DOPE  C210 5345   1.360   3.550   8.022 -0.3404 -0.1069 -0.3295
   42DOPE  H10R 5346   1.381   3.641   8.081  0.0358  0.3047 -1.0846
   42DOPE  C211 5347   1.283   3.456   8.113 -0.1455  0.8313 -0.5806
   42DOPE  H11R 5348   1.266   3.363   8.055 -1.8339  0.8984 -0.2599
   42DOPE  H11S 5349   1.186   3.506   8.137 -1.6447 -1.5563 -1.3340
   42DOPE  C212 5350   1.335   3.415   8.255 -0.6606  0.3709  0.1695
   42DOPE  H12R 5351   1.440   3.379   8.248 -1.1220 -1.1129  0.5489
   42DOPE  H12S 5352   1.274   3.334   8.301  1.2199 -1.7301 -0.8248
   42DOPE  C213 5353   1.332   3.536   8.351 -0.7473 -0.5139 -0.0871
   42DOPE  H13R 5354   1.234   3.588   8.347  0.2759  1.5288 -0.4846
   42DOPE  H13S 5355   1.410   3.610   8.319  0.2867 -1.0299  1.1526
   42DOPE  C214 5356   1.366   3.512   8.501  0.3737 -0.1946  0.1829
   42DOPE  H14R 5357   1.474   3.486   8.511  0.5073  1.0223  2.8934
   42DOPE  H14S 5358   1.309   3.424   8.538 -0.6127  0.6989  0.8198
   42DOPE  C215 5359   1.349   3.631   8.597 -0.0789 -0.1683  0.7874
   42DOPE  H15R 5360   1.243   3.646   8.624 -0.2009 -1.7659  1.3029
   42DOPE  H15S 5361   1.375   3.727   8.547 -0.9327 -0.5343 -0.4125
   42DOPE  C216 5362   1.422   3.614   8.728 -0.1903  0.4357 -0.3050
   42DOPE  H16R 5363   1.423   3.717   8.768  0.6053  0.3264 -0.0340
   42DOPE  H16S 5364   1.525   3.574   8.722 -0.2412  0.0443  1.0424
   42DOPE  C217 5365   1.359   3.518   8.833 -0.4925  0.7413 -0.3295
   42DOPE  H17R 5366   1.376   3.416   8.791  2.0510  1.0032 -0.0758
   42DOPE  H17S 5367   1.248   3.526   8.840 -0.4850  0.8126 -0.2883
   42DOPE  C218 5368   1.418   3.532   8.971  0.7625 -0.5693  0.3414
   42DOPE  H18R 5369   1.528   3.545   8.974  0.5241  1.8429  0.1876
   42DOPE  H18S 5370   1.386   3.442   9.028  1.3567  0.5977  2.6325
   42DOPE  H18T 5371   1.368   3.613   9.028  1.1210  1.5533 -2.2053
   42DOPE   C33 5372   0.915   3.614   7.517 -0.9879  0.1126  0.2567
   42DOPE   H3X 5373   0.814   3.602   7.561 -0.2271 -1.2752  1.7671
   42DOPE   H3Y 5374   0.913   3.667   7.420  1.4039 -0.3117 -0.0947
   42DOPE   C34 5375   1.033   3.662   7.600 -0.3516  0.2624  0.3673
   42DOPE   H4X 5376   1.010   3.769   7.623  2.0068  0.9069 -0.0252
   42DOPE   H4Y 5377   1.056   3.615   7.698 -0.8461  0.1777  0.4435
   42DOPE   C35 5378   1.168   3.661   7.534 -0.4140 -0.3852 -0.2758
   42DOPE   H5X 5379   1.162   3.640   7.425 -1.6687 -1.0886 -0.0843
   42DOPE   H5Y 5380   1.229   3.576   7.571 -1.8054 -1.0335  0.5822
   42DOPE   C36 5381   1.246   3.794   7.562  0.2985  0.4653  0.5002
   42DOPE   H6X 5382   1.189   3.886   7.537  1.9837  1.3747 -0.0909
   42DOPE   H6Y 5383   1.337   3.796   7.499  0.6044 -0.9805  0.8604
   42DOPE   C37 5384   1.280   3.800   7.709  0.3848  0.1361  0.7750
   42DOPE   H7X 5385   1.200   3.853   7.764  2.2902  0.3164  3.5731
   42DOPE   H7Y 5386   1.265   3.701   7.758  2.3875  0.6185  2.5241
   42DOPE   C38 5387   1.415   3.864   7.749 -0.0990 -0.1703 -0.3262
   42DOPE   H8X 5388   1.498   3.810   7.700 -0.3292 -0.8038 -0.0270
   42DOPE   H8Y 5389   1.423   3.846   7.858  2.3814  1.4669 -0.1586
   42DOPE   C39 5390   1.421   4.015   7.725  0.1070 -0.3061  0.6975
   42DOPE   H9X 5391   1.385   4.052   7.628  0.4376 -0.5071  0.4967
   42DOPE  C310 5392   1.439   4.105   7.817  0.0527  0.0383 -0.0867
   42DOPE  H10X 5393   1.440   4.211   7.785 -1.4490  0.1313  0.0869
   42DOPE  C311 5394   1.485   4.080   7.960  0.1044 -0.0384 -0.1723
   42DOPE  H11X 5395   1.536   3.981   7.967 -0.0063 -0.2013 -1.3974
   42DOPE  H11Y 5396   1.552   4.161   7.993 -0.2649  1.1981 -2.2855
   42DOPE  C312 5397   1.353   4.066   8.040 -0.4481  0.5198  0.2242
   42DOPE  H12X 5398   1.269   4.012   7.992 -2.0198  1.9754  1.2496
   42DOPE  H12Y 5399   1.310   4.166   8.063  2.2172  1.1711  3.0756
   42DOPE  C313 5400   1.378   3.985   8.165 -0.7117 -0.2224 -0.5841
   42DOPE  H13X 5401   1.405   3.880   8.141  0.4721  0.3864 -2.0507
   42DOPE  H13Y 5402   1.475   4.019   8.208  0.0367 -0.8665 -1.6887
   42DOPE  C314 5403   1.266   3.992   8.275  0.0364 -0.6409 -0.5926
   42DOPE  H14X 5404   1.209   3.897   8.282 -1.1505  0.0459 -0.7138
   42DOPE  H14Y 5405   1.190   4.066   8.242  0.2326 -0.1486  0.0294
   42DOPE  C315 5406   1.319   4.046   8.416 -0.7642  0.1979  0.4965
   42DOPE  H15X 5407   1.403   3.988   8.458 -0.2791 -0.6955 -1.5607
   42DOPE  H15Y 5408   1.238   4.016   8.487  0.4059  1.6536  2.5494
   42DOPE  C316 5409   1.348   4.187   8.410 -0.3145 -0.3769  0.4390
   42DOPE  H16X 5410   1.264   4.256   8.385 -1.4340 -1.3097  1.4858
   42DOPE  H16Y 5411   1.435   4.208   8.344  0.8706 -1.7460  1.4961
   42DOPE  C317 5412   1.402   4.240   8.550 -0.1668  0.7899  0.3676
   42DOPE  H17X 5413   1.357   4.176   8.629  0.4636  0.0813  0.1570
   42DOPE  H17Y 5414   1.512   4.229   8.544 -0.2401  0.2436 -0.0850
   42DOPE  C318 5415   1.364   4.386   8.588 -0.2296 -0.1801  0.6834
   42DOPE  H18X 5416   1.377   4.452   8.499 -0.4803  1.7711  2.0361
   42DOPE  H18Y 5417   1.254   4.398   8.604 -0.3272  0.8789 -0.5509
   42DOPE  H18Z 5418   1.423   4.430   8.670 -2.6678  2.9585  0.9809
   43DOPE     N 5419   0.409   2.027   6.672 -0.2353  0.0709 -0.6278
   43DOPE   HN1 5420   0.347   2.109   6.688 -0.2328  0.0295 -0.3979
   43DOPE   HN2 5421   0.503   2.058   6.704 -0.3390  1.2014 -1.3585
   43DOPE   HN3 5422   0.416   2.007   6.570 -1.2083  1.1631 -0.9271
   43DOPE   C12 5423   0.351   1.918   6.758  1.0297  0.8724  0.1733
   43DOPE  H12A 5424   0.380   1.817   6.721  1.4482  0.4610  1.5920
   43DOPE  H12B 5425   0.243   1.927   6.732  0.9004 -1.3846 -0.3222
   43DOPE   C11 5426   0.369   1.932   6.903 -0.5517  0.1220  0.6099
   43DOPE  H11A 5427   0.349   1.835   6.955  1.4759 -1.8675 -2.0354
   43DOPE  H11B 5428   0.299   2.007   6.946  1.2594  1.2640  1.6759
   43DOPE     P 5429   0.567   1.963   7.074  0.1008 -0.4129 -0.0630
   43DOPE   O13 5430   0.715   1.965   7.063 -0.5569  0.1210  0.1765
   43DOPE   O14 5431   0.509   1.849   7.157  0.1310 -0.1181 -0.4682
   43DOPE   O11 5432   0.507   2.108   7.118  0.3491  0.1195  0.2961
   43DOPE   O12 5433   0.503   1.960   6.927 -0.1511  0.3765 -0.3677
   43DOPE    C1 5434   0.573   2.176   7.224  0.1427  0.0382 -0.7216
   43DOPE    HA 5435   0.611   2.275   7.188  0.0968 -0.2476 -1.5848
   43DOPE    HB 5436   0.660   2.120   7.264 -1.8972 -2.2091  0.8582
   43DOPE    C2 5437   0.494   2.190   7.360  0.3255  0.4300 -0.1545
   43DOPE    HS 5438   0.569   2.203   7.441  1.1243 -1.5272 -0.5299
   43DOPE   O21 5439   0.409   2.074   7.381  0.4856 -0.3523  0.1796
   43DOPE   C21 5440   0.480   1.960   7.418  0.4015  0.4678  0.7359
   43DOPE   O22 5441   0.599   1.946   7.420  0.2787  0.0754  0.8745
   43DOPE   C22 5442   0.385   1.853   7.480 -0.2448 -0.2635  0.3176
   43DOPE   H2R 5443   0.417   1.758   7.432  1.3827  1.0487 -1.4128
   43DOPE   H2S 5444   0.277   1.875   7.465 -0.2548  0.0553  0.8369
   43DOPE    C3 5445   0.406   2.320   7.347  0.2527  0.0079 -0.5732
   43DOPE    HX 5446   0.373   2.312   7.241  2.8647  1.8205 -1.6288
   43DOPE    HY 5447   0.465   2.414   7.347  0.2720  0.0113  0.4352
   43DOPE   O31 5448   0.287   2.336   7.429 -0.2017  0.2148  0.5321
   43DOPE   C31 5449   0.317   2.370   7.551  0.1511  0.2152 -0.0377
   43DOPE   O32 5450   0.430   2.390   7.589 -0.2181 -0.1493 -0.2572
   43DOPE   C32 5451   0.187   2.365   7.628 -0.2675 -0.1197 -0.1178
   43DOPE   H2X 5452   0.108   2.414   7.567 -1.4053 -0.5742  0.9532
   43DOPE   H2Y 5453   0.157   2.263   7.659  1.4031  0.4457  4.0452
   43DOPE   C23 5454   0.408   1.852   7.633 -0.4447 -0.4200  0.4719
   43DOPE   H3R 5455   0.512   1.828   7.662  0.6930  2.7189 -0.6338
   43DOPE   H3S 5456   0.350   1.763   7.666 -1.5379  0.9370  2.4249
   43DOPE   C24 5457   0.365   1.984   7.710  0.1277  0.1247 -0.2435
   43DOPE   H4R 5458   0.268   2.014   7.664  0.4604  0.8714 -0.4845
   43DOPE   H4S 5459   0.446   2.060   7.698  0.2856 -0.0249 -0.1360
   43DOPE   C25 5460   0.349   1.972   7.859  0.3361 -0.1109 -0.3894
   43DOPE   H5R 5461   0.437   1.922   7.906  0.9100  2.1913  1.1387
   43DOPE   H5S 5462   0.261   1.906   7.871  0.4756 -0.2237  0.0337
   43DOPE   C26 5463   0.343   2.108   7.919  0.1675  0.0965  0.1662
   43DOPE   H6R 5464   0.297   2.177   7.844 -0.4944  0.2807  0.7349
   43DOPE   H6S 5465   0.443   2.149   7.942  0.3694 -0.3990  0.1771
   43DOPE   C27 5466   0.268   2.101   8.049 -0.2984 -0.8156  0.4822
   43DOPE   H7R 5467   0.340   2.045   8.112  1.1709  0.3002 -0.1328
   43DOPE   H7S 5468   0.173   2.045   8.039 -0.8621  0.2248 -0.1925
   43DOPE   C28 5469   0.242   2.240   8.119 -0.5413 -0.5754  0.9916
   43DOPE   H8R 5470   0.170   2.207   8.196  0.4967 -0.8170  1.8726
   43DOPE   H8S 5471   0.176   2.303   8.054  0.5519  1.2620  1.5985
   43DOPE   C29 5472   0.370   2.303   8.163 -0.2623  0.1652 -0.2136
   43DOPE   H9R 5473   0.430   2.351   8.085 -0.1434 -0.6396 -0.6287
   43DOPE  C210 5474   0.420   2.312   8.285  0.2458 -0.5365  0.8834
   43DOPE  H10R 5475   0.514   2.367   8.298 -0.5452  1.4364 -1.1657
   43DOPE  C211 5476   0.354   2.257   8.416 -0.3678  0.3773  0.3593
   43DOPE  H11R 5477   0.435   2.219   8.482  0.9634  2.5323  0.0705
   43DOPE  H11S 5478   0.284   2.178   8.382  0.8427  0.3647 -2.4318
   43DOPE  C212 5479   0.287   2.368   8.501 -0.6750 -0.0782 -0.4156
   43DOPE  H12R 5480   0.206   2.398   8.432  1.4886 -0.2710 -3.2308
   43DOPE  H12S 5481   0.346   2.462   8.508  0.1095 -0.4037 -2.1644
   43DOPE  C213 5482   0.235   2.325   8.637 -0.2089 -0.9120 -0.4618
   43DOPE  H13R 5483   0.183   2.231   8.610 -0.0370 -0.4638 -2.5268
   43DOPE  H13S 5484   0.174   2.405   8.684  0.8880 -1.5574  2.2304
   43DOPE  C214 5485   0.332   2.277   8.748  0.4439  0.5005 -0.3171
   43DOPE  H14R 5486   0.391   2.367   8.775  0.5488  0.2649  0.2455
   43DOPE  H14S 5487   0.393   2.193   8.707 -0.4195  0.1093 -0.8224
   43DOPE  C215 5488   0.257   2.226   8.875  0.0627  0.6192  0.3666
   43DOPE  H15R 5489   0.329   2.179   8.945  0.4738  3.3361  1.9313
   43DOPE  H15S 5490   0.187   2.142   8.855  0.1899  1.0382 -2.0491
   43DOPE  C216 5491   0.200   2.333   8.965 -0.1881  0.6624  0.1906
   43DOPE  H16R 5492   0.148   2.409   8.902  0.0009  1.0269  0.4731
   43DOPE  H16S 5493   0.280   2.377   9.028  0.6231 -0.2567 -0.1796
   43DOPE  C217 5494   0.098   2.287   9.073  0.6219 -0.4154  0.3856
   43DOPE  H17R 5495   0.000   2.255   9.031 -0.3379  1.0121  1.4453
   43DOPE  H17S 5496   0.069   2.362   9.149  1.0325 -0.6059  0.7394
   43DOPE  C218 5497   0.146   2.175   9.162 -0.1893  0.3170  0.1784
   43DOPE  H18R 5498   0.253   2.178   9.192 -0.3705 -1.6152  1.2277
   43DOPE  H18S 5499   0.126   2.079   9.110  0.2231 -0.4420  1.3521
   43DOPE  H18T 5500   0.080   2.160   9.250 -2.0969 -2.9117 -1.6389
   43DOPE   C33 5501   0.195   2.445   7.758 -0.5215 -0.2726 -0.3283
   43DOPE   H3X 5502   0.257   2.396   7.836 -0.0063 -1.2359 -1.3193
   43DOPE   H3Y 5503   0.090   2.460   7.792 -0.6009  0.1238 -0.7363
   43DOPE   C34 5504   0.253   2.592   7.743 -0.0574  0.2508 -0.2145
   43DOPE   H4X 5505   0.364   2.584   7.749 -0.0684 -1.0650 -1.3252
   43DOPE   H4Y 5506   0.223   2.628   7.643 -1.6531  0.9335  0.4747
   43DOPE   C35 5507   0.194   2.689   7.843 -0.2498  0.0511 -0.4928
   43DOPE   H5X 5508   0.086   2.704   7.823  0.3661  2.5832 -2.4888
   43DOPE   H5Y 5509   0.239   2.788   7.823 -1.1752  1.2052  2.6537
   43DOPE   C36 5510   0.209   2.661   7.991 -0.2758  0.3015 -0.1786
   43DOPE   H6X 5511   0.312   2.622   8.007 -1.0900 -2.0822 -0.4459
   43DOPE   H6Y 5512   0.151   2.573   8.025 -1.9962  0.8584 -1.5252
   43DOPE   C37 5513   0.190   2.782   8.077  0.7436  0.1060 -0.0624
   43DOPE   H7X 5514   0.271   2.856   8.059 -0.1169  1.6622  2.0526
   43DOPE   H7Y 5515   0.098   2.826   8.032  0.5033  0.5970  0.8949
   43DOPE   C38 5516   0.166   2.746   8.228  0.1033  0.8964 -0.0831
   43DOPE   H8X 5517   0.091   2.664   8.230 -0.4357  1.4020  0.7917
   43DOPE   H8Y 5518   0.128   2.840   8.273 -1.3188 -0.6339  2.0943
   43DOPE   C39 5519   0.282   2.691   8.303  0.0576  0.7310  0.5164
   43DOPE   H9X 5520   0.326   2.598   8.264 -2.1280 -0.0575 -0.2797
   43DOPE  C310 5521   0.328   2.755   8.410  0.3892 -1.2319 -0.1914
   43DOPE  H10X 5522   0.423   2.723   8.455  0.6903 -0.6469 -0.4036
   43DOPE  C311 5523   0.283   2.888   8.465 -0.4364 -0.7118  0.1446
   43DOPE  H11X 5524   0.375   2.920   8.518 -0.6226  0.8904 -0.4483
   43DOPE  H11Y 5525   0.266   2.952   8.376 -0.5676 -0.3401  0.4369
   43DOPE  C312 5526   0.157   2.872   8.545  0.6368 -0.4312 -0.4867
   43DOPE  H12X 5527   0.166   2.833   8.649 -3.4881 -2.4962 -0.6701
   43DOPE  H12Y 5528   0.085   2.807   8.491  0.3915 -1.7276  1.3067
   43DOPE  C313 5529   0.090   3.011   8.566  0.2324 -0.1228 -0.1008
   43DOPE  H13X 5530   0.172   3.071   8.609 -1.8182  2.7174  0.1044
   43DOPE  H13Y 5531   0.054   3.056   8.471 -3.1995 -0.5495  0.8318
   43DOPE  C314 5532  -0.027   2.998   8.669  0.4321 -0.1042 -0.8982
   43DOPE  H14X 5533   0.014   2.943   8.756  0.1566 -0.5739 -1.0582
   43DOPE  H14Y 5534  -0.104   2.935   8.618  0.7094  1.3202 -3.1995
   43DOPE  C315 5535  -0.083   3.134   8.719 -0.1953 -0.1856 -0.2885
   43DOPE  H15X 5536  -0.164   3.109   8.791  0.6323  0.5769  0.9389
   43DOPE  H15Y 5537  -0.119   3.195   8.633 -1.3534 -0.9547 -0.3704
   43DOPE  C316 5538   0.022   3.224   8.800 -0.0280 -0.5085 -0.0254
   43DOPE  H16X 5539   0.114   3.246   8.741  1.6451  0.1193  2.6407
   43DOPE  H16Y 5540   0.054   3.153   8.880  0.7336  1.2710  1.3165
   43DOPE  C317 5541  -0.041   3.351   8.846 -0.8079 -0.0468 -0.0840
   43DOPE  H17X 5542  -0.078   3.411   8.760 -0.3795  0.7603  0.2802
   43DOPE  H17Y 5543  -0.131   3.320   8.903 -1.8692  0.0850 -1.6295
   43DOPE  C318 5544   0.049   3.428   8.942 -0.2035  0.0491  0.5213
   43DOPE  H18X 5545   0.015   3.533   8.949 -0.7070 -0.2045  2.1040
   43DOPE  H18Y 5546   0.054   3.395   9.048 -1.8254  0.5522  0.7740
   43DOPE  H18Z 5547   0.154   3.414   8.908 -0.3360  2.0531 -0.8796
   44DOPE     N 5548   2.361   7.388   7.583 -0.7550 -0.3418 -0.0905
   44DOPE   HN1 5549   2.440   7.329   7.548 -0.1153  0.4910 -0.0917
   44DOPE   HN2 5550   2.378   7.418   7.681  0.1157 -2.8991  0.6144
   44DOPE   HN3 5551   2.278   7.326   7.582  0.5110 -2.2388 -3.5268
   44DOPE   C12 5552   2.360   7.501   7.481  0.1954  0.1591  0.1802
   44DOPE  H12A 5553   2.422   7.585   7.518  0.1349  0.0769  0.4689
   44DOPE  H12B 5554   2.256   7.540   7.479  0.1349  0.0214 -1.5444
   44DOPE   C11 5555   2.392   7.449   7.331  0.1789 -0.3946 -0.0899
   44DOPE  H11A 5556   2.328   7.508   7.262 -2.2717 -1.3434  1.2283
   44DOPE  H11B 5557   2.357   7.344   7.323  3.4918 -1.9550  3.1062
   44DOPE     P 5558   2.648   7.380   7.369  0.0466 -0.0179 -0.2263
   44DOPE   O13 5559   2.722   7.473   7.458 -0.0290  0.2298  0.5554
   44DOPE   O14 5560   2.724   7.314   7.265  0.5140 -0.4538  0.1292
   44DOPE   O11 5561   2.569   7.275   7.455  0.2964  0.0071 -0.6304
   44DOPE   O12 5562   2.529   7.466   7.300  0.3371  0.0688 -0.0289
   44DOPE    C1 5563   2.575   7.136   7.421  0.4702  0.0126  0.3738
   44DOPE    HA 5564   2.661   7.099   7.361  0.9535 -2.2662  2.2938
   44DOPE    HB 5565   2.478   7.095   7.386  0.7650  1.4458 -2.3819
   44DOPE    C2 5566   2.595   7.059   7.549  0.7602 -0.4755  0.0678
   44DOPE    HS 5567   2.514   7.094   7.618 -1.5705 -0.4289 -2.5115
   44DOPE   O21 5568   2.726   7.103   7.599  0.3434  0.3849 -0.3642
   44DOPE   C21 5569   2.719   7.196   7.696  0.2698  0.3908 -0.2050
   44DOPE   O22 5570   2.620   7.241   7.747  0.4624  0.6225  0.0474
   44DOPE   C22 5571   2.858   7.240   7.720  0.4392  0.2958  0.1706
   44DOPE   H2R 5572   2.878   7.316   7.642 -1.1827  0.0540 -0.5213
   44DOPE   H2S 5573   2.945   7.171   7.713  0.7140  0.8345 -2.7415
   44DOPE    C3 5574   2.584   6.909   7.543  0.3796 -0.2049 -0.6273
   44DOPE    HX 5575   2.646   6.874   7.458  2.0301 -1.0777  0.8660
   44DOPE    HY 5576   2.478   6.893   7.512 -0.3737  1.5991  0.8306
   44DOPE   O31 5577   2.619   6.833   7.667 -0.0455 -0.2628  0.2061
   44DOPE   C31 5578   2.525   6.843   7.761 -1.4697  0.2204  0.8329
   44DOPE   O32 5579   2.418   6.896   7.761  0.1786  1.3322  0.4259
   44DOPE   C32 5580   2.591   6.755   7.871 -0.7495  0.2048 -0.4707
   44DOPE   H2X 5581   2.601   6.647   7.845 -1.6942  0.3226 -1.3933
   44DOPE   H2Y 5582   2.690   6.805   7.879 -0.4799 -0.4226  0.1967
   44DOPE   C23 5583   2.862   7.320   7.853  0.0532  0.1068  0.4806
   44DOPE   H3R 5584   2.774   7.389   7.851 -1.5868 -1.9008 -1.1146
   44DOPE   H3S 5585   2.957   7.377   7.851 -0.6477  1.2829 -0.9267
   44DOPE   C24 5586   2.864   7.238   7.986 -0.1982 -0.6130 -0.1714
   44DOPE   H4R 5587   2.919   7.143   7.969  1.5744  0.4566 -0.8096
   44DOPE   H4S 5588   2.760   7.225   8.022 -0.8665 -0.2377 -1.8663
   44DOPE   C25 5589   2.936   7.323   8.102  0.5443  0.1288  0.1700
   44DOPE   H5R 5590   2.934   7.430   8.073  1.3663  0.3578  0.9184
   44DOPE   H5S 5591   3.041   7.286   8.099  0.6142  0.1725  1.7467
   44DOPE   C26 5592   2.890   7.304   8.242 -0.1452 -0.1115 -0.7233
   44DOPE   H6R 5593   2.783   7.334   8.245  0.3411  1.7415  1.9658
   44DOPE   H6S 5594   2.950   7.361   8.317 -0.7304  0.0239 -0.3534
   44DOPE   C27 5595   2.888   7.148   8.288 -1.2163  0.1597 -0.2644
   44DOPE   H7R 5596   2.996   7.122   8.288 -0.7017  2.1045 -0.1361
   44DOPE   H7S 5597   2.826   7.088   8.219 -1.6592  2.1011 -1.6365
   44DOPE   C28 5598   2.845   7.141   8.431  0.2421 -0.0673  0.6198
   44DOPE   H8R 5599   2.759   7.208   8.453  1.5183  1.6555  0.5642
   44DOPE   H8S 5600   2.928   7.178   8.496 -0.3170 -0.6637  1.7010
   44DOPE   C29 5601   2.822   6.994   8.460 -0.0930  0.2394  0.2227
   44DOPE   H9R 5602   2.918   6.941   8.470  0.5362  1.6017  1.7854
   44DOPE  C210 5603   2.708   6.927   8.444 -0.0661 -0.2307 -0.1115
   44DOPE  H10R 5604   2.707   6.820   8.469 -1.4211 -0.5137 -1.2997
   44DOPE  C211 5605   2.571   6.975   8.405 -0.0385 -0.1709 -0.0386
   44DOPE  H11R 5606   2.558   6.919   8.310  1.0875 -2.2134  0.9491
   44DOPE  H11S 5607   2.572   7.085   8.388 -0.9650  0.0836  1.3770
   44DOPE  C212 5608   2.461   6.938   8.503 -0.2066 -0.2769  0.1096
   44DOPE  H12R 5609   2.453   6.827   8.511  1.9774 -0.4923 -0.1157
   44DOPE  H12S 5610   2.367   6.982   8.463  1.1685  1.9355 -0.8465
   44DOPE  C213 5611   2.474   7.012   8.638  0.1977 -0.4091  0.4091
   44DOPE  H13R 5612   2.481   7.122   8.619  0.4389 -0.4377  0.3336
   44DOPE  H13S 5613   2.564   6.991   8.699 -0.1993 -0.2873  1.0494
   44DOPE  C214 5614   2.356   6.977   8.726 -0.4546 -0.0343 -0.1958
   44DOPE  H14R 5615   2.376   6.892   8.794  2.8220 -0.2947 -1.3186
   44DOPE  H14S 5616   2.270   6.948   8.662 -0.8047  0.2203  0.1552
   44DOPE  C215 5617   2.313   7.095   8.807 -0.3391 -0.2965  1.4436
   44DOPE  H15R 5618   2.287   7.178   8.738  3.1217 -0.2901 -0.0561
   44DOPE  H15S 5619   2.399   7.129   8.869 -0.6136  0.6254  1.3262
   44DOPE  C216 5620   2.197   7.057   8.898  0.0900 -0.3984 -0.6152
   44DOPE  H16R 5621   2.208   6.955   8.941  0.7005 -0.5128 -1.0356
   44DOPE  H16S 5622   2.103   7.046   8.840  0.1681 -2.6573 -0.3954
   44DOPE  C217 5623   2.165   7.158   9.003  0.7148  0.3846 -0.0545
   44DOPE  H17R 5624   2.086   7.118   9.070  0.4523  1.9719  0.6295
   44DOPE  H17S 5625   2.117   7.246   8.954  2.4418  1.2525 -0.2824
   44DOPE  C218 5626   2.278   7.182   9.108  0.5999  0.3372 -0.1448
   44DOPE  H18R 5627   2.221   7.218   9.196 -1.9527  0.4269 -1.7385
   44DOPE  H18S 5628   2.347   7.253   9.059  1.0987 -1.4384 -2.1626
   44DOPE  H18T 5629   2.343   7.096   9.135  0.8440  0.7512  0.6118
   44DOPE   C33 5630   2.514   6.766   8.006  1.2089 -0.1194 -0.0773
   44DOPE   H3X 5631   2.408   6.742   7.986  1.9377 -2.9466 -1.1303
   44DOPE   H3Y 5632   2.515   6.869   8.047  0.3120  0.0828 -0.5594
   44DOPE   C34 5633   2.566   6.669   8.113  0.0603 -0.1025  0.0356
   44DOPE   H4X 5634   2.529   6.685   8.217  1.3364  2.9532  0.1192
   44DOPE   H4Y 5635   2.548   6.564   8.080  4.4024 -1.1034  0.3214
   44DOPE   C35 5636   2.724   6.681   8.131 -1.1459  0.4095 -0.2805
   44DOPE   H5X 5637   2.747   6.789   8.144 -0.3548  0.4463 -1.7838
   44DOPE   H5Y 5638   2.774   6.648   8.037 -1.1973  1.2236 -0.6000
   44DOPE   C36 5639   2.778   6.588   8.247  0.3724 -0.4427 -0.0187
   44DOPE   H6X 5640   2.749   6.484   8.220 -1.0611 -0.4311  1.3154
   44DOPE   H6Y 5641   2.727   6.607   8.344  0.4842 -0.9433  0.1417
   44DOPE   C37 5642   2.926   6.601   8.271 -0.1943 -0.0974  0.1759
   44DOPE   H7X 5643   2.973   6.587   8.172  0.0345  2.1301 -0.0908
   44DOPE   H7Y 5644   2.947   6.708   8.294  0.2496 -0.1257 -0.0955
   44DOPE   C38 5645   2.975   6.503   8.380 -1.0440  0.3767  0.4940
   44DOPE   H8X 5646   3.086   6.508   8.376 -0.7286 -2.8052  2.1578
   44DOPE   H8Y 5647   2.950   6.400   8.350  0.2182  0.5325 -1.2233
   44DOPE   C39 5648   2.922   6.519   8.519  0.3691  0.2356  0.0517
   44DOPE   H9X 5649   2.824   6.473   8.535  0.3292  1.2028  3.4767
   44DOPE  C310 5650   2.985   6.541   8.637  0.6270 -0.8972 -0.0446
   44DOPE  H10X 5651   2.919   6.548   8.724 -1.8400  0.8687 -1.9059
   44DOPE  C311 5652   3.129   6.579   8.641  0.5619  0.8610  0.2868
   44DOPE  H11X 5653   3.187   6.498   8.691  0.6264  0.0158 -1.1198
   44DOPE  H11Y 5654   3.176   6.583   8.541 -0.9752  1.4153 -0.4358
   44DOPE  C312 5655   3.152   6.709   8.713  0.8965 -0.2107  0.2259
   44DOPE  H12X 5656   3.100   6.784   8.649 -0.4783 -0.5414  0.9350
   44DOPE  H12Y 5657   3.263   6.717   8.706  1.0436 -2.3096 -0.4261
   44DOPE  C313 5658   3.113   6.719   8.857 -0.3274  0.1932 -0.8001
   44DOPE  H13X 5659   3.004   6.699   8.869 -0.6488 -0.9835 -4.5137
   44DOPE  H13Y 5660   3.162   6.636   8.913  0.7916  1.7488  0.6307
   44DOPE  C314 5661   3.163   6.845   8.941 -0.0573  0.1467 -0.0505
   44DOPE  H14X 5662   3.084   6.923   8.937 -0.4729 -0.3001 -0.7349
   44DOPE  H14Y 5663   3.257   6.890   8.903 -0.7489  1.6933 -0.0030
   44DOPE  C315 5664   3.200   6.812   9.091  0.4136 -0.0082 -0.4947
   44DOPE  H15X 5665   3.215   6.907   9.147  0.0040  0.4865 -1.2089
   44DOPE  H15Y 5666   3.296   6.759   9.073  0.1226 -0.3823 -0.9678
   44DOPE  C316 5667   3.088   6.740   9.160 -0.4874 -0.3710 -0.3395
   44DOPE  H16X 5668   3.074   6.641   9.110  0.8523 -0.0586 -1.3662
   44DOPE  H16Y 5669   2.990   6.793   9.166 -0.2824 -0.1450  2.2125
   44DOPE  C317 5670   3.118   6.698   9.296  0.5450 -0.7021 -0.4380
   44DOPE  H17X 5671   3.047   6.618   9.325 -0.9910  0.5302 -0.7066
   44DOPE  H17Y 5672   3.217   6.647   9.306  0.6106 -0.2027  2.2805
   44DOPE  C318 5673   3.100   6.807   9.404  0.6017  0.0964  0.6365
   44DOPE  H18X 5674   3.008   6.869   9.396  1.1857  1.1895  2.0237
   44DOPE  H18Y 5675   3.099   6.759   9.504  1.6767  1.6115  1.4078
   44DOPE  H18Z 5676   3.179   6.884   9.402  0.1659  0.7880  4.0884
   45DOPE     N 5677   3.763   6.343   7.414 -0.2649  0.0014 -0.8798
   45DOPE   HN1 5678   3.839   6.325   7.482 -1.4381 -0.7169  0.2794
   45DOPE   HN2 5679   3.757   6.276   7.334 -0.3182 -0.1412 -0.7557
   45DOPE   HN3 5680   3.778   6.437   7.371 -4.1276  0.5484 -1.4145
   45DOPE   C12 5681   3.638   6.349   7.494  0.6100  0.1919 -0.0791
   45DOPE  H12A 5682   3.648   6.432   7.567 -0.4978  0.2961 -0.0163
   45DOPE  H12B 5683   3.618   6.254   7.549  0.0836 -0.5683 -1.5468
   45DOPE   C11 5684   3.519   6.357   7.394 -0.4984 -0.0889  0.4047
   45DOPE  H11A 5685   3.422   6.338   7.446  0.1631 -0.9022  1.3817
   45DOPE  H11B 5686   3.523   6.275   7.319 -1.2643 -0.0562  0.3220
   45DOPE     P 5687   3.392   6.537   7.246 -0.5171  0.2642 -0.0790
   45DOPE   O13 5688   3.322   6.420   7.187  0.1603 -0.6423  0.8233
   45DOPE   O14 5689   3.422   6.638   7.148 -0.1612  0.3660 -0.1080
   45DOPE   O11 5690   3.301   6.583   7.369  0.2645  0.0660 -0.0908
   45DOPE   O12 5691   3.517   6.483   7.322  0.0668 -0.3608  0.2087
   45DOPE    C1 5692   3.358   6.675   7.466  0.4696 -0.3210 -0.7144
   45DOPE    HA 5693   3.464   6.653   7.489  0.1450  0.4541  1.8038
   45DOPE    HB 5694   3.309   6.658   7.565  0.4226 -1.6652 -0.9454
   45DOPE    C2 5695   3.353   6.825   7.416  0.8741 -0.1310  0.1414
   45DOPE    HS 5696   3.422   6.843   7.331  3.3101  0.0472  2.0333
   45DOPE   O21 5697   3.381   6.907   7.531 -0.3707  0.1898 -0.6081
   45DOPE   C21 5698   3.421   7.027   7.499 -0.1959  0.9536  0.6190
   45DOPE   O22 5699   3.459   7.066   7.390  0.6224 -0.5624  0.5397
   45DOPE   C22 5700   3.422   7.109   7.626 -0.3671  0.6041  0.4882
   45DOPE   H2R 5701   3.491   7.063   7.700  1.2812  0.2152 -1.2146
   45DOPE   H2S 5702   3.317   7.112   7.661 -0.5301 -0.7153  0.1498
   45DOPE    C3 5703   3.211   6.856   7.368  0.2590 -0.3131 -0.3278
   45DOPE    HX 5704   3.200   6.792   7.278  1.1413  0.3596 -0.9293
   45DOPE    HY 5705   3.209   6.962   7.335 -0.2499 -0.9156 -2.3780
   45DOPE   O31 5706   3.113   6.818   7.469 -0.1253  0.1298  0.2043
   45DOPE   C31 5707   3.063   6.914   7.538 -0.3666 -0.3745  0.1788
   45DOPE   O32 5708   3.087   7.033   7.522  0.3225  0.0521 -0.2119
   45DOPE   C32 5709   2.971   6.864   7.645  0.1734  0.6022  0.3440
   45DOPE   H2X 5710   2.940   6.957   7.697 -0.7152  1.4836 -1.6660
   45DOPE   H2Y 5711   2.886   6.814   7.593  0.2583  0.6255  0.1832
   45DOPE   C23 5712   3.455   7.257   7.606  0.0498 -0.3062  0.2670
   45DOPE   H3R 5713   3.390   7.300   7.527  1.3634 -0.1500 -0.7527
   45DOPE   H3S 5714   3.560   7.269   7.574  0.2717  1.1172  1.4442
   45DOPE   C24 5715   3.420   7.353   7.724  0.6250 -0.4061 -0.4224
   45DOPE   H4R 5716   3.314   7.383   7.711  0.2552 -1.6316 -0.3500
   45DOPE   H4S 5717   3.487   7.441   7.723 -1.3811  1.3605  3.0709
   45DOPE   C25 5718   3.429   7.288   7.862 -0.3294  0.0064  0.4028
   45DOPE   H5R 5719   3.537   7.264   7.875  0.1195  0.8761 -1.3172
   45DOPE   H5S 5720   3.364   7.198   7.865 -0.9594  0.4417  0.1632
   45DOPE   C26 5721   3.399   7.392   7.965 -0.7084 -0.1657  0.4509
   45DOPE   H6R 5722   3.303   7.443   7.943  0.7154  2.0189 -1.0690
   45DOPE   H6S 5723   3.463   7.478   7.937 -0.0981 -1.6997 -3.5631
   45DOPE   C27 5724   3.396   7.357   8.114 -0.0038 -0.0108 -0.7751
   45DOPE   H7R 5725   3.301   7.302   8.125  0.1849 -0.1499  0.3086
   45DOPE   H7S 5726   3.388   7.449   8.177 -0.4607 -1.5753  1.5771
   45DOPE   C28 5727   3.526   7.289   8.171  0.2355 -0.4388  0.2625
   45DOPE   H8R 5728   3.540   7.196   8.112  0.9766 -1.4332  1.9576
   45DOPE   H8S 5729   3.495   7.256   8.272 -1.4498 -0.3302 -0.1800
   45DOPE   C29 5730   3.652   7.373   8.161  0.3249 -0.1254 -0.0916
   45DOPE   H9R 5731   3.663   7.405   8.057  1.5972 -1.6406 -0.4725
   45DOPE  C210 5732   3.721   7.426   8.268 -0.0087 -0.4346  0.0012
   45DOPE  H10R 5733   3.802   7.497   8.243 -0.1234 -0.5096 -0.6147
   45DOPE  C211 5734   3.692   7.404   8.413 -0.2173 -0.0895  0.3024
   45DOPE  H11R 5735   3.670   7.296   8.424  0.4366 -0.6899 -3.0696
   45DOPE  H11S 5736   3.599   7.463   8.427  0.3978  0.6541  1.4096
   45DOPE  C212 5737   3.809   7.447   8.509  0.6684  0.0267  0.1126
   45DOPE  H12R 5738   3.829   7.556   8.496 -2.5976  1.1301  2.8669
   45DOPE  H12S 5739   3.900   7.387   8.490  0.1448 -1.5554  2.3272
   45DOPE  C213 5740   3.771   7.433   8.660 -0.7559  0.7795  0.1597
   45DOPE  H13R 5741   3.847   7.490   8.717  1.4070 -0.7270 -1.0454
   45DOPE  H13S 5742   3.784   7.333   8.706  3.0867  0.4646 -1.1474
   45DOPE  C214 5743   3.629   7.473   8.705 -0.1354  0.2848  0.0423
   45DOPE  H14R 5744   3.548   7.415   8.654 -0.2263 -0.4053  0.9485
   45DOPE  H14S 5745   3.622   7.582   8.685 -0.0151  0.1832 -0.5601
   45DOPE  C215 5746   3.621   7.452   8.856  0.2541 -0.0945  0.7374
   45DOPE  H15R 5747   3.667   7.353   8.879  0.3873 -0.0829  0.5215
   45DOPE  H15S 5748   3.512   7.463   8.871  0.1364 -0.4729  0.1905
   45DOPE  C216 5749   3.694   7.565   8.929 -0.3252  0.5109  0.0990
   45DOPE  H16R 5750   3.647   7.662   8.902  0.2535 -0.2811 -4.6301
   45DOPE  H16S 5751   3.797   7.582   8.891 -0.1032 -0.3991  0.2667
   45DOPE  C217 5752   3.690   7.540   9.084  0.5218 -0.0504  0.3857
   45DOPE  H17R 5753   3.766   7.605   9.131 -0.9636  1.8884  0.2628
   45DOPE  H17S 5754   3.718   7.436   9.110  2.0036  0.7617  2.2449
   45DOPE  C218 5755   3.560   7.574   9.153  0.2275  0.2940 -0.0422
   45DOPE  H18R 5756   3.522   7.676   9.133 -0.1885  0.3596  1.0346
   45DOPE  H18S 5757   3.564   7.571   9.264 -1.2749 -0.8860  0.0173
   45DOPE  H18T 5758   3.478   7.504   9.126 -0.0264  0.5705  0.0189
   45DOPE   C33 5759   3.049   6.770   7.754  0.5103 -0.3787  0.4728
   45DOPE   H3X 5760   3.081   6.679   7.699 -2.1854 -0.0677 -1.8407
   45DOPE   H3Y 5761   2.973   6.733   7.826 -2.9176 -0.7393 -2.9670
   45DOPE   C34 5762   3.151   6.852   7.835  0.8570  0.4987 -0.1225
   45DOPE   H4X 5763   3.232   6.785   7.872  1.3029  1.1308  0.0621
   45DOPE   H4Y 5764   3.212   6.916   7.768  0.9080  0.6127  0.0302
   45DOPE   C35 5765   3.082   6.931   7.942  0.2853  0.4437  0.2948
   45DOPE   H5X 5766   2.972   6.942   7.927  0.3604 -1.0086 -1.6902
   45DOPE   H5Y 5767   3.126   7.033   7.943  0.0094  0.5638  1.2345
   45DOPE   C36 5768   3.085   6.859   8.075  0.5513  0.8240 -0.0784
   45DOPE   H6X 5769   3.035   6.760   8.071 -0.5112  1.3874 -1.4078
   45DOPE   H6Y 5770   3.024   6.911   8.153 -0.7244  0.4581 -0.8054
   45DOPE   C37 5771   3.227   6.838   8.123 -0.1744 -0.0436  0.0388
   45DOPE   H7X 5772   3.254   6.740   8.077 -1.0435  0.0769 -0.7513
   45DOPE   H7Y 5773   3.300   6.915   8.090  1.0003  0.2263  2.9763
   45DOPE   C38 5774   3.248   6.806   8.276 -0.5810 -0.1890  0.4173
   45DOPE   H8X 5775   3.185   6.716   8.297 -1.7276  0.2243 -1.0720
   45DOPE   H8Y 5776   3.192   6.887   8.328 -1.1485 -0.0617 -0.3711
   45DOPE   C39 5777   3.392   6.801   8.317 -0.2215  0.1688 -0.8287
   45DOPE   H9X 5778   3.457   6.717   8.287  2.5374  1.1833  1.7851
   45DOPE  C310 5779   3.459   6.896   8.378  0.1161  0.0413 -0.1717
   45DOPE  H10X 5780   3.556   6.861   8.417 -0.1810 -0.3758  0.1917
   45DOPE  C311 5781   3.409   7.028   8.417 -0.2238 -0.6100 -0.3668
   45DOPE  H11X 5782   3.479   7.114   8.418 -0.9464  0.1139  3.0540
   45DOPE  H11Y 5783   3.333   7.073   8.349  0.2530  0.5452 -0.1677
   45DOPE  C312 5784   3.353   7.024   8.562  0.1211  0.0458 -0.2359
   45DOPE  H12X 5785   3.435   6.996   8.632 -1.6215  1.7899  2.7203
   45DOPE  H12Y 5786   3.275   6.945   8.564 -1.2186  1.3354  1.8985
   45DOPE  C313 5787   3.287   7.151   8.603  0.0238 -0.7100  0.6132
   45DOPE  H13X 5788   3.358   7.234   8.581 -2.6512  1.3912 -0.7350
   45DOPE  H13Y 5789   3.195   7.175   8.545  0.3957  2.5588  1.1790
   45DOPE  C314 5790   3.252   7.161   8.747 -0.1891  0.2470  0.3485
   45DOPE  H14X 5791   3.177   7.085   8.776  1.6546 -1.3668  1.1791
   45DOPE  H14Y 5792   3.214   7.262   8.771 -3.0712 -1.3778  3.2788
   45DOPE  C315 5793   3.384   7.142   8.829  0.3079 -0.2940 -0.3569
   45DOPE  H15X 5794   3.450   7.225   8.797  1.5613 -2.1535 -2.9633
   45DOPE  H15Y 5795   3.431   7.042   8.817  1.6084 -0.0136  1.7637
   45DOPE  C316 5796   3.371   7.165   8.982 -0.4615  0.0564 -0.8378
   45DOPE  H16X 5797   3.292   7.094   9.015  0.0130 -0.0751  0.0348
   45DOPE  H16Y 5798   3.316   7.254   9.021 -2.9246 -1.9132  0.4317
   45DOPE  C317 5799   3.501   7.151   9.051  0.0942 -0.0034  0.3200
   45DOPE  H17X 5800   3.542   7.057   9.009 -0.8971  0.6629 -2.3328
   45DOPE  H17Y 5801   3.565   7.235   9.014 -0.2322 -0.7030 -1.9397
   45DOPE  C318 5802   3.496   7.161   9.208 -0.0326 -0.0288 -0.2132
   45DOPE  H18X 5803   3.602   7.168   9.243  0.5272  0.5099 -1.9085
   45DOPE  H18Y 5804   3.440   7.251   9.242 -1.5381 -0.6143 -1.0597
   45DOPE  H18Z 5805   3.452   7.067   9.247 -0.1681 -0.0110 -0.3268
   46DOPE     N 5806   4.531   5.595   6.719  0.3675 -0.0290  0.3103
   46DOPE   HN1 5807   4.613   5.532   6.705 -0.3543 -1.0013  0.3611
   46DOPE   HN2 5808   4.473   5.590   6.632 -0.6061  0.3796  0.9130
   46DOPE   HN3 5809   4.577   5.688   6.732 -4.5816  2.7030  1.0281
   46DOPE   C12 5810   4.461   5.554   6.837  0.5949  0.8319 -0.1874
   46DOPE  H12A 5811   4.392   5.473   6.807 -1.0937  2.6540 -1.4941
   46DOPE  H12B 5812   4.395   5.637   6.873  0.5857  0.6044  0.3332
   46DOPE   C11 5813   4.559   5.515   6.949  0.1683  0.3554 -0.3525
   46DOPE  H11A 5814   4.610   5.421   6.920  0.8000  1.0528 -1.5699
   46DOPE  H11B 5815   4.503   5.489   7.042  1.4024 -2.2957 -0.2462
   46DOPE     P 5816   4.648   5.720   7.075 -0.2213  0.0234 -0.1917
   46DOPE   O13 5817   4.531   5.812   7.055 -0.8243  0.4016 -0.1893
   46DOPE   O14 5818   4.786   5.778   7.099  0.5959 -0.1062  0.3953
   46DOPE   O11 5819   4.619   5.624   7.202  0.4189  0.6711 -0.5505
   46DOPE   O12 5820   4.661   5.615   6.959 -0.1056 -0.3761  0.3691
   46DOPE    C1 5821   4.591   5.695   7.326  0.2275  0.9180 -0.4361
   46DOPE    HA 5822   4.585   5.805   7.315 -2.0453  0.9706  0.6190
   46DOPE    HB 5823   4.669   5.660   7.397 -1.1727 -0.6079  0.4199
   46DOPE    C2 5824   4.459   5.649   7.401 -0.7791 -0.1522  0.4556
   46DOPE    HS 5825   4.368   5.686   7.349 -2.2498 -4.1850 -0.1610
   46DOPE   O21 5826   4.459   5.714   7.530 -0.2826 -0.6316  0.0851
   46DOPE   C21 5827   4.355   5.690   7.600  0.4769  0.5205 -0.3071
   46DOPE   O22 5828   4.239   5.668   7.554  0.5092  0.0348 -0.2531
   46DOPE   C22 5829   4.386   5.704   7.753 -0.2475 -0.5233 -0.3138
   46DOPE   H2R 5830   4.294   5.680   7.811 -1.4860  2.1837 -1.0319
   46DOPE   H2S 5831   4.398   5.810   7.782 -1.4650 -0.3278 -0.4826
   46DOPE    C3 5832   4.446   5.494   7.404  0.0561 -0.2383 -0.0492
   46DOPE    HX 5833   4.449   5.452   7.301 -2.2333 -0.8544  0.0865
   46DOPE    HY 5834   4.347   5.468   7.446  0.8354 -0.4307  1.7437
   46DOPE   O31 5835   4.546   5.436   7.492  0.3691 -0.3756  0.1259
   46DOPE   C31 5836   4.533   5.308   7.518  0.1228 -0.2502  0.2634
   46DOPE   O32 5837   4.452   5.233   7.466  0.2519 -0.0137 -0.8182
   46DOPE   C32 5838   4.631   5.266   7.627  0.1146  0.2666 -0.0250
   46DOPE   H2X 5839   4.735   5.283   7.592  0.4171 -0.2227  0.6159
   46DOPE   H2Y 5840   4.614   5.327   7.718 -1.4765 -1.8356  1.1585
   46DOPE   C23 5841   4.512   5.623   7.799  0.4823 -0.0371  0.0409
   46DOPE   H3R 5842   4.597   5.675   7.750 -1.5493  1.2614 -2.3620
   46DOPE   H3S 5843   4.521   5.529   7.739  1.2203  1.6665 -2.6934
   46DOPE   C24 5844   4.535   5.609   7.949 -0.1731  1.1490 -0.3555
   46DOPE   H4R 5845   4.480   5.520   7.983 -0.1315  1.0675 -0.5008
   46DOPE   H4S 5846   4.504   5.702   8.001 -0.1415 -0.1850  2.2158
   46DOPE   C25 5847   4.689   5.605   7.992  0.7861  0.3743 -0.2792
   46DOPE   H5R 5848   4.692   5.652   8.093  1.9779 -1.8205  0.7747
   46DOPE   H5S 5849   4.741   5.680   7.929 -0.5575  0.9539 -0.7304
   46DOPE   C26 5850   4.763   5.467   7.999 -0.4259  0.1257  0.3329
   46DOPE   H6R 5851   4.759   5.410   7.904 -1.2909  1.9399 -0.7731
   46DOPE   H6S 5852   4.719   5.393   8.069 -2.4075 -0.4069 -1.3720
   46DOPE   C27 5853   4.904   5.472   8.053  0.0663  0.3220 -0.2322
   46DOPE   H7R 5854   4.954   5.532   7.975 -3.2606 -0.6825 -3.3774
   46DOPE   H7S 5855   4.949   5.370   8.048  0.2029  0.3704 -0.0285
   46DOPE   C28 5856   4.913   5.529   8.196 -0.4157  0.6497 -0.5583
   46DOPE   H8R 5857   4.836   5.481   8.260  0.0740  0.3648 -0.1743
   46DOPE   H8S 5858   4.895   5.638   8.188 -2.3651  0.4711  0.7940
   46DOPE   C29 5859   5.042   5.503   8.275 -0.0050 -0.2964  0.1483
   46DOPE   H9R 5860   5.095   5.410   8.252  1.2704  0.8969 -2.0790
   46DOPE  C210 5861   5.101   5.581   8.363  0.2955 -0.1585 -0.3863
   46DOPE  H10R 5862   5.189   5.536   8.410  0.8116 -1.7077 -2.6986
   46DOPE  C211 5863   5.059   5.722   8.405 -0.2985  0.0848 -0.2428
   46DOPE  H11R 5864   4.952   5.740   8.382 -0.1160  1.1384 -0.3148
   46DOPE  H11S 5865   5.114   5.792   8.339  2.1154 -0.4296  1.0846
   46DOPE  C212 5866   5.086   5.763   8.548  0.4295  1.0714 -0.3144
   46DOPE  H12R 5867   5.007   5.715   8.610  0.2727  0.0035 -1.2960
   46DOPE  H12S 5868   5.068   5.872   8.558 -2.4078  0.6964 -0.5044
   46DOPE  C213 5869   5.227   5.742   8.598  0.3683 -0.2523 -0.0243
   46DOPE  H13R 5870   5.299   5.804   8.541  1.1725 -0.4969  0.7033
   46DOPE  H13S 5871   5.274   5.642   8.590  1.9580  0.6278 -3.8554
   46DOPE  C214 5872   5.228   5.779   8.745 -0.3108 -0.5141 -0.2359
   46DOPE  H14R 5873   5.155   5.714   8.799  0.6583 -2.7529 -1.4793
   46DOPE  H14S 5874   5.193   5.884   8.755 -0.7730 -0.6049 -0.8595
   46DOPE  C215 5875   5.367   5.773   8.815  0.1058 -0.0506 -0.1761
   46DOPE  H15R 5876   5.431   5.852   8.771  1.5994 -0.9551  0.3006
   46DOPE  H15S 5877   5.407   5.673   8.789 -0.7337 -0.2914 -0.5912
   46DOPE  C216 5878   5.360   5.778   8.969  0.0534  0.1755  0.4953
   46DOPE  H16R 5879   5.461   5.765   9.014 -0.2043  1.6972  1.5910
   46DOPE  H16S 5880   5.299   5.691   9.001  1.7723 -1.0300  0.6462
   46DOPE  C217 5881   5.289   5.905   9.020 -0.2530 -0.4440  0.4438
   46DOPE  H17R 5882   5.179   5.903   9.005 -0.1988  2.3192 -0.8668
   46DOPE  H17S 5883   5.323   5.997   8.968  0.3368 -2.4275 -3.0115
   46DOPE  C218 5884   5.303   5.911   9.170 -0.4033  0.4127 -0.6724
   46DOPE  H18R 5885   5.407   5.935   9.199  0.3342 -2.5058 -0.5895
   46DOPE  H18S 5886   5.277   5.815   9.220  0.5807 -0.7391 -2.3126
   46DOPE  H18T 5887   5.243   5.990   9.221 -0.7707 -0.5408  0.4290
   46DOPE   C33 5888   4.621   5.124   7.676 -0.2512 -0.1230  0.5370
   46DOPE   H3X 5889   4.636   5.056   7.590  2.5203 -0.4104  1.1630
   46DOPE   H3Y 5890   4.513   5.116   7.704 -0.9581  0.7350 -1.7300
   46DOPE   C34 5891   4.724   5.083   7.780  0.4926  0.1144  0.6699
   46DOPE   H4X 5892   4.823   5.065   7.733 -0.6458 -2.0109 -1.0991
   46DOPE   H4Y 5893   4.730   5.171   7.847 -1.4684  0.4071  0.5183
   46DOPE   C35 5894   4.666   4.964   7.857  0.4549  0.0755 -0.0948
   46DOPE   H5X 5895   4.654   4.886   7.780  0.5388 -0.2642  0.2321
   46DOPE   H5Y 5896   4.571   4.992   7.907  0.1651 -0.6772 -0.2172
   46DOPE   C36 5897   4.768   4.916   7.956  0.3298 -0.4310 -0.7073
   46DOPE   H6X 5898   4.829   5.002   7.991 -1.2670 -0.6271  2.9765
   46DOPE   H6Y 5899   4.833   4.843   7.904  2.5977 -0.1994  1.6167
   46DOPE   C37 5900   4.702   4.859   8.085  0.4388 -0.5038  0.4392
   46DOPE   H7X 5901   4.627   4.786   8.046  0.8284 -2.0138  2.4032
   46DOPE   H7Y 5902   4.779   4.794   8.131 -0.7985 -2.2841  0.1037
   46DOPE   C38 5903   4.655   4.966   8.178  0.0353  0.2764  1.4844
   46DOPE   H8X 5904   4.570   5.025   8.138  1.0745  1.1238  0.4731
   46DOPE   H8Y 5905   4.736   5.040   8.198  0.3558  0.2891  0.2418
   46DOPE   C39 5906   4.617   4.902   8.311 -0.4885 -0.8363 -0.9174
   46DOPE   H9X 5907   4.533   4.832   8.303  0.4561 -2.1187  0.1460
   46DOPE  C310 5908   4.679   4.925   8.432 -0.3499  0.0275  0.5448
   46DOPE  H10X 5909   4.644   4.868   8.520  0.6388 -3.1317 -0.9423
   46DOPE  C311 5910   4.814   4.988   8.456  0.0561  0.1607 -0.0606
   46DOPE  H11X 5911   4.879   4.907   8.493  1.1365  0.8465 -0.4003
   46DOPE  H11Y 5912   4.861   5.030   8.364  1.0654  1.5985  1.0632
   46DOPE  C312 5913   4.825   5.098   8.566  0.2990 -0.1019 -0.3208
   46DOPE  H12X 5914   4.742   5.173   8.561 -0.5196 -0.9397  0.2857
   46DOPE  H12Y 5915   4.922   5.152   8.562  0.1402  0.2622  0.4798
   46DOPE  C313 5916   4.810   5.033   8.701 -0.1865  0.8056 -0.3482
   46DOPE  H13X 5917   4.704   5.000   8.704  0.3067 -1.2850 -2.3089
   46DOPE  H13Y 5918   4.867   4.938   8.714 -1.3374 -0.3466 -2.8658
   46DOPE  C314 5919   4.829   5.123   8.820  0.2612 -0.3915 -0.2387
   46DOPE  H14X 5920   4.764   5.213   8.815  0.8480 -0.0449 -2.7920
   46DOPE  H14Y 5921   4.933   5.159   8.836 -0.0571  1.1003 -1.3549
   46DOPE  C315 5922   4.783   5.054   8.952 -0.2250  0.2743 -0.4409
   46DOPE  H15X 5923   4.821   4.952   8.932 -0.7423  0.3416 -1.8634
   46DOPE  H15Y 5924   4.673   5.067   8.960 -0.1288  2.8530 -2.0156
   46DOPE  C316 5925   4.864   5.112   9.075  0.0051  0.3091  0.0842
   46DOPE  H16X 5926   4.972   5.087   9.068 -0.4186 -1.8718  0.4544
   46DOPE  H16Y 5927   4.839   5.057   9.168  1.9555 -1.3837 -0.3282
   46DOPE  C317 5928   4.819   5.262   9.088  0.2623 -0.1927 -0.2777
   46DOPE  H17X 5929   4.882   5.317   9.015 -0.0012  1.1719  0.4866
   46DOPE  H17Y 5930   4.712   5.264   9.058 -0.1260  0.6928  1.0803
   46DOPE  C318 5931   4.852   5.315   9.226  0.0722 -0.3992  0.1572
   46DOPE  H18X 5932   4.819   5.421   9.237 -0.1259 -0.6098  1.8306
   46DOPE  H18Y 5933   4.815   5.255   9.312  2.0406 -2.8397 -0.5855
   46DOPE  H18Z 5934   4.962   5.309   9.244  0.0183 -1.1435  0.2793
   47DOPE     N 5935   0.806   5.454   7.118  0.4632  0.7529  1.0191
   47DOPE   HN1 5936   0.813   5.392   7.201 -1.4726  0.0310  0.6984
   47DOPE   HN2 5937   0.904   5.464   7.085  0.4347 -0.1687  0.6400
   47DOPE   HN3 5938   0.776   5.551   7.143  1.1111  0.9395  1.0881
   47DOPE   C12 5939   0.710   5.404   7.014  0.4303 -0.7073 -0.6107
   47DOPE  H12A 5940   0.747   5.319   6.953 -1.5148 -0.8795 -1.6612
   47DOPE  H12B 5941   0.675   5.488   6.949 -0.7810 -0.7919 -0.1071
   47DOPE   C11 5942   0.575   5.353   7.083 -0.2144 -0.1395 -0.1713
   47DOPE  H11A 5943   0.507   5.300   7.013  0.6717 -0.0566 -1.1245
   47DOPE  H11B 5944   0.515   5.439   7.120  0.8394 -0.0997  1.5509
   47DOPE     P 5945   0.484   5.186   7.271 -0.1269 -0.3367 -0.5905
   47DOPE   O13 5946   0.436   5.072   7.195 -0.1758 -0.0227 -0.1111
   47DOPE   O14 5947   0.379   5.282   7.305  0.2678 -0.0086 -0.0532
   47DOPE   O11 5948   0.551   5.136   7.408  0.3150 -0.5485  0.3684
   47DOPE   O12 5949   0.609   5.266   7.193  0.6882  0.0830  0.3659
   47DOPE    C1 5950   0.679   5.187   7.435 -0.5381  0.4125 -0.2099
   47DOPE    HA 5951   0.678   5.298   7.442  1.6586  0.4479  0.0732
   47DOPE    HB 5952   0.750   5.162   7.353 -1.3770 -1.4147 -0.4407
   47DOPE    C2 5953   0.741   5.126   7.569 -0.4902 -0.1920  0.0667
   47DOPE    HS 5954   0.766   5.018   7.560 -1.0622 -0.4114  0.9648
   47DOPE   O21 5955   0.659   5.149   7.681  0.4255 -0.0574 -0.7628
   47DOPE   C21 5956   0.582   5.056   7.720 -0.1450  0.4445  0.2240
   47DOPE   O22 5957   0.592   4.935   7.690  0.1296  0.0582  0.4601
   47DOPE   C22 5958   0.480   5.105   7.824  0.5147  0.2526 -0.2927
   47DOPE   H2R 5959   0.395   5.145   7.764  0.7312 -0.5582 -1.1560
   47DOPE   H2S 5960   0.520   5.188   7.886 -0.0420  0.7980 -0.6503
   47DOPE    C3 5961   0.886   5.194   7.595  0.6827 -0.3704 -0.1995
   47DOPE    HX 5962   0.867   5.304   7.594  0.6837 -0.2871  2.1000
   47DOPE    HY 5963   0.948   5.173   7.506 -1.0678  2.7523 -2.3773
   47DOPE   O31 5964   0.952   5.171   7.722 -0.0786  0.1593  0.4678
   47DOPE   C31 5965   0.985   5.045   7.749 -0.5215 -0.1294  0.4060
   47DOPE   O32 5966   0.995   4.955   7.669 -0.4912  0.4147  0.2322
   47DOPE   C32 5967   1.016   5.035   7.895 -0.1671  0.8494  0.7759
   47DOPE   H2X 5968   1.118   5.076   7.908 -0.6187  1.9934  0.8381
   47DOPE   H2Y 5969   0.955   5.106   7.954  1.5146  0.0474  3.6438
   47DOPE   C23 5970   0.429   4.996   7.914 -0.0222 -0.1624 -0.3693
   47DOPE   H3R 5971   0.504   4.924   7.954  0.5243  1.5695  1.9711
   47DOPE   H3S 5972   0.356   4.937   7.856 -0.6275 -0.9443  1.1261
   47DOPE   C24 5973   0.336   5.046   8.032 -0.4421 -0.4797 -0.7069
   47DOPE   H4R 5974   0.284   5.138   7.999 -1.4529  0.0906  2.2236
   47DOPE   H4S 5975   0.402   5.062   8.120 -1.5564 -0.7314  0.1924
   47DOPE   C25 5976   0.235   4.932   8.061  0.0257 -0.6153 -0.3529
   47DOPE   H5R 5977   0.292   4.839   8.087  0.4091 -0.2101  0.2924
   47DOPE   H5S 5978   0.172   4.906   7.974 -0.0004  2.3078 -1.2997
   47DOPE   C26 5979   0.133   4.970   8.175  0.2785  0.4467  0.5026
   47DOPE   H6R 5980   0.091   5.071   8.157 -0.7416  0.2452  1.5814
   47DOPE   H6S 5981   0.193   4.976   8.268  0.0204  0.1501  0.6939
   47DOPE   C27 5982   0.031   4.865   8.209 -0.2655  0.0373  0.4236
   47DOPE   H7R 5983   0.090   4.770   8.209 -2.0252 -1.0985  0.3916
   47DOPE   H7S 5984  -0.048   4.863   8.132  1.6933  0.7579 -1.7332
   47DOPE   C28 5985  -0.030   4.885   8.351  0.5604 -0.0984  0.1383
   47DOPE   H8R 5986  -0.075   4.987   8.349 -0.5657 -0.5724 -1.6120
   47DOPE   H8S 5987   0.054   4.877   8.422 -0.2321 -1.5505  0.9668
   47DOPE   C29 5988  -0.141   4.786   8.377  0.2896 -0.2451  0.3182
   47DOPE   H9R 5989  -0.229   4.804   8.312 -0.2743  0.2063  1.1886
   47DOPE  C210 5990  -0.146   4.693   8.470 -0.1746  0.4570 -0.3449
   47DOPE  H10R 5991  -0.239   4.637   8.487 -0.5188  1.2308  0.3919
   47DOPE  C211 5992  -0.036   4.659   8.570 -0.1306 -0.0425  0.1364
   47DOPE  H11R 5993  -0.053   4.697   8.673  0.3006 -0.3770  0.3362
   47DOPE  H11S 5994   0.057   4.714   8.542 -1.6666  1.5901 -2.0933
   47DOPE  C212 5995  -0.003   4.504   8.556  0.3574 -0.3352  0.5622
   47DOPE  H12R 5996   0.104   4.496   8.584  0.2205 -0.6227  0.9991
   47DOPE  H12S 5997  -0.015   4.484   8.447 -0.5459  0.5082  0.4829
   47DOPE  C213 5998  -0.089   4.402   8.639  0.2934 -0.4723  0.0656
   47DOPE  H13R 5999  -0.196   4.402   8.611  0.0601  1.1508  0.7977
   47DOPE  H13S 6000  -0.083   4.438   8.744  1.1583  0.3491 -0.2456
   47DOPE  C214 6001  -0.038   4.255   8.631 -0.2630 -0.2195 -0.0010
   47DOPE  H14R 6002  -0.061   4.200   8.537 -1.2865 -0.3127  0.2895
   47DOPE  H14S 6003  -0.099   4.196   8.704  1.0029 -0.2004  1.1124
   47DOPE  C215 6004   0.114   4.236   8.667 -0.5801  0.8490 -0.3748
   47DOPE  H15R 6005   0.175   4.288   8.591  0.5131 -0.2240 -0.2699
   47DOPE  H15S 6006   0.140   4.128   8.672 -1.7707  0.5583 -0.1402
   47DOPE  C216 6007   0.154   4.298   8.803 -0.3788  0.1284  1.0003
   47DOPE  H16R 6008   0.070   4.316   8.873  0.4121  0.9719  1.7714
   47DOPE  H16S 6009   0.199   4.398   8.780 -1.2325  0.0415 -1.2869
   47DOPE  C217 6010   0.252   4.212   8.884 -0.4353 -0.4506  0.5831
   47DOPE  H17R 6011   0.355   4.220   8.844 -0.1741  2.9113  1.6306
   47DOPE  H17S 6012   0.208   4.110   8.873 -0.3865 -0.2243 -2.2110
   47DOPE  C218 6013   0.251   4.238   9.033  0.4048 -0.1172 -0.6198
   47DOPE  H18R 6014   0.295   4.338   9.055 -0.1296  0.0769 -0.3960
   47DOPE  H18S 6015   0.304   4.156   9.085 -0.4470 -0.8715 -0.9111
   47DOPE  H18T 6016   0.147   4.239   9.074 -0.1877 -1.4014 -1.9882
   47DOPE   C33 6017   0.996   4.901   7.966 -0.1162 -0.3293 -0.1424
   47DOPE   H3X 6018   1.051   4.905   8.063  0.6345 -2.2943 -0.4231
   47DOPE   H3Y 6019   1.033   4.819   7.901 -1.9468 -0.7887 -0.6585
   47DOPE   C34 6020   0.845   4.861   8.006 -0.3043 -0.1095 -0.1795
   47DOPE   H4X 6021   0.809   4.938   8.078 -0.7630 -0.9347  0.4874
   47DOPE   H4Y 6022   0.775   4.859   7.920  0.8513  1.3445 -1.2100
   47DOPE   C35 6023   0.842   4.727   8.085 -0.9965 -0.4032  0.2609
   47DOPE   H5X 6024   0.903   4.735   8.178 -1.0439 -0.8734  0.3309
   47DOPE   H5Y 6025   0.894   4.647   8.028  1.4080  1.3660 -0.2105
   47DOPE   C36 6026   0.705   4.679   8.133  0.2947  0.9427  0.0439
   47DOPE   H6X 6027   0.719   4.587   8.193  2.8597  0.5382 -1.0340
   47DOPE   H6Y 6028   0.643   4.670   8.042  1.0124  0.7154 -0.4318
   47DOPE   C37 6029   0.630   4.785   8.219  0.0700  0.8075  0.1078
   47DOPE   H7X 6030   0.706   4.844   8.274  0.5720  0.0046  0.3066
   47DOPE   H7Y 6031   0.587   4.861   8.150 -0.5488  1.5873  1.3125
   47DOPE   C38 6032   0.522   4.725   8.311  0.3929 -0.1911  0.0556
   47DOPE   H8X 6033   0.573   4.645   8.368 -2.0801 -2.2555 -0.4508
   47DOPE   H8Y 6034   0.445   4.662   8.262 -1.1808  0.5256  1.5043
   47DOPE   C39 6035   0.455   4.834   8.398 -0.1408 -0.2382  0.8133
   47DOPE   H9X 6036   0.461   4.935   8.354  0.5137 -1.0784 -1.1331
   47DOPE  C310 6037   0.393   4.829   8.519 -0.5129  0.0575 -0.4286
   47DOPE  H10X 6038   0.375   4.918   8.580  2.7475 -0.8082  2.1286
   47DOPE  C311 6039   0.382   4.700   8.600 -0.2308 -0.2160 -1.1452
   47DOPE  H11X 6040   0.276   4.682   8.628  0.3788 -2.7619 -0.1732
   47DOPE  H11Y 6041   0.413   4.613   8.537  0.7087  0.6761 -1.9616
   47DOPE  C312 6042   0.473   4.707   8.720 -0.3202  0.1663 -1.0641
   47DOPE  H12X 6043   0.430   4.778   8.794 -0.0162 -1.2113  0.5048
   47DOPE  H12Y 6044   0.571   4.752   8.695 -0.3347 -0.3522 -2.1053
   47DOPE  C313 6045   0.480   4.567   8.788 -0.1037  0.0457 -0.2179
   47DOPE  H13X 6046   0.377   4.526   8.777 -0.4509  0.7148  0.3771
   47DOPE  H13Y 6047   0.552   4.504   8.732  0.1565 -0.8557  1.0953
   47DOPE  C314 6048   0.545   4.567   8.928  0.1850  0.6824 -0.1530
   47DOPE  H14X 6049   0.482   4.621   9.001 -0.8578  0.6311 -0.9907
   47DOPE  H14Y 6050   0.641   4.622   8.918 -0.3935  1.3941 -2.4309
   47DOPE  C315 6051   0.573   4.428   8.982 -0.4317  0.3445  0.0453
   47DOPE  H15X 6052   0.646   4.385   8.910  1.4028  5.7093 -1.8477
   47DOPE  H15Y 6053   0.485   4.362   8.998 -1.1087  1.1739 -0.1189
   47DOPE  C316 6054   0.630   4.438   9.123 -0.4539  0.3859 -0.5963
   47DOPE  H16X 6055   0.561   4.476   9.201 -0.7730 -1.6482  0.1817
   47DOPE  H16Y 6056   0.715   4.509   9.111 -0.4555  0.2170 -1.7314
   47DOPE  C317 6057   0.698   4.309   9.178  0.2478  0.3409  0.1391
   47DOPE  H17X 6058   0.792   4.282   9.125  0.2381 -2.9300  1.5709
   47DOPE  H17Y 6059   0.729   4.331   9.283 -1.5002 -0.6094  0.8990
   47DOPE  C318 6060   0.616   4.183   9.178 -0.1002 -0.1046  0.0491
   47DOPE  H18X 6061   0.517   4.186   9.227  0.5006 -2.8029  1.6474
   47DOPE  H18Y 6062   0.604   4.148   9.073  1.3597 -1.9058  0.4382
   47DOPE  H18Z 6063   0.664   4.099   9.232 -0.6755 -0.1280  0.5329
   48DOPE     N 6064   5.653   1.049   7.080 -0.6298 -0.2045  0.2029
   48DOPE   HN1 6065   5.621   1.100   7.164  1.6086  0.3883  0.7417
   48DOPE   HN2 6066   5.588   1.071   7.001 -0.8895 -0.3950  0.3630
   48DOPE   HN3 6067   5.635   0.949   7.102 -2.8326  0.3804  1.3607
   48DOPE   C12 6068   5.793   1.069   7.050  0.0355 -0.1760  0.1071
   48DOPE  H12A 6069   5.817   1.177   7.054 -0.9155  0.0491 -0.1385
   48DOPE  H12B 6070   5.819   1.024   6.952  2.3300 -1.3971  1.2004
   48DOPE   C11 6071   5.884   1.008   7.167 -0.6676  0.2518  0.3717
   48DOPE  H11A 6072   5.985   1.049   7.145 -0.4674 -0.0987  0.6323
   48DOPE  H11B 6073   5.872   0.899   7.150  1.2609  0.2027 -1.0005
   48DOPE     P 6074   5.921   1.127   7.403 -0.3408 -0.6230 -0.2312
   48DOPE   O13 6075   5.831   1.180   7.508  0.5359 -0.0663  0.2112
   48DOPE   O14 6076   6.007   1.231   7.338 -0.1183  0.1535 -0.1773
   48DOPE   O11 6077   6.020   1.020   7.466 -0.1137 -0.5319 -0.5784
   48DOPE   O12 6078   5.835   1.046   7.296 -1.2377 -0.2266 -0.1308
   48DOPE    C1 6079   5.986   0.895   7.513  0.5943  0.3391  0.1868
   48DOPE    HA 6080   6.041   0.817   7.456 -2.5069 -1.6142 -0.4010
   48DOPE    HB 6081   5.883   0.868   7.480  0.8622 -0.3187 -0.1436
   48DOPE    C2 6082   5.987   0.880   7.668 -0.1242 -0.3768 -0.7134
   48DOPE    HS 6083   6.095   0.877   7.692 -0.5098 -4.0882  1.4151
   48DOPE   O21 6084   5.917   0.763   7.701 -0.2802  0.0859 -0.1544
   48DOPE   C21 6085   5.970   0.702   7.803  0.2840  0.2225 -0.6640
   48DOPE   O22 6086   6.075   0.735   7.859  0.0867 -0.0244 -0.5921
   48DOPE   C22 6087   5.882   0.588   7.853  0.1327  0.4370 -0.1790
   48DOPE   H2R 6088   5.942   0.495   7.858 -0.2782  0.1075 -1.1873
   48DOPE   H2S 6089   5.815   0.560   7.770 -1.7375  1.2678  0.9633
   48DOPE    C3 6090   5.919   1.003   7.746  0.4093  0.2301  0.4356
   48DOPE    HX 6091   5.813   1.002   7.714 -0.1570 -2.3112  2.0460
   48DOPE    HY 6092   5.970   1.098   7.718 -0.8043  0.7277 -0.1628
   48DOPE   O31 6093   5.917   0.982   7.887 -0.0978 -0.1672  0.1914
   48DOPE   C31 6094   6.030   1.005   7.948  0.1049  0.3484  0.2555
   48DOPE   O32 6095   6.130   1.056   7.898  0.7597  0.5783  0.1209
   48DOPE   C32 6096   6.025   0.965   8.092  0.6934 -0.7454  0.2102
   48DOPE   H2X 6097   5.976   1.055   8.137 -0.1743 -0.2039 -1.6833
   48DOPE   H2Y 6098   5.957   0.877   8.098 -1.1293  0.5347 -0.4984
   48DOPE   C23 6099   5.808   0.606   7.986 -0.6351 -0.1940  0.2133
   48DOPE   H3R 6100   5.870   0.648   8.067  1.0115 -0.3971 -0.9047
   48DOPE   H3S 6101   5.759   0.511   8.020 -1.5506 -0.1098 -0.7846
   48DOPE   C24 6102   5.698   0.709   7.976  0.2629  0.4339  0.4099
   48DOPE   H4R 6103   5.630   0.678   7.894 -0.7757  0.6884  1.1540
   48DOPE   H4S 6104   5.745   0.809   7.961  0.0005  0.3961 -0.7791
   48DOPE   C25 6105   5.620   0.702   8.106  0.5731  0.0132 -0.2048
   48DOPE   H5R 6106   5.695   0.705   8.188 -0.5737 -0.8601  0.9189
   48DOPE   H5S 6107   5.571   0.603   8.119  0.4556  0.2446  1.2484
   48DOPE   C26 6108   5.508   0.805   8.104  0.6928 -0.4359 -0.4107
   48DOPE   H6R 6109   5.463   0.794   8.003 -2.1760 -0.2993  0.7484
   48DOPE   H6S 6110   5.557   0.903   8.120  0.1747 -0.0644 -1.0547
   48DOPE   C27 6111   5.404   0.780   8.213  0.5641  1.1518  0.0868
   48DOPE   H7R 6112   5.427   0.757   8.319 -1.5238 -2.9898 -0.1534
   48DOPE   H7S 6113   5.356   0.682   8.191 -1.0254  1.7994  0.5028
   48DOPE   C28 6114   5.286   0.889   8.224 -0.2186 -1.0929 -0.2011
   48DOPE   H8R 6115   5.339   0.986   8.229 -2.3917  0.3486 -2.7033
   48DOPE   H8S 6116   5.229   0.876   8.318 -0.8024  0.2910 -0.3493
   48DOPE   C29 6117   5.190   0.903   8.109  0.1354  0.4986 -0.4972
   48DOPE   H9R 6118   5.208   0.837   8.022  0.6558 -2.0907  1.4321
   48DOPE  C210 6119   5.070   0.963   8.106 -0.3683  0.4656  0.6856
   48DOPE  H10R 6120   5.012   0.964   8.013  1.3815  0.2474 -0.4737
   48DOPE  C211 6121   5.020   1.048   8.218 -0.4537 -0.1699  0.4638
   48DOPE  H11R 6122   5.097   1.071   8.295  1.9570 -2.1120 -1.1644
   48DOPE  H11S 6123   4.938   0.993   8.270  1.3176 -2.8856  0.6291
   48DOPE  C212 6124   4.970   1.192   8.185 -0.3590 -0.0352 -0.2300
   48DOPE  H12R 6125   4.899   1.192   8.100  1.2412 -2.3528 -1.6704
   48DOPE  H12S 6126   5.061   1.248   8.156  0.0067 -2.4385 -4.5380
   48DOPE  C213 6127   4.902   1.246   8.307  0.4791 -0.6929  0.2809
   48DOPE  H13R 6128   4.981   1.284   8.375  0.4416  0.0761 -0.0936
   48DOPE  H13S 6129   4.845   1.167   8.361  1.4710  0.2857  2.9026
   48DOPE  C214 6130   4.812   1.365   8.282  0.7231 -0.0248  0.2663
   48DOPE  H14R 6131   4.726   1.329   8.222 -1.0213  1.2956  1.8461
   48DOPE  H14S 6132   4.871   1.444   8.231  1.6093 -1.8186 -1.6268
   48DOPE  C215 6133   4.763   1.417   8.415  0.8513 -0.1018  0.8738
   48DOPE  H15R 6134   4.694   1.501   8.389  0.7682  0.1620  1.8887
   48DOPE  H15S 6135   4.847   1.455   8.477  1.6340  0.2854 -0.4031
   48DOPE  C216 6136   4.663   1.311   8.475  0.5634 -0.4230  0.1439
   48DOPE  H16R 6137   4.711   1.213   8.496  0.4193 -0.6934 -0.7486
   48DOPE  H16S 6138   4.581   1.296   8.401 -1.5507 -1.0611  2.4492
   48DOPE  C217 6139   4.590   1.357   8.607 -0.1619  0.2007  0.4035
   48DOPE  H17R 6140   4.518   1.277   8.634 -0.0833  0.4413  1.3495
   48DOPE  H17S 6141   4.528   1.445   8.577  1.1137  0.8556 -0.4189
   48DOPE  C218 6142   4.674   1.382   8.730 -0.2829 -0.0807 -0.5631
   48DOPE  H18R 6143   4.734   1.475   8.727 -2.4966  1.5004  0.9797
   48DOPE  H18S 6144   4.733   1.291   8.756 -0.3655  0.1285  0.3790
   48DOPE  H18T 6145   4.604   1.393   8.816  2.1682 -0.1115  1.5541
   48DOPE   C33 6146   6.166   0.934   8.141 -0.1481 -0.7334  0.6997
   48DOPE   H3X 6147   6.224   1.029   8.136 -0.7451 -0.3736  0.5871
   48DOPE   H3Y 6148   6.208   0.852   8.079  0.5120 -0.3918  0.6894
   48DOPE   C34 6149   6.163   0.883   8.286 -0.2486 -0.1684  0.9528
   48DOPE   H4X 6150   6.263   0.874   8.333  0.2616 -0.9390 -0.2372
   48DOPE   H4Y 6151   6.105   0.959   8.344  0.4462 -1.3619  3.3212
   48DOPE   C35 6152   6.096   0.749   8.315  0.6664  0.3309 -0.0036
   48DOPE   H5X 6153   6.163   0.662   8.299  1.1350  0.7335 -0.2689
   48DOPE   H5Y 6154   6.009   0.740   8.246  0.6395 -0.8766  0.1670
   48DOPE   C36 6155   6.027   0.741   8.453 -0.4045  0.5373  0.0322
   48DOPE   H6X 6156   5.971   0.648   8.478 -1.2655  1.6276  2.5026
   48DOPE   H6Y 6157   5.952   0.823   8.448  0.9894  1.8437 -0.1030
   48DOPE   C37 6158   6.132   0.762   8.566  0.1476  0.1594  0.7022
   48DOPE   H7X 6159   6.194   0.673   8.586  0.7714 -0.1346 -2.1944
   48DOPE   H7Y 6160   6.193   0.853   8.546 -0.7032  0.6981  0.4656
   48DOPE   C38 6161   6.075   0.788   8.706  0.2148 -0.3837 -0.0490
   48DOPE   H8X 6162   6.010   0.699   8.721 -0.3248 -0.1090 -0.6936
   48DOPE   H8Y 6163   6.005   0.873   8.696 -1.1498 -1.4939 -0.2499
   48DOPE   C39 6164   6.194   0.795   8.800 -0.3741  0.3521 -0.1313
   48DOPE   H9X 6165   6.264   0.710   8.804 -2.1557 -1.1680  0.1295
   48DOPE  C310 6166   6.229   0.897   8.872 -0.3342 -0.0978 -0.0836
   48DOPE  H10X 6167   6.319   0.886   8.935  0.0582  0.1921 -0.5921
   48DOPE  C311 6168   6.177   1.039   8.876  1.0256  0.3552 -0.6612
   48DOPE  H11X 6169   6.078   1.051   8.827  0.4437  0.4085  0.4952
   48DOPE  H11Y 6170   6.168   1.087   8.976  0.5394 -2.1745  0.5964
   48DOPE  C312 6171   6.266   1.125   8.787 -0.4862 -0.7713 -0.3297
   48DOPE  H12X 6172   6.373   1.102   8.807 -0.6941 -1.2901  0.1958
   48DOPE  H12Y 6173   6.252   1.232   8.813  0.9911 -0.6393  0.0161
   48DOPE  C313 6174   6.234   1.127   8.629  0.3219  0.0212 -0.5904
   48DOPE  H13X 6175   6.311   1.065   8.578 -1.0428 -0.7453 -1.7778
   48DOPE  H13Y 6176   6.133   1.080   8.621  0.7431 -1.5225  1.7521
   48DOPE  C314 6177   6.245   1.267   8.560  0.4668 -0.2722  0.7394
   48DOPE  H14X 6178   6.273   1.260   8.453 -1.5537  4.0756 -0.2871
   48DOPE  H14Y 6179   6.335   1.313   8.606  0.2786  0.1590  0.6807
   48DOPE  C315 6180   6.134   1.372   8.582  0.2049  0.3115  0.7034
   48DOPE  H15X 6181   6.102   1.370   8.688  1.0708 -2.0678  0.9903
   48DOPE  H15Y 6182   6.043   1.334   8.530  1.0732 -2.5478  1.0597
   48DOPE  C316 6183   6.171   1.517   8.537  0.0617 -0.7227 -0.2247
   48DOPE  H16X 6184   6.192   1.522   8.428 -1.8360 -1.2379 -0.6534
   48DOPE  H16Y 6185   6.261   1.556   8.589  0.1866 -2.0865  0.6119
   48DOPE  C317 6186   6.057   1.606   8.570 -0.5231 -0.1435 -0.1463
   48DOPE  H17X 6187   5.963   1.556   8.536 -1.1491  1.9444 -1.6729
   48DOPE  H17Y 6188   6.057   1.623   8.680 -1.9465 -1.7856  0.1617
   48DOPE  C318 6189   6.049   1.747   8.507  0.7570 -0.5230 -0.2376
   48DOPE  H18X 6190   5.994   1.749   8.411 -1.4791 -1.8002  0.9470
   48DOPE  H18Y 6191   5.995   1.825   8.566  2.0956  1.2834 -1.2782
   48DOPE  H18Z 6192   6.147   1.799   8.498 -0.5700  2.4408  1.0904
   49DOPE     N 6193   0.491   5.851   6.754 -0.1904 -0.3172 -0.8243
   49DOPE   HN1 6194   0.410   5.864   6.689  0.3190  2.2226 -1.0357
   49DOPE   HN2 6195   0.581   5.818   6.713  0.6980  0.1422  0.6840
   49DOPE   HN3 6196   0.462   5.798   6.838 -2.9302 -0.7234 -1.9017
   49DOPE   C12 6197   0.501   5.990   6.817 -0.1353 -0.0670 -0.3986
   49DOPE  H12A 6198   0.415   6.004   6.886 -0.6415  2.3893 -1.4393
   49DOPE  H12B 6199   0.488   6.058   6.731  1.3755 -2.7457 -2.9263
   49DOPE   C11 6200   0.627   6.014   6.899 -0.1993  0.0477 -0.0144
   49DOPE  H11A 6201   0.617   6.112   6.951  1.3847 -0.5335  1.4869
   49DOPE  H11B 6202   0.717   6.011   6.834 -0.9458 -1.0983 -1.0499
   49DOPE     P 6203   0.745   5.805   7.001 -0.2187 -0.0525  0.0332
   49DOPE   O13 6204   0.746   5.749   6.860 -0.3413 -0.2827 -0.2262
   49DOPE   O14 6205   0.728   5.711   7.111 -1.0193  0.2640 -0.2126
   49DOPE   O11 6206   0.874   5.888   7.023  0.2463 -0.2707 -0.2185
   49DOPE   O12 6207   0.641   5.926   7.006  0.1290  0.9962 -0.5475
   49DOPE    C1 6208   0.903   5.981   7.131 -0.6249 -0.2441 -0.5431
   49DOPE    HA 6209   0.814   5.997   7.195 -0.1354 -0.0562  0.1077
   49DOPE    HB 6210   0.950   6.076   7.097  0.1550 -0.0156  1.0844
   49DOPE    C2 6211   0.995   5.910   7.233 -0.3001 -1.1074 -0.2267
   49DOPE    HS 6212   0.967   5.803   7.238  3.0596 -2.0542  0.6295
   49DOPE   O21 6213   0.977   5.986   7.357  0.4880  0.4880 -0.0439
   49DOPE   C21 6214   0.992   5.918   7.465 -0.0159  1.1169 -0.0432
   49DOPE   O22 6215   0.999   5.796   7.472 -0.0639 -0.1669 -0.4449
   49DOPE   C22 6216   1.008   6.011   7.582  0.1736  0.0137 -0.5128
   49DOPE   H2R 6217   0.954   6.105   7.558  1.8202  0.9456 -0.6841
   49DOPE   H2S 6218   1.115   6.039   7.594  1.2821 -3.0462 -2.0429
   49DOPE    C3 6219   1.147   5.905   7.191  0.4185  0.0657  0.2294
   49DOPE    HX 6220   1.194   6.004   7.209 -1.1684  0.8448  0.3272
   49DOPE    HY 6221   1.147   5.889   7.081  0.6686  1.6410 -0.0211
   49DOPE   O31 6222   1.223   5.803   7.255 -0.5974  0.0248 -0.2488
   49DOPE   C31 6223   1.199   5.675   7.208  0.6115 -0.4381 -0.4021
   49DOPE   O32 6224   1.116   5.642   7.124  0.2097  0.2053  0.1642
   49DOPE   C32 6225   1.303   5.580   7.274 -0.8966 -0.0123 -0.6191
   49DOPE   H2X 6226   1.338   5.509   7.197 -0.7489  0.1331 -0.6871
   49DOPE   H2Y 6227   1.393   5.638   7.303 -2.1487  2.1230 -0.7668
   49DOPE   C23 6228   0.961   5.950   7.725  0.1807 -0.0223  0.2387
   49DOPE   H3R 6229   1.029   5.864   7.741 -1.4265 -1.2867  0.6171
   49DOPE   H3S 6230   0.856   5.914   7.711  0.0764 -0.3828  1.7904
   49DOPE   C24 6231   0.975   6.049   7.839 -0.3547 -0.2759 -0.2005
   49DOPE   H4R 6232   0.922   6.141   7.810  0.8753  0.5262 -0.0057
   49DOPE   H4S 6233   1.083   6.074   7.849 -0.0997 -1.1190 -0.7968
   49DOPE   C25 6234   0.906   5.996   7.964  0.0975  0.4602  0.3234
   49DOPE   H5R 6235   0.942   5.894   7.984  1.1945  0.5451 -1.1037
   49DOPE   H5S 6236   0.797   5.995   7.940 -0.1703 -0.1345  1.4889
   49DOPE   C26 6237   0.920   6.078   8.087 -0.4114 -0.3294 -0.3452
   49DOPE   H6R 6238   0.938   6.182   8.052  0.5822 -0.5975 -0.6703
   49DOPE   H6S 6239   1.011   6.031   8.128  1.0309  1.5548 -1.2005
   49DOPE   C27 6240   0.794   6.066   8.187 -0.5121  0.5290  0.1436
   49DOPE   H7R 6241   0.768   5.959   8.178  0.3867  0.3008  0.1408
   49DOPE   H7S 6242   0.711   6.128   8.147  1.4260  4.2102  1.3491
   49DOPE   C28 6243   0.828   6.095   8.333  0.4345  0.4518 -0.2553
   49DOPE   H8R 6244   0.925   6.049   8.359  1.5068  0.7044 -3.3388
   49DOPE   H8S 6245   0.750   6.049   8.397 -0.1910  0.0138 -1.2912
   49DOPE   C29 6246   0.831   6.238   8.374 -0.3877 -0.3330 -0.1997
   49DOPE   H9R 6247   0.860   6.307   8.293 -1.5417 -0.9737 -1.1921
   49DOPE  C210 6248   0.769   6.300   8.471  0.9315 -0.0150 -0.3346
   49DOPE  H10R 6249   0.777   6.409   8.480  1.1547 -0.1174  0.8710
   49DOPE  C211 6250   0.696   6.235   8.583 -0.0898  0.1251 -0.3715
   49DOPE  H11R 6251   0.739   6.268   8.679 -1.1843  0.3931  0.0356
   49DOPE  H11S 6252   0.704   6.124   8.575  1.3043  0.0918  1.1543
   49DOPE  C212 6253   0.553   6.282   8.574  0.1132 -0.1886  0.0792
   49DOPE  H12R 6254   0.489   6.224   8.504 -0.5629  1.1746 -0.4956
   49DOPE  H12S 6255   0.556   6.384   8.529  2.1397 -0.3523 -0.2328
   49DOPE  C213 6256   0.482   6.278   8.709  0.5158  0.5659 -0.6203
   49DOPE  H13R 6257   0.374   6.266   8.690  0.8144 -1.1308 -1.4239
   49DOPE  H13S 6258   0.504   6.369   8.768 -1.5033 -0.4245  1.8468
   49DOPE  C214 6259   0.500   6.157   8.799 -0.5386  0.1811  0.3150
   49DOPE  H14R 6260   0.604   6.140   8.834 -1.0025 -0.2091  1.5230
   49DOPE  H14S 6261   0.482   6.069   8.733 -1.0336  1.5093 -1.4174
   49DOPE  C215 6262   0.406   6.161   8.916 -0.1208 -0.4045 -0.5503
   49DOPE  H15R 6263   0.407   6.060   8.963  1.4229 -0.7841 -1.3216
   49DOPE  H15S 6264   0.309   6.194   8.874 -0.0207  0.9325  0.1914
   49DOPE  C216 6265   0.431   6.268   9.025 -0.0294 -0.2702 -0.1379
   49DOPE  H16R 6266   0.340   6.310   9.072 -0.0366  0.3177 -0.6574
   49DOPE  H16S 6267   0.476   6.351   8.966  0.8002 -0.5215  0.1276
   49DOPE  C217 6268   0.527   6.204   9.137 -0.2759 -0.7047 -0.6278
   49DOPE  H17R 6269   0.626   6.180   9.093  1.4244  2.8755  0.8370
   49DOPE  H17S 6270   0.491   6.108   9.180  1.9414 -1.8988 -1.2607
   49DOPE  C218 6271   0.573   6.304   9.244 -0.2200 -0.3285  0.5285
   49DOPE  H18R 6272   0.677   6.287   9.276  0.9679  0.4957 -2.5490
   49DOPE  H18S 6273   0.509   6.305   9.335  0.4846  1.1783  1.0400
   49DOPE  H18T 6274   0.573   6.404   9.196  0.9599 -0.3558  0.4450
   49DOPE   C33 6275   1.247   5.496   7.387  0.3416 -0.0297 -0.7013
   49DOPE   H3X 6276   1.299   5.399   7.396 -2.7369 -1.8860 -1.2587
   49DOPE   H3Y 6277   1.141   5.473   7.360  0.6395  0.9985 -3.0848
   49DOPE   C34 6278   1.264   5.566   7.524  0.7780 -0.2204  0.5019
   49DOPE   H4X 6279   1.368   5.560   7.561 -0.0794  0.4189  3.2579
   49DOPE   H4Y 6280   1.237   5.674   7.519  1.3356 -0.1201 -1.0788
   49DOPE   C35 6281   1.175   5.487   7.619 -0.2466  0.0083 -0.1740
   49DOPE   H5X 6282   1.190   5.377   7.626 -2.8491 -0.5548 -2.0268
   49DOPE   H5Y 6283   1.069   5.486   7.586 -0.5541 -0.0287  0.7956
   49DOPE   C36 6284   1.173   5.542   7.763 -0.6839  0.2398 -0.3457
   49DOPE   H6X 6285   1.156   5.652   7.766  0.7737  0.4962 -0.9056
   49DOPE   H6Y 6286   1.278   5.548   7.797 -0.5552  4.5917 -0.8448
   49DOPE   C37 6287   1.074   5.472   7.863 -0.8863 -0.8240 -0.7871
   49DOPE   H7X 6288   1.087   5.362   7.868 -1.6367 -0.9711 -1.7497
   49DOPE   H7Y 6289   1.103   5.523   7.957  0.0869  1.0989 -2.0602
   49DOPE   C38 6290   0.921   5.506   7.833 -0.0787  0.1483  0.3586
   49DOPE   H8X 6291   0.894   5.469   7.732  1.5174  0.1567 -0.0984
   49DOPE   H8Y 6292   0.902   5.614   7.819  0.2780  0.3744  1.5212
   49DOPE   C39 6293   0.827   5.455   7.939 -0.0999 -0.4496 -0.0484
   49DOPE   H9X 6294   0.767   5.365   7.918  2.2450 -2.6947  2.1714
   49DOPE  C310 6295   0.785   5.520   8.050 -0.3719  0.4408  0.9111
   49DOPE  H10X 6296   0.695   5.492   8.106  0.6577 -0.1910  2.3195
   49DOPE  C311 6297   0.852   5.639   8.115  0.6669 -0.6330 -0.0114
   49DOPE  H11X 6298   0.922   5.688   8.045  1.2257  0.3393  1.2028
   49DOPE  H11Y 6299   0.777   5.721   8.119 -0.6591 -1.7845 -0.4351
   49DOPE  C312 6300   0.903   5.618   8.256 -0.4132 -0.2819  0.6469
   49DOPE  H12X 6301   0.985   5.543   8.259 -0.8487 -0.8888 -1.1511
   49DOPE  H12Y 6302   0.825   5.583   8.326 -1.6329  0.6552 -0.1829
   49DOPE  C313 6303   0.954   5.740   8.328 -0.8934  0.3728 -0.4818
   49DOPE  H13X 6304   1.015   5.795   8.254 -2.3296 -0.3398 -2.2869
   49DOPE  H13Y 6305   0.873   5.810   8.359 -0.1055  0.9521  0.3246
   49DOPE  C314 6306   1.056   5.703   8.443  0.0071  0.2201  0.3492
   49DOPE  H14X 6307   1.091   5.792   8.499 -0.6964 -0.4549  1.9076
   49DOPE  H14Y 6308   1.146   5.653   8.401  1.8097  4.2363 -1.0512
   49DOPE  C315 6309   1.003   5.631   8.566 -0.1445  0.5553  0.0428
   49DOPE  H15X 6310   1.082   5.576   8.620 -1.6696 -2.6401 -0.7095
   49DOPE  H15Y 6311   0.951   5.544   8.521 -0.7729 -0.1718  2.0622
   49DOPE  C316 6312   0.898   5.707   8.654 -0.6996  1.3341 -0.1144
   49DOPE  H16X 6313   0.820   5.751   8.588 -0.7864 -0.6035 -1.3740
   49DOPE  H16Y 6314   0.950   5.789   8.708  1.9381 -0.4290  0.2262
   49DOPE  C317 6315   0.827   5.606   8.747  0.6282  0.4161  0.0088
   49DOPE  H17X 6316   0.774   5.526   8.692  0.2019  0.1250  0.8291
   49DOPE  H17Y 6317   0.902   5.548   8.805  1.2904  2.3311  1.1566
   49DOPE  C318 6318   0.731   5.665   8.847  0.3722  0.2879 -0.4645
   49DOPE  H18X 6319   0.780   5.751   8.898 -0.4373  0.3810  0.1797
   49DOPE  H18Y 6320   0.645   5.704   8.787 -0.0533  0.5230  0.2788
   49DOPE  H18Z 6321   0.679   5.605   8.925 -0.5784  1.8560  0.1558
   50DOPE     N 6322   0.333   2.807   6.864  0.2126 -0.2623 -0.1822
   50DOPE   HN1 6323   0.337   2.889   6.800 -0.1394 -0.0585  0.0535
   50DOPE   HN2 6324   0.415   2.810   6.928  0.8514 -1.9840 -0.8792
   50DOPE   HN3 6325   0.335   2.733   6.791 -0.8643  0.4919 -1.0112
   50DOPE   C12 6326   0.194   2.822   6.923 -0.1492 -0.4873 -0.1947
   50DOPE  H12A 6327   0.204   2.780   7.025  1.9227 -0.4766 -0.3416
   50DOPE  H12B 6328   0.128   2.758   6.860  0.7117 -0.2040 -1.4260
   50DOPE   C11 6329   0.139   2.963   6.930  0.0149  0.1704 -0.0133
   50DOPE  H11A 6330   0.044   2.957   6.987  1.4037  2.9221  2.9184
   50DOPE  H11B 6331   0.122   3.005   6.829  1.4357  1.5294  0.2638
   50DOPE     P 6332   0.264   3.200   6.989 -0.0583 -0.2148 -0.0762
   50DOPE   O13 6333   0.138   3.253   6.931 -0.4772 -0.1566  0.3911
   50DOPE   O14 6334   0.385   3.243   6.923  0.2610 -0.2910 -0.8344
   50DOPE   O11 6335   0.267   3.244   7.148  0.3417  0.3099 -0.2943
   50DOPE   O12 6336   0.240   3.041   6.996 -0.3163 -0.3082 -0.4569
   50DOPE    C1 6337   0.188   3.169   7.243 -0.5118 -0.1996 -0.1380
   50DOPE    HA 6338   0.154   3.072   7.199  1.3790 -1.2864  0.6789
   50DOPE    HB 6339   0.103   3.235   7.271 -0.9696 -0.9477  0.2654
   50DOPE    C2 6340   0.270   3.138   7.369 -0.9055 -0.0227 -0.1663
   50DOPE    HS 6341   0.210   3.099   7.453  2.4742 -0.6946  2.1170
   50DOPE   O21 6342   0.344   3.253   7.408  0.4817  0.2432 -0.3418
   50DOPE   C21 6343   0.278   3.366   7.431  0.0397  0.4059  0.0692
   50DOPE   O22 6344   0.158   3.379   7.451 -0.5580 -0.7187 -0.3400
   50DOPE   C22 6345   0.386   3.480   7.415  0.2482  0.1883 -0.0880
   50DOPE   H2R 6346   0.329   3.559   7.361 -0.8732 -0.9399 -0.5874
   50DOPE   H2S 6347   0.468   3.438   7.355  0.0647 -1.6121  0.8515
   50DOPE    C3 6348   0.377   3.029   7.325 -0.0330  0.2935 -0.4531
   50DOPE    HX 6349   0.433   3.074   7.240  1.0033 -0.2567 -0.0840
   50DOPE    HY 6350   0.333   2.932   7.292 -0.2024 -0.0844  0.8357
   50DOPE   O31 6351   0.473   3.006   7.430 -0.0320 -0.6330  0.1533
   50DOPE   C31 6352   0.462   2.907   7.516 -0.1781  0.0794 -0.4626
   50DOPE   O32 6353   0.370   2.823   7.516  0.0537  0.5514  0.4806
   50DOPE   C32 6354   0.580   2.906   7.610  0.1153 -0.6721  0.0511
   50DOPE   H2X 6355   0.656   2.838   7.566  1.4397 -0.9514  2.5769
   50DOPE   H2Y 6356   0.627   3.007   7.609 -0.1853 -0.5211  0.5256
   50DOPE   C23 6357   0.442   3.528   7.546  0.2298 -0.1078 -0.5184
   50DOPE   H3R 6358   0.360   3.553   7.617 -0.8213 -0.9322 -1.3988
   50DOPE   H3S 6359   0.497   3.621   7.523 -0.2543  0.2652 -0.1912
   50DOPE   C24 6360   0.548   3.443   7.616 -0.2905  0.4080 -0.5150
   50DOPE   H4R 6361   0.647   3.451   7.567  0.6822  2.2506  1.5679
   50DOPE   H4S 6362   0.515   3.337   7.625  2.3854 -0.4134  0.4207
   50DOPE   C25 6363   0.577   3.507   7.757  0.0849 -0.1840 -0.6334
   50DOPE   H5R 6364   0.479   3.499   7.809  0.5023 -2.3210 -0.0776
   50DOPE   H5S 6365   0.610   3.612   7.749 -2.4943  0.7866  0.1601
   50DOPE   C26 6366   0.667   3.414   7.842 -0.2350  0.0599 -0.2979
   50DOPE   H6R 6367   0.631   3.309   7.835  0.5021 -0.1394 -1.4274
   50DOPE   H6S 6368   0.654   3.445   7.948 -1.5370 -2.0251  0.2149
   50DOPE   C27 6369   0.817   3.418   7.804  0.9904  0.4717  0.4763
   50DOPE   H7R 6370   0.846   3.525   7.803 -1.5916  1.2463 -0.3958
   50DOPE   H7S 6371   0.837   3.371   7.706  2.3163  0.7052  0.6164
   50DOPE   C28 6372   0.905   3.359   7.912 -0.7530  0.0749  0.2028
   50DOPE   H8R 6373   0.858   3.265   7.949  1.6193 -1.4248 -0.4162
   50DOPE   H8S 6374   0.916   3.427   7.999 -0.0270  0.1770  0.0347
   50DOPE   C29 6375   1.038   3.330   7.852  0.0483 -0.2102  0.3291
   50DOPE   H9R 6376   1.101   3.418   7.834 -0.7342  0.2970  0.0294
   50DOPE  C210 6377   1.088   3.212   7.814  0.0682 -0.3161  0.3143
   50DOPE  H10R 6378   1.188   3.206   7.769  0.3618 -2.5615  1.1244
   50DOPE  C211 6379   1.031   3.076   7.832 -0.5125  0.2292 -0.4289
   50DOPE  H11R 6380   0.985   3.041   7.737 -1.9156  0.4471  0.1437
   50DOPE  H11S 6381   0.954   3.068   7.911 -0.1846 -0.0730 -0.1380
   50DOPE  C212 6382   1.136   2.973   7.871  0.5406  0.2967  0.0535
   50DOPE  H12R 6383   1.186   2.984   7.970  0.1155 -0.1754  0.3220
   50DOPE  H12S 6384   1.219   2.978   7.796  1.4340 -0.9735  0.9115
   50DOPE  C213 6385   1.077   2.828   7.874 -0.4724  0.5163  0.1007
   50DOPE  H13R 6386   1.011   2.819   7.784 -3.3192 -1.2376  2.1875
   50DOPE  H13S 6387   1.005   2.832   7.958 -2.2483  0.8558 -1.3578
   50DOPE  C214 6388   1.180   2.717   7.873  0.2613 -0.1227 -0.3045
   50DOPE  H14R 6389   1.248   2.742   7.957 -0.2944  1.1789 -0.2175
   50DOPE  H14S 6390   1.237   2.709   7.778  1.3112  1.6384  0.1335
   50DOPE  C215 6391   1.104   2.595   7.913 -0.3108 -0.0694  0.1257
   50DOPE  H15R 6392   1.053   2.623   8.008  0.4036  0.5815  0.3318
   50DOPE  H15S 6393   1.164   2.507   7.947  1.1899  1.3737  1.4313
   50DOPE  C216 6394   0.992   2.548   7.816 -0.4244  0.0670  0.5482
   50DOPE  H16R 6395   1.047   2.545   7.720 -1.4440  1.7883 -0.1333
   50DOPE  H16S 6396   0.910   2.621   7.801 -0.0562 -0.0519 -2.5618
   50DOPE  C217 6397   0.942   2.409   7.839  0.0213 -0.2068 -0.1358
   50DOPE  H17R 6398   0.934   2.385   7.947  0.6139 -3.4936 -0.7078
   50DOPE  H17S 6399   1.008   2.331   7.796  1.8697  2.3229 -2.2202
   50DOPE  C218 6400   0.804   2.391   7.773  0.0797 -0.0372 -0.4021
   50DOPE  H18R 6401   0.820   2.422   7.668  0.8862  2.3745  0.3558
   50DOPE  H18S 6402   0.730   2.463   7.815  1.2047 -0.0841  1.8250
   50DOPE  H18T 6403   0.769   2.286   7.778  0.5998 -0.2389 -1.0328
   50DOPE   C33 6404   0.546   2.844   7.747 -0.8654  0.2419  0.4159
   50DOPE   H3X 6405   0.494   2.747   7.750 -1.4102  0.5616  2.4133
   50DOPE   H3Y 6406   0.490   2.914   7.812 -0.3973  1.3575 -0.3471
   50DOPE   C34 6407   0.671   2.807   7.837 -0.4356  0.5348 -0.4915
   50DOPE   H4X 6408   0.745   2.757   7.771  0.5106  0.3461  0.6723
   50DOPE   H4Y 6409   0.720   2.898   7.877 -1.6176  1.2224 -0.5609
   50DOPE   C35 6410   0.632   2.716   7.959 -0.3407  0.8734  0.1363
   50DOPE   H5X 6411   0.591   2.621   7.917 -2.2727  1.3220  0.9114
   50DOPE   H5Y 6412   0.549   2.769   8.010 -0.6979  1.0725 -0.6365
   50DOPE   C36 6413   0.741   2.699   8.062  0.2727 -0.6307 -0.4552
   50DOPE   H6X 6414   0.788   2.796   8.089 -1.5901  0.2440 -0.1837
   50DOPE   H6Y 6415   0.826   2.640   8.022 -0.6693 -1.1798 -1.7523
   50DOPE   C37 6416   0.703   2.640   8.196  0.3921  0.3141  0.1164
   50DOPE   H7X 6417   0.631   2.699   8.257 -0.8757 -2.2835  1.3076
   50DOPE   H7Y 6418   0.656   2.541   8.175 -0.0249  0.2223  1.3858
   50DOPE   C38 6419   0.820   2.630   8.299 -0.1096 -0.0257  0.2818
   50DOPE   H8X 6420   0.902   2.582   8.240 -0.6221 -0.9973  0.3291
   50DOPE   H8Y 6421   0.788   2.560   8.379 -1.1142  2.1523  1.8513
   50DOPE   C39 6422   0.871   2.757   8.365 -0.4718 -0.4015 -0.1424
   50DOPE   H9X 6423   0.872   2.837   8.289 -3.1021  0.4720  0.6363
   50DOPE  C310 6424   0.905   2.777   8.489 -0.0286  0.2830 -0.4955
   50DOPE  H10X 6425   0.935   2.877   8.521 -1.6973  0.6298  0.0796
   50DOPE  C311 6426   0.896   2.671   8.599 -0.3995 -0.2253  0.4912
   50DOPE  H11X 6427   0.919   2.568   8.564  0.0409 -0.0192  0.1724
   50DOPE  H11Y 6428   0.974   2.694   8.675 -1.4230  0.5816  1.3252
   50DOPE  C312 6429   0.762   2.672   8.679  0.2411  0.1263 -0.0942
   50DOPE  H12X 6430   0.781   2.649   8.786 -2.0489  2.3407  0.8866
   50DOPE  H12Y 6431   0.696   2.590   8.645  2.2871 -0.8904 -1.8376
   50DOPE  C313 6432   0.687   2.812   8.674  0.5855 -0.7545  0.6092
   50DOPE  H13X 6433   0.749   2.897   8.638 -1.0236  0.0833 -0.2470
   50DOPE  H13Y 6434   0.597   2.798   8.611 -1.1535 -2.4675  3.2309
   50DOPE  C314 6435   0.631   2.845   8.810  0.0429  0.7219 -0.7356
   50DOPE  H14X 6436   0.567   2.936   8.803 -0.7691  0.1587 -0.7869
   50DOPE  H14Y 6437   0.708   2.880   8.882 -1.1444  1.0701  0.4037
   50DOPE  C315 6438   0.542   2.728   8.868 -0.3620  0.2386  0.5163
   50DOPE  H15X 6439   0.603   2.643   8.903  1.0475  1.8369  2.1448
   50DOPE  H15Y 6440   0.472   2.695   8.788 -3.2228  0.5319  2.7142
   50DOPE  C316 6441   0.454   2.787   8.974 -0.1364  0.2774  0.5374
   50DOPE  H16X 6442   0.380   2.850   8.919  0.9180  1.7000  0.7042
   50DOPE  H16Y 6443   0.513   2.856   9.038 -0.6439 -0.6653  2.0636
   50DOPE  C317 6444   0.387   2.679   9.061 -0.3894  1.0454  0.2339
   50DOPE  H17X 6445   0.347   2.602   8.991  0.5294  0.1121  0.7025
   50DOPE  H17Y 6446   0.461   2.617   9.117 -0.4821 -1.0641 -1.8088
   50DOPE  C318 6447   0.267   2.733   9.141 -0.2708  0.9108 -0.0878
   50DOPE  H18X 6448   0.225   2.824   9.091 -0.8349  0.3707 -0.6214
   50DOPE  H18Y 6449   0.175   2.671   9.145 -1.4337  2.3341 -2.2979
   50DOPE  H18Z 6450   0.293   2.758   9.246 -0.4016  1.6787 -0.2279
   51DOPE     N 6451   2.360   5.704   6.716 -0.0157 -0.3892 -0.1508
   51DOPE   HN1 6452   2.366   5.691   6.613 -0.5493  2.2719 -0.5917
   51DOPE   HN2 6453   2.272   5.756   6.735  0.7473  0.4172  1.4054
   51DOPE   HN3 6454   2.439   5.771   6.729 -0.2409  0.5373 -2.8153
   51DOPE   C12 6455   2.363   5.579   6.799 -0.3505 -0.4467 -0.3990
   51DOPE  H12A 6456   2.461   5.531   6.776 -0.3941 -0.7771  0.0828
   51DOPE  H12B 6457   2.289   5.512   6.751 -2.1395  2.0670 -1.3790
   51DOPE   C11 6458   2.353   5.605   6.957 -0.2135  0.1519  0.2310
   51DOPE  H11A 6459   2.398   5.513   7.001 -0.6113 -1.0902 -1.8145
   51DOPE  H11B 6460   2.247   5.617   6.986 -0.5083 -1.5730 -0.0031
   51DOPE     P 6461   2.385   5.825   7.096  0.1270 -0.2154 -0.3214
   51DOPE   O13 6462   2.275   5.899   7.033 -0.2187 -0.2043 -0.0345
   51DOPE   O14 6463   2.497   5.905   7.145  0.3094 -0.4568  0.2351
   51DOPE   O11 6464   2.334   5.726   7.216  0.3961  0.4084 -0.1049
   51DOPE   O12 6465   2.436   5.717   6.989 -0.7828 -0.3960 -0.7467
   51DOPE    C1 6466   2.433   5.641   7.278 -0.1933  1.0286  0.1200
   51DOPE    HA 6467   2.538   5.651   7.244 -0.4702  1.3037 -0.6711
   51DOPE    HB 6468   2.403   5.536   7.255 -1.4250  1.7457 -1.7167
   51DOPE    C2 6469   2.438   5.661   7.432  0.3498  0.0836  0.3898
   51DOPE    HS 6470   2.506   5.589   7.482  2.8992  2.6010  0.8242
   51DOPE   O21 6471   2.304   5.673   7.491  0.5574  0.1832 -0.4224
   51DOPE   C21 6472   2.250   5.555   7.531  0.1222  0.1466  0.0355
   51DOPE   O22 6473   2.295   5.443   7.512  0.1012 -0.4472  0.3189
   51DOPE   C22 6474   2.128   5.581   7.614  0.6740  0.6180  0.2528
   51DOPE   H2R 6475   2.083   5.676   7.578 -0.2928 -0.3617 -1.2511
   51DOPE   H2S 6476   2.165   5.583   7.719 -0.2780 -0.6268  0.6497
   51DOPE    C3 6477   2.509   5.798   7.470  0.6925  0.5355  0.1161
   51DOPE    HX 6478   2.457   5.879   7.414 -2.5726 -1.5353 -0.0913
   51DOPE    HY 6479   2.617   5.794   7.445  1.3044 -1.0110  2.6812
   51DOPE   O31 6480   2.496   5.814   7.614 -0.5201 -0.1919  0.0981
   51DOPE   C31 6481   2.537   5.931   7.663  0.9195  0.2798  0.0679
   51DOPE   O32 6482   2.598   6.012   7.597 -0.1898 -0.0167 -0.8729
   51DOPE   C32 6483   2.486   5.940   7.809  0.0153 -0.5124  0.3289
   51DOPE   H2X 6484   2.376   5.957   7.806  0.1261  0.4463  0.9905
   51DOPE   H2Y 6485   2.509   5.841   7.854  2.9450  0.2290  0.6858
   51DOPE   C23 6486   2.019   5.471   7.615  0.2700  0.1571 -0.0757
   51DOPE   H3R 6487   2.072   5.376   7.637 -0.9136 -1.1502 -2.3765
   51DOPE   H3S 6488   1.973   5.475   7.513 -1.2952 -1.5605  0.4972
   51DOPE   C24 6489   1.906   5.484   7.716 -0.5625  0.9675 -1.1977
   51DOPE   H4R 6490   1.835   5.400   7.707  1.2044 -0.9559  1.2005
   51DOPE   H4S 6491   1.859   5.584   7.709 -0.7993  1.0138  0.5268
   51DOPE   C25 6492   1.957   5.473   7.866 -0.6226 -0.2691  0.2552
   51DOPE   H5R 6493   2.035   5.549   7.889  0.7043 -1.6537  0.5053
   51DOPE   H5S 6494   2.000   5.372   7.881  0.3557  0.2575  1.1619
   51DOPE   C26 6495   1.856   5.508   7.972  0.0275  0.6029 -0.4904
   51DOPE   H6R 6496   1.775   5.433   7.964 -1.5596  2.1472  0.3770
   51DOPE   H6S 6497   1.802   5.602   7.946 -0.4664  0.7366  0.9618
   51DOPE   C27 6498   1.921   5.503   8.110 -0.0269 -1.1690 -0.2172
   51DOPE   H7R 6499   1.982   5.596   8.114 -1.7191 -0.0437  1.5497
   51DOPE   H7S 6500   1.989   5.415   8.107  0.1503 -1.0537  0.3008
   51DOPE   C28 6501   1.814   5.501   8.224 -0.4722 -0.1727  0.3061
   51DOPE   H8R 6502   1.752   5.409   8.226  1.6135 -1.6473  2.1377
   51DOPE   H8S 6503   1.750   5.590   8.208 -0.6271 -0.2265  0.6143
   51DOPE   C29 6504   1.887   5.505   8.353 -0.2981  0.6434  0.0158
   51DOPE   H9R 6505   1.937   5.602   8.365  0.4688  0.1304  1.1409
   51DOPE  C210 6506   1.888   5.418   8.454  0.0874  0.7333  0.0592
   51DOPE  H10R 6507   1.952   5.435   8.542 -0.0747  1.6306  0.0068
   51DOPE  C211 6508   1.823   5.280   8.457 -0.1456  0.1171 -0.3277
   51DOPE  H11R 6509   1.881   5.211   8.522 -0.2892  0.3000 -0.0031
   51DOPE  H11S 6510   1.831   5.234   8.356  0.9735  0.9125 -0.6348
   51DOPE  C212 6511   1.679   5.280   8.513  0.0346  0.1235  0.5407
   51DOPE  H12R 6512   1.641   5.176   8.505 -1.9657  0.9043 -0.9708
   51DOPE  H12S 6513   1.617   5.352   8.455 -0.8202  0.3339  1.6690
   51DOPE  C213 6514   1.664   5.332   8.661  0.7744 -0.2656  0.1222
   51DOPE  H13R 6515   1.694   5.439   8.653 -0.7047  0.1129 -0.9392
   51DOPE  H13S 6516   1.731   5.268   8.722 -0.4703 -1.9770 -0.2342
   51DOPE  C214 6517   1.517   5.321   8.716  0.4879 -0.9981  0.6003
   51DOPE  H14R 6518   1.440   5.387   8.670  0.6879 -2.9450 -2.9047
   51DOPE  H14S 6519   1.526   5.351   8.823 -1.3781  0.7310  0.3408
   51DOPE  C215 6520   1.458   5.175   8.707 -0.0817 -0.2129  0.5909
   51DOPE  H15R 6521   1.532   5.105   8.751 -1.5925 -0.8850  2.1895
   51DOPE  H15S 6522   1.435   5.164   8.599 -0.0150  2.0322  0.3010
   51DOPE  C216 6523   1.325   5.175   8.772 -0.2152  1.0953 -0.6863
   51DOPE  H16R 6524   1.259   5.241   8.710 -2.7642  0.3100  1.0121
   51DOPE  H16S 6525   1.329   5.212   8.877  2.2756 -0.8303 -0.0212
   51DOPE  C217 6526   1.260   5.037   8.778 -1.0055 -0.3723 -0.6691
   51DOPE  H17R 6527   1.316   4.962   8.839  0.4062  1.5988  0.5723
   51DOPE  H17S 6528   1.253   4.988   8.679 -0.0293  0.7731 -1.3198
   51DOPE  C218 6529   1.117   5.051   8.832 -0.5274 -0.1326 -0.0030
   51DOPE  H18R 6530   1.102   4.994   8.925 -0.7220 -0.3386 -0.1606
   51DOPE  H18S 6531   1.048   5.015   8.753  0.7902 -0.9144 -0.8546
   51DOPE  H18T 6532   1.095   5.155   8.865 -0.4512 -0.6039  1.5873
   51DOPE   C33 6533   2.556   6.062   7.875  0.0199  0.2780  0.3810
   51DOPE   H3X 6534   2.534   6.149   7.809  0.1368 -1.5858 -2.2813
   51DOPE   H3Y 6535   2.666   6.045   7.881  0.3002  1.6845 -0.2921
   51DOPE   C34 6536   2.497   6.086   8.011  0.4197  0.1037  0.1840
   51DOPE   H4X 6537   2.386   6.092   8.017  0.4013 -0.1999  0.1633
   51DOPE   H4Y 6538   2.513   5.993   8.070  0.2797 -0.3003 -0.4065
   51DOPE   C35 6539   2.563   6.203   8.093 -0.4942  0.7958 -0.0194
   51DOPE   H5X 6540   2.478   6.231   8.159 -0.8050  0.3053 -0.2174
   51DOPE   H5Y 6541   2.601   6.279   8.022  1.7477 -0.1178  0.1181
   51DOPE   C36 6542   2.667   6.176   8.203 -0.0874  0.1550  0.3532
   51DOPE   H6X 6543   2.697   6.271   8.250  0.2696  0.8417 -1.2028
   51DOPE   H6Y 6544   2.760   6.144   8.151 -0.3880 -0.0605 -0.0632
   51DOPE   C37 6545   2.615   6.062   8.300 -0.0658  0.4454 -0.4868
   51DOPE   H7X 6546   2.508   6.080   8.327 -0.1941 -0.2684 -0.5039
   51DOPE   H7Y 6547   2.629   5.969   8.240  1.0610  0.7137 -0.6562
   51DOPE   C38 6548   2.697   6.054   8.431 -0.5174  0.1517  0.4871
   51DOPE   H8X 6549   2.697   6.158   8.471 -0.0917  1.0482 -1.6999
   51DOPE   H8Y 6550   2.805   6.035   8.413 -0.8319 -3.0475  1.5064
   51DOPE   C39 6551   2.643   5.936   8.512  0.8433  0.0862  0.3151
   51DOPE   H9X 6552   2.636   5.847   8.447  1.4874  0.6010 -0.4717
   51DOPE  C310 6553   2.608   5.948   8.637  0.0173 -0.2591 -0.0225
   51DOPE  H10X 6554   2.585   5.858   8.697  0.3736 -0.2798  0.0844
   51DOPE  C311 6555   2.616   6.073   8.726  1.1992  0.0728  0.2556
   51DOPE  H11X 6556   2.669   6.048   8.820  1.0475 -0.7619  0.1306
   51DOPE  H11Y 6557   2.680   6.146   8.673 -1.5751 -0.2829 -4.1276
   51DOPE  C312 6558   2.470   6.111   8.763  0.7748 -0.7454  0.3922
   51DOPE  H12X 6559   2.402   6.107   8.676  0.6249 -0.0940  0.4688
   51DOPE  H12Y 6560   2.478   6.216   8.800  3.0357 -0.7107 -0.0328
   51DOPE  C313 6561   2.410   6.018   8.872 -0.0411 -0.2537  0.1400
   51DOPE  H13X 6562   2.390   5.917   8.830  0.3366 -0.2187 -0.1309
   51DOPE  H13Y 6563   2.480   6.011   8.957  2.7711  4.1670 -1.4585
   51DOPE  C314 6564   2.279   6.064   8.929  0.0368  0.1854  0.2869
   51DOPE  H14X 6565   2.300   6.150   8.996  2.1805  0.5151 -0.7252
   51DOPE  H14Y 6566   2.246   5.972   8.981 -3.1073  1.6397  1.0885
   51DOPE  C315 6567   2.167   6.098   8.825 -0.2691 -0.5644 -0.5420
   51DOPE  H15X 6568   2.128   6.003   8.782 -1.0310 -1.0607  1.1408
   51DOPE  H15Y 6569   2.208   6.162   8.744 -0.7774 -0.4816 -0.7383
   51DOPE  C316 6570   2.051   6.176   8.887  0.1199 -0.1097 -0.1466
   51DOPE  H16X 6571   2.002   6.237   8.809  0.3698  1.4964  0.9084
   51DOPE  H16Y 6572   2.087   6.258   8.953 -1.1615 -0.8765  1.5742
   51DOPE  C317 6573   1.955   6.080   8.945 -0.1941 -0.2003 -0.3976
   51DOPE  H17X 6574   1.901   6.030   8.862 -0.2310  1.6073 -1.5327
   51DOPE  H17Y 6575   2.012   6.003   9.001 -0.1043  0.9053  1.0912
   51DOPE  C318 6576   1.853   6.149   9.032  0.4752 -0.7939 -0.5703
   51DOPE  H18X 6577   1.814   6.241   8.984 -0.9973 -1.1161 -0.0360
   51DOPE  H18Y 6578   1.773   6.081   9.070  0.0966  0.2120  0.4976
   51DOPE  H18Z 6579   1.901   6.188   9.125 -0.7402 -0.3548 -0.1072
   52DOPE     N 6580   7.581   3.289   7.000 -0.0429 -0.1840 -0.0217
   52DOPE   HN1 6581   7.684   3.276   6.990 -0.3693 -2.4450 -1.0904
   52DOPE   HN2 6582   7.553   3.389   6.992 -0.9029 -0.4853 -0.9757
   52DOPE   HN3 6583   7.539   3.257   7.090 -1.2346  3.0494  0.7086
   52DOPE   C12 6584   7.512   3.211   6.893  0.5835  0.4729  0.1132
   52DOPE  H12A 6585   7.557   3.110   6.884  0.6825  0.6812 -2.2464
   52DOPE  H12B 6586   7.530   3.263   6.797 -0.5868  1.3816  0.3544
   52DOPE   C11 6587   7.360   3.200   6.919 -0.6329  0.9020  0.6103
   52DOPE  H11A 6588   7.351   3.134   7.008 -0.7342  0.4593  0.2783
   52DOPE  H11B 6589   7.296   3.151   6.842 -0.5882  1.7561  0.0159
   52DOPE     P 6590   7.174   3.358   6.992 -0.0199  0.2569 -0.0147
   52DOPE   O13 6591   7.081   3.256   6.941  0.4441 -0.1307  0.8923
   52DOPE   O14 6592   7.143   3.501   6.963  0.4175  0.5060  0.8145
   52DOPE   O11 6593   7.188   3.337   7.149  0.1885 -0.3442 -0.0214
   52DOPE   O12 6594   7.320   3.331   6.933  0.3073  0.5216  0.1043
   52DOPE    C1 6595   7.243   3.447   7.226  0.3157  0.4301  0.1179
   52DOPE    HA 6596   7.279   3.532   7.164 -0.3473  2.5306  2.4325
   52DOPE    HB 6597   7.325   3.400   7.284 -0.6707 -3.2558 -1.2303
   52DOPE    C2 6598   7.142   3.505   7.327 -0.0612 -0.1117 -0.3637
   52DOPE    HS 6599   7.082   3.590   7.288 -0.4192 -0.8959 -1.5603
   52DOPE   O21 6600   7.213   3.549   7.446  0.1111 -0.4586  0.0441
   52DOPE   C21 6601   7.266   3.669   7.432  0.0891 -0.1423  0.5599
   52DOPE   O22 6602   7.277   3.721   7.326  0.0404  0.2820 -0.0233
   52DOPE   C22 6603   7.323   3.716   7.568  0.4517  0.0575 -0.6610
   52DOPE   H2R 6604   7.237   3.729   7.638  0.0502 -0.1060 -1.1157
   52DOPE   H2S 6605   7.377   3.812   7.550  0.7117  0.4604  1.8795
   52DOPE    C3 6606   7.032   3.395   7.362  0.0345  0.1402  0.1217
   52DOPE    HX 6607   7.092   3.313   7.406  0.1570 -0.5070 -1.2007
   52DOPE    HY 6608   6.986   3.365   7.265 -1.0633  2.0823 -0.0075
   52DOPE   O31 6609   6.927   3.448   7.450 -0.5374  0.0131  0.6719
   52DOPE   C31 6610   6.818   3.382   7.458  0.5601 -0.2195 -0.0390
   52DOPE   O32 6611   6.805   3.267   7.421  0.5630  0.2870  0.0106
   52DOPE   C32 6612   6.709   3.462   7.525 -0.0776  0.0030 -0.2989
   52DOPE   H2X 6613   6.755   3.526   7.604  0.7064 -1.7451  0.7200
   52DOPE   H2Y 6614   6.663   3.528   7.448 -1.5589  1.9081  2.0750
   52DOPE   C23 6615   7.435   3.619   7.606 -0.4349  0.0568  0.7234
   52DOPE   H3R 6616   7.498   3.612   7.515  1.4331  0.3773  1.9512
   52DOPE   H3S 6617   7.407   3.511   7.611  1.3034 -0.4624 -0.1698
   52DOPE   C24 6618   7.510   3.661   7.729  0.4906  0.1525 -0.4200
   52DOPE   H4R 6619   7.548   3.765   7.736 -1.0856  0.7102  0.0100
   52DOPE   H4S 6620   7.598   3.592   7.733  0.7329  0.5193  0.9346
   52DOPE   C25 6621   7.433   3.642   7.859 -0.0688  0.9803  0.6462
   52DOPE   H5R 6622   7.383   3.544   7.842 -1.7312  1.9250 -0.2858
   52DOPE   H5S 6623   7.344   3.710   7.854 -0.4371  0.4868  0.3663
   52DOPE   C26 6624   7.517   3.648   7.988 -0.2164 -0.3225 -0.0767
   52DOPE   H6R 6625   7.562   3.748   8.005  0.0859 -0.6076  0.8816
   52DOPE   H6S 6626   7.596   3.570   7.979  0.3667  0.2659 -0.1035
   52DOPE   C27 6627   7.441   3.633   8.116 -0.0772  0.1363  0.1143
   52DOPE   H7R 6628   7.364   3.714   8.121 -1.2057 -0.7942 -1.3005
   52DOPE   H7S 6629   7.506   3.657   8.202  0.2064  0.4177 -0.1741
   52DOPE   C28 6630   7.377   3.494   8.151 -0.3634  0.0979 -0.7552
   52DOPE   H8R 6631   7.458   3.422   8.127 -1.5915 -1.1256 -1.3616
   52DOPE   H8S 6632   7.300   3.459   8.078  0.1546  0.2661 -1.3875
   52DOPE   C29 6633   7.322   3.469   8.288 -0.1570  0.4964 -0.0033
   52DOPE   H9R 6634   7.216   3.492   8.299 -0.2457 -0.2445  0.8231
   52DOPE  C210 6635   7.389   3.406   8.390  0.2443  0.5185 -0.0948
   52DOPE  H10R 6636   7.344   3.407   8.490  1.1595  1.5364  0.3280
   52DOPE  C211 6637   7.526   3.342   8.376 -0.3338  0.0488  0.4171
   52DOPE  H11R 6638   7.559   3.335   8.270 -0.1977  1.6985  0.3232
   52DOPE  H11S 6639   7.526   3.237   8.411  2.7485 -0.3494 -0.4133
   52DOPE  C212 6640   7.643   3.430   8.436  0.2620  0.2177 -0.3298
   52DOPE  H12R 6641   7.629   3.440   8.546 -1.1213  2.0008 -0.6072
   52DOPE  H12S 6642   7.634   3.531   8.389  0.5816 -0.2790 -1.4861
   52DOPE  C213 6643   7.784   3.375   8.412 -0.4029  0.5524 -0.7586
   52DOPE  H13R 6644   7.801   3.379   8.303  2.9842  0.3220 -0.3562
   52DOPE  H13S 6645   7.792   3.270   8.449 -2.7495  0.9777  1.2322
   52DOPE  C214 6646   7.888   3.459   8.493 -0.1691  0.5046  0.5142
   52DOPE  H14R 6647   7.879   3.442   8.602 -0.1448  2.1396  0.7946
   52DOPE  H14S 6648   7.873   3.568   8.478 -2.0853  0.2738  0.5585
   52DOPE  C215 6649   8.039   3.430   8.465  0.1619  0.9943  0.3856
   52DOPE  H15R 6650   8.050   3.468   8.362 -1.5494  1.5278  0.3600
   52DOPE  H15S 6651   8.042   3.319   8.467 -2.3316  0.8693  1.4982
   52DOPE  C216 6652   8.148   3.495   8.551  0.1352 -0.8896 -0.6334
   52DOPE  H16R 6653   8.162   3.604   8.535 -0.4899 -1.1273 -3.2050
   52DOPE  H16S 6654   8.245   3.447   8.526  0.4892  0.9771 -3.1867
   52DOPE  C217 6655   8.128   3.474   8.700 -0.0328 -0.2062  0.1963
   52DOPE  H17R 6656   8.042   3.531   8.742 -0.4855  0.8799 -2.0513
   52DOPE  H17S 6657   8.213   3.529   8.747 -0.4249  0.4916  0.1056
   52DOPE  C218 6658   8.134   3.326   8.742 -0.6948 -0.3369 -0.0468
   52DOPE  H18R 6659   8.044   3.269   8.708 -0.9759  0.2512 -0.3059
   52DOPE  H18S 6660   8.223   3.274   8.700  0.7681  0.8544  1.4427
   52DOPE  H18T 6661   8.144   3.321   8.853 -1.6922  1.9214  0.1908
   52DOPE   C33 6662   6.596   3.380   7.596 -0.0605  0.0860 -0.0741
   52DOPE   H3X 6663   6.536   3.313   7.531 -1.3977  1.3762 -0.2031
   52DOPE   H3Y 6664   6.512   3.444   7.629  0.2528 -0.5342  2.0625
   52DOPE   C34 6665   6.652   3.311   7.720  0.0256 -0.5827 -0.0947
   52DOPE   H4X 6666   6.720   3.232   7.684  0.8802 -0.0340  0.2994
   52DOPE   H4Y 6667   6.714   3.382   7.780 -0.7745  1.7117 -1.8329
   52DOPE   C35 6668   6.544   3.243   7.817 -0.9669  0.2964 -0.1153
   52DOPE   H5X 6669   6.487   3.167   7.760  0.3380 -2.2326  1.7407
   52DOPE   H5Y 6670   6.479   3.326   7.852 -0.1371  0.7689  0.3427
   52DOPE   C36 6671   6.596   3.179   7.947  0.6725 -0.7417  0.3688
   52DOPE   H6X 6672   6.658   3.239   8.017  0.6974 -0.4679  0.1136
   52DOPE   H6Y 6673   6.673   3.105   7.914  2.0612  0.8749 -0.1462
   52DOPE   C37 6674   6.493   3.117   8.038  0.5336  0.2847  0.1851
   52DOPE   H7X 6675   6.523   3.091   8.141  0.0403 -2.6007 -0.3145
   52DOPE   H7Y 6676   6.416   3.197   8.050  0.2682 -0.1968  2.0269
   52DOPE   C38 6677   6.417   2.997   7.971 -0.3065  0.4535  0.8361
   52DOPE   H8X 6678   6.383   3.034   7.872  2.6691  2.0487  0.2918
   52DOPE   H8Y 6679   6.324   2.977   8.028 -0.3195  0.8331  0.9514
   52DOPE   C39 6680   6.503   2.873   7.961  0.4391  0.0398 -0.1602
   52DOPE   H9X 6681   6.592   2.880   7.896  1.8128 -1.4759  1.4415
   52DOPE  C310 6682   6.491   2.748   8.011 -0.6079 -0.0708  0.1811
   52DOPE  H10X 6683   6.567   2.675   7.979 -0.1218  1.5660 -2.7417
   52DOPE  C311 6684   6.386   2.709   8.102  0.0573  0.0163  0.0358
   52DOPE  H11X 6685   6.305   2.785   8.102  1.5811  1.8372 -2.9137
   52DOPE  H11Y 6686   6.340   2.614   8.067 -0.1211  0.2929 -0.4930
   52DOPE  C312 6687   6.438   2.695   8.250 -0.5096 -0.1407  0.5768
   52DOPE  H12X 6688   6.343   2.675   8.305  0.7213 -0.9634  2.4852
   52DOPE  H12Y 6689   6.471   2.795   8.286 -2.1522 -0.3609  2.9241
   52DOPE  C313 6690   6.535   2.591   8.284 -0.2359  0.1611  0.9196
   52DOPE  H13X 6691   6.482   2.494   8.273  1.7518 -0.7276 -1.8961
   52DOPE  H13Y 6692   6.617   2.594   8.209 -1.6270 -1.2145 -0.7506
   52DOPE  C314 6693   6.609   2.611   8.420  0.3623  0.0332 -0.0137
   52DOPE  H14X 6694   6.669   2.704   8.428 -0.7715  0.7808 -0.0238
   52DOPE  H14Y 6695   6.683   2.529   8.424  0.1195 -0.1456  2.2373
   52DOPE  C315 6696   6.513   2.600   8.543  0.8003  0.1868  0.4429
   52DOPE  H15X 6697   6.463   2.500   8.543 -1.8689  1.4092 -0.9375
   52DOPE  H15Y 6698   6.433   2.677   8.540 -0.1521 -0.7175  1.2721
   52DOPE  C316 6699   6.591   2.628   8.676 -0.6494 -0.1478  0.9617
   52DOPE  H16X 6700   6.640   2.726   8.657 -0.3436  0.1442  3.0213
   52DOPE  H16Y 6701   6.679   2.561   8.688 -0.8171 -0.0721  2.7589
   52DOPE  C317 6702   6.514   2.648   8.807 -0.1782  0.2544 -0.2774
   52DOPE  H17X 6703   6.570   2.712   8.878  0.6292  0.6666 -1.2604
   52DOPE  H17Y 6704   6.424   2.707   8.781  0.5829  1.7791  0.4609
   52DOPE  C318 6705   6.476   2.519   8.877  0.3800 -0.1588 -0.3351
   52DOPE  H18X 6706   6.419   2.438   8.827  0.2981 -0.1762 -0.2141
   52DOPE  H18Y 6707   6.572   2.481   8.918  0.3528 -0.3915 -0.4817
   52DOPE  H18Z 6708   6.422   2.561   8.964 -0.2487  0.5119 -1.0438
   53DOPE     N 6709   5.093   5.438   7.175  0.3186 -0.4380  0.1781
   53DOPE   HN1 6710   5.024   5.406   7.104  2.5926 -0.8636 -1.9699
   53DOPE   HN2 6711   5.040   5.518   7.215 -0.1825 -1.3869  1.5142
   53DOPE   HN3 6712   5.184   5.456   7.129  1.0818 -3.8631  0.0872
   53DOPE   C12 6713   5.103   5.315   7.262 -0.4120 -0.0435 -0.2856
   53DOPE  H12A 6714   5.007   5.306   7.316 -0.8747  2.4984 -0.5699
   53DOPE  H12B 6715   5.184   5.344   7.332 -0.0016 -0.3593 -0.6236
   53DOPE   C11 6716   5.144   5.191   7.175  0.2611  0.5831 -0.2599
   53DOPE  H11A 6717   5.054   5.164   7.114  0.4740  0.2015 -0.4018
   53DOPE  H11B 6718   5.164   5.108   7.245  1.4178  1.3484  0.3466
   53DOPE     P 6719   5.405   5.164   7.138 -0.1870  0.2084  0.4585
   53DOPE   O13 6720   5.509   5.263   7.098 -0.3557 -0.1915 -0.3617
   53DOPE   O14 6721   5.416   5.023   7.092 -0.5705  0.3057 -0.2827
   53DOPE   O11 6722   5.394   5.176   7.293 -0.1457 -0.4407 -0.3110
   53DOPE   O12 6723   5.261   5.215   7.087 -0.2471 -0.3538  0.4110
   53DOPE    C1 6724   5.483   5.259   7.375  0.0921  0.4423 -0.3975
   53DOPE    HA 6725   5.433   5.295   7.467  0.8598 -1.9807  1.0566
   53DOPE    HB 6726   5.522   5.346   7.317  0.1567  0.1626 -0.7817
   53DOPE    C2 6727   5.607   5.181   7.422 -0.9051  0.0137 -0.4733
   53DOPE    HS 6728   5.646   5.131   7.331  1.4788  0.1057  0.4122
   53DOPE   O21 6729   5.551   5.093   7.515  0.0221  0.2407 -0.1534
   53DOPE   C21 6730   5.599   4.966   7.507  0.1469 -0.2298  0.3254
   53DOPE   O22 6731   5.693   4.935   7.436  0.1973  0.4512  0.2799
   53DOPE   C22 6732   5.537   4.894   7.621  0.7476  0.1804  0.4247
   53DOPE   H2R 6733   5.476   4.805   7.595 -2.1785  1.8847  1.0425
   53DOPE   H2S 6734   5.457   4.956   7.667  0.1747 -1.6926  2.0646
   53DOPE    C3 6735   5.715   5.271   7.490 -0.2893 -0.6355  0.2964
   53DOPE    HX 6736   5.667   5.318   7.578 -1.5261  1.5150 -1.4281
   53DOPE    HY 6737   5.738   5.345   7.410 -1.1271  0.0610  0.6935
   53DOPE   O31 6738   5.826   5.190   7.531 -0.2732 -0.1419  0.0932
   53DOPE   C31 6739   5.914   5.144   7.438  0.2709  0.0578  0.5914
   53DOPE   O32 6740   5.915   5.186   7.327  0.3709  0.2882 -0.1921
   53DOPE   C32 6741   5.993   5.028   7.491 -0.6056 -0.4141 -0.4922
   53DOPE   H2X 6742   6.011   5.061   7.596 -2.1772 -1.5425  0.1668
   53DOPE   H2Y 6743   5.937   4.933   7.482  0.0027 -0.5619 -3.6434
   53DOPE   C23 6744   5.631   4.878   7.741 -0.1195  0.9983  0.1489
   53DOPE   H3R 6745   5.572   4.851   7.831 -2.7087 -1.1732 -2.0125
   53DOPE   H3S 6746   5.673   4.977   7.768 -0.7776  1.4381 -0.4016
   53DOPE   C24 6747   5.757   4.787   7.717 -0.7091  0.3768  0.1088
   53DOPE   H4R 6748   5.818   4.826   7.633  0.3259 -3.1796 -0.9618
   53DOPE   H4S 6749   5.731   4.681   7.696 -0.5434  0.3461  0.0645
   53DOPE   C25 6750   5.838   4.790   7.847  0.2708 -0.3612  0.5368
   53DOPE   H5R 6751   5.918   4.713   7.852 -0.1788 -0.8013  1.0254
   53DOPE   H5S 6752   5.778   4.753   7.932 -1.6154 -1.9967 -1.3725
   53DOPE   C26 6753   5.910   4.928   7.883 -0.0417 -0.6707 -0.0875
   53DOPE   H6R 6754   5.835   5.005   7.911 -0.0974 -0.4504 -0.8358
   53DOPE   H6S 6755   5.959   4.963   7.790 -0.9696  1.6928  0.2294
   53DOPE   C27 6756   6.011   4.909   8.002  0.3875 -0.5295 -0.6206
   53DOPE   H7R 6757   6.076   4.826   7.967 -0.2617 -0.6822 -1.5041
   53DOPE   H7S 6758   5.945   4.877   8.085 -2.7957  1.7424 -2.0510
   53DOPE   C28 6759   6.095   5.031   8.044  0.1587  0.0499 -0.1047
   53DOPE   H8R 6760   6.148   5.008   8.138 -0.3712  2.9965  1.0325
   53DOPE   H8S 6761   6.017   5.107   8.066 -1.6406 -2.1323  1.5524
   53DOPE   C29 6762   6.203   5.080   7.950  0.1513  0.0788  0.0104
   53DOPE   H9R 6763   6.281   5.008   7.921 -0.4354 -0.3972 -0.4112
   53DOPE  C210 6764   6.204   5.196   7.891  0.5161 -0.0422  0.3387
   53DOPE  H10R 6765   6.285   5.230   7.826 -0.1739 -3.4121 -2.5369
   53DOPE  C211 6766   6.092   5.303   7.909 -0.3096  0.2028  0.7688
   53DOPE  H11R 6767   6.137   5.403   7.930  0.2716  0.3749 -1.1189
   53DOPE  H11S 6768   6.019   5.289   7.991 -1.2241 -0.5345 -0.1483
   53DOPE  C212 6769   6.007   5.337   7.788  0.2341 -0.1303 -0.5152
   53DOPE  H12R 6770   5.954   5.245   7.753  0.4376 -0.3155 -0.3449
   53DOPE  H12S 6771   6.074   5.381   7.711  0.0083  1.7699  0.3451
   53DOPE  C213 6772   5.896   5.435   7.813  0.5168 -0.1618 -0.8351
   53DOPE  H13R 6773   5.851   5.460   7.714 -1.4788  1.1010  0.3450
   53DOPE  H13S 6774   5.943   5.530   7.845 -0.2183  0.9777 -2.9142
   53DOPE  C214 6775   5.773   5.394   7.894 -0.5766 -0.2158 -0.1018
   53DOPE  H14R 6776   5.793   5.360   7.998  0.3779  2.2624  0.5754
   53DOPE  H14S 6777   5.723   5.311   7.839 -0.7357  0.0467 -0.3555
   53DOPE  C215 6778   5.686   5.516   7.908 -0.1703 -0.3451 -0.0369
   53DOPE  H15R 6779   5.679   5.561   7.807 -1.7407 -1.4325 -0.4393
   53DOPE  H15S 6780   5.742   5.591   7.968 -2.6798  1.3826  0.3040
   53DOPE  C216 6781   5.556   5.488   7.969  0.5871  0.7284 -0.2113
   53DOPE  H16R 6782   5.564   5.403   8.040 -0.1830  0.0786 -0.8832
   53DOPE  H16S 6783   5.488   5.459   7.886 -0.5050  1.9870  0.2032
   53DOPE  C217 6784   5.502   5.615   8.035 -0.3111  0.5720  0.1432
   53DOPE  H17R 6785   5.468   5.680   7.951 -1.6891 -0.4539 -0.1193
   53DOPE  H17S 6786   5.577   5.670   8.096  1.4880  0.0810 -1.5214
   53DOPE  C218 6787   5.375   5.583   8.106  0.3132 -0.4556 -0.0911
   53DOPE  H18R 6788   5.317   5.678   8.108  1.4677  0.2603  1.4339
   53DOPE  H18S 6789   5.401   5.559   8.211  0.4316  0.1314  0.0167
   53DOPE  H18T 6790   5.319   5.501   8.056 -2.1044  0.2383  1.2843
   53DOPE   C33 6791   6.129   5.020   7.417 -0.6908  0.5268  0.6913
   53DOPE   H3X 6792   6.184   5.107   7.459 -1.1082  0.6024  1.0840
   53DOPE   H3Y 6793   6.122   5.019   7.306  2.2122 -0.2530  0.4384
   53DOPE   C34 6794   6.199   4.886   7.446  0.3254 -0.4060  0.4871
   53DOPE   H4X 6795   6.149   4.805   7.389  0.6361  0.4640 -1.1011
   53DOPE   H4Y 6796   6.298   4.889   7.396  0.5172 -1.8379  0.7417
   53DOPE   C35 6797   6.223   4.865   7.594 -0.3374 -0.0460  0.0454
   53DOPE   H5X 6798   6.153   4.928   7.653 -0.5014 -0.9208  0.8119
   53DOPE   H5Y 6799   6.323   4.902   7.625 -0.7978  1.4850 -0.2526
   53DOPE   C36 6800   6.207   4.720   7.657 -0.1789 -0.2507  0.5558
   53DOPE   H6X 6801   6.242   4.642   7.586  0.4845 -0.4774  1.1229
   53DOPE   H6Y 6802   6.102   4.714   7.692  0.3865  0.3999  2.5165
   53DOPE   C37 6803   6.289   4.704   7.788 -0.5480  0.1058  0.1128
   53DOPE   H7X 6804   6.391   4.720   7.746 -0.3685  0.9579  0.8519
   53DOPE   H7Y 6805   6.258   4.785   7.857 -2.1389 -1.4309  1.2774
   53DOPE   C38 6806   6.265   4.574   7.861  0.1622 -0.2753  0.2881
   53DOPE   H8X 6807   6.243   4.486   7.796 -0.3040  0.2490 -0.2789
   53DOPE   H8Y 6808   6.169   4.595   7.913 -0.1230 -0.1814 -0.2722
   53DOPE   C39 6809   6.377   4.553   7.961  0.0518  0.3394 -0.0028
   53DOPE   H9X 6810   6.474   4.518   7.922 -0.1958 -1.0231  0.5347
   53DOPE  C310 6811   6.367   4.544   8.092  0.2085 -0.1955 -0.2363
   53DOPE  H10X 6812   6.458   4.526   8.151 -0.4583 -0.5088  0.7205
   53DOPE  C311 6813   6.242   4.553   8.178  0.5948  0.2579 -0.6044
   53DOPE  H11X 6814   6.154   4.581   8.116  0.0926 -0.9892 -0.4690
   53DOPE  H11Y 6815   6.209   4.467   8.239 -2.2567  0.5871 -1.5490
   53DOPE  C312 6816   6.264   4.663   8.277 -0.0462  0.4402 -0.2611
   53DOPE  H12X 6817   6.298   4.756   8.226  1.8593 -0.6096 -1.0434
   53DOPE  H12Y 6818   6.341   4.638   8.353 -1.5188 -1.7534  0.6165
   53DOPE  C313 6819   6.140   4.694   8.355  0.7641 -0.7850 -0.0779
   53DOPE  H13X 6820   6.170   4.777   8.421 -0.1532  2.5698 -3.5381
   53DOPE  H13Y 6821   6.055   4.728   8.291 -1.5744 -1.7220  2.3313
   53DOPE  C314 6822   6.079   4.580   8.438 -0.4309 -0.0164 -0.0506
   53DOPE  H14X 6823   6.164   4.542   8.499  0.5704  1.6201 -0.3602
   53DOPE  H14Y 6824   6.027   4.508   8.371 -2.9218  1.6522 -0.0403
   53DOPE  C315 6825   5.981   4.633   8.538  0.3127 -0.2103 -0.4882
   53DOPE  H15X 6826   6.025   4.717   8.595 -0.4332  0.1123 -0.3780
   53DOPE  H15Y 6827   5.948   4.555   8.611 -1.0680  1.2559  0.5251
   53DOPE  C316 6828   5.846   4.678   8.481  0.4917  0.4106 -0.6199
   53DOPE  H16X 6829   5.805   4.589   8.429 -0.3540 -0.4458  1.4016
   53DOPE  H16Y 6830   5.862   4.756   8.404 -1.2974 -0.6864 -2.1925
   53DOPE  C317 6831   5.754   4.746   8.590 -0.6653 -0.0267  0.0956
   53DOPE  H17X 6832   5.740   4.668   8.668 -0.4466 -0.1050  0.0563
   53DOPE  H17Y 6833   5.788   4.842   8.634 -1.5342  0.8981 -1.1722
   53DOPE  C318 6834   5.610   4.781   8.544  0.2583 -0.0902 -0.1812
   53DOPE  H18X 6835   5.552   4.798   8.637 -0.3217 -0.5243 -0.4588
   53DOPE  H18Y 6836   5.604   4.879   8.493 -0.0710 -1.0566 -2.0790
   53DOPE  H18Z 6837   5.562   4.702   8.483  0.1736 -2.6148  2.9021
   54DOPE     N 6838   7.141   2.594   6.714 -0.9674  0.4940  0.5994
   54DOPE   HN1 6839   7.232   2.617   6.758 -1.4898  1.9289  0.9658
   54DOPE   HN2 6840   7.127   2.663   6.637  1.5412  0.3338 -0.1034
   54DOPE   HN3 6841   7.063   2.614   6.779 -1.4344  1.2280 -0.1663
   54DOPE   C12 6842   7.117   2.447   6.657 -0.4457 -0.2964  0.4818
   54DOPE  H12A 6843   7.192   2.428   6.577 -0.5277  0.4583  0.2234
   54DOPE  H12B 6844   7.014   2.455   6.617 -0.8655  0.2530  1.6409
   54DOPE   C11 6845   7.129   2.347   6.768 -0.3834  0.0215  1.0638
   54DOPE  H11A 6846   7.233   2.353   6.807 -0.1081 -0.1608  0.3604
   54DOPE  H11B 6847   7.106   2.247   6.725 -0.6745  0.8351 -0.7552
   54DOPE     P 6848   7.048   2.301   7.000 -0.6970  0.1254 -0.2503
   54DOPE   O13 6849   7.115   2.165   6.987  0.2385  0.0884  0.1071
   54DOPE   O14 6850   6.905   2.308   7.046  0.1797 -0.0132  0.6653
   54DOPE   O11 6851   7.143   2.370   7.105 -0.2347 -0.1868  0.2262
   54DOPE   O12 6852   7.042   2.387   6.866 -0.2043  0.0513 -0.0475
   54DOPE    C1 6853   7.127   2.517   7.116 -0.7309  0.3496 -0.2325
   54DOPE    HA 6854   7.023   2.548   7.094 -0.2043  1.2051 -1.6698
   54DOPE    HB 6855   7.186   2.571   7.039  0.0159 -0.5314 -0.3036
   54DOPE    C2 6856   7.171   2.577   7.258  0.0572 -0.0979  0.1442
   54DOPE    HS 6857   7.149   2.686   7.252  1.7919  0.2282 -0.8452
   54DOPE   O21 6858   7.310   2.556   7.284 -0.1651 -0.0236 -0.6257
   54DOPE   C21 6859   7.390   2.621   7.206 -0.8087 -0.5233 -0.0511
   54DOPE   O22 6860   7.361   2.711   7.125 -0.4214 -0.2042 -0.6598
   54DOPE   C22 6861   7.536   2.591   7.235 -0.7398  0.7748 -0.1324
   54DOPE   H2R 6862   7.553   2.507   7.163 -3.5806  1.1026 -1.3496
   54DOPE   H2S 6863   7.548   2.542   7.333 -0.9622 -0.5657 -0.7433
   54DOPE    C3 6864   7.104   2.507   7.369 -0.1289  0.4756 -0.7468
   54DOPE    HX 6865   7.143   2.406   7.392  2.8005  1.6171 -0.2183
   54DOPE    HY 6866   6.997   2.492   7.344 -0.1759  0.4335 -0.5294
   54DOPE   O31 6867   7.117   2.582   7.494  0.0972 -0.2943 -0.0574
   54DOPE   C31 6868   7.214   2.541   7.569 -0.4270  0.8702 -0.4791
   54DOPE   O32 6869   7.287   2.445   7.552  0.1730 -0.0150 -0.2356
   54DOPE   C32 6870   7.230   2.642   7.679 -0.1223 -0.4143  0.2586
   54DOPE   H2X 6871   7.235   2.743   7.632  0.9219 -1.3450 -1.7567
   54DOPE   H2Y 6872   7.144   2.622   7.746 -1.0280 -1.5264 -1.1783
   54DOPE   C23 6873   7.635   2.706   7.206 -0.5108 -0.4327 -0.1262
   54DOPE   H3R 6874   7.630   2.735   7.099 -0.7078 -0.5821 -0.1576
   54DOPE   H3S 6875   7.743   2.681   7.212 -0.1015  0.9720 -1.1645
   54DOPE   C24 6876   7.601   2.834   7.287  0.4575 -0.2183  0.2311
   54DOPE   H4R 6877   7.502   2.876   7.259  1.0590  0.3618 -1.1128
   54DOPE   H4S 6878   7.659   2.915   7.239 -1.0920  2.1021  2.0153
   54DOPE   C25 6879   7.637   2.808   7.437  0.6011 -0.1527  0.1828
   54DOPE   H5R 6880   7.747   2.787   7.434  0.2156 -2.7114 -3.8037
   54DOPE   H5S 6881   7.581   2.722   7.479  0.8073 -0.4519 -0.1456
   54DOPE   C26 6882   7.630   2.937   7.527  0.6052 -0.4013 -0.2159
   54DOPE   H6R 6883   7.529   2.966   7.563  1.8333  2.9541  0.9455
   54DOPE   H6S 6884   7.663   3.021   7.462  0.3570  0.3725  0.6334
   54DOPE   C27 6885   7.714   2.914   7.658 -0.2885  0.7142  0.6071
   54DOPE   H7R 6886   7.820   2.892   7.632 -0.0602  0.8089  1.4000
   54DOPE   H7S 6887   7.655   2.837   7.712 -2.3793  2.4166  0.9083
   54DOPE   C28 6888   7.725   3.036   7.748 -0.1165 -0.5299  0.0976
   54DOPE   H8R 6889   7.789   3.004   7.833 -1.6290  0.0471  1.5010
   54DOPE   H8S 6890   7.621   3.050   7.786  0.1078  0.9568  0.2058
   54DOPE   C29 6891   7.783   3.164   7.689 -0.3905 -0.5911 -0.6533
   54DOPE   H9R 6892   7.709   3.204   7.618 -0.6508  1.3681  0.6151
   54DOPE  C210 6893   7.893   3.237   7.734 -0.4276 -0.2370  0.3784
   54DOPE  H10R 6894   7.921   3.334   7.691  1.4611 -0.7073  0.4621
   54DOPE  C211 6895   7.992   3.205   7.844 -0.1315  0.9396 -0.0756
   54DOPE  H11R 6896   8.093   3.208   7.799  0.3103 -0.9714  0.7373
   54DOPE  H11S 6897   7.995   3.100   7.880  0.8924  0.7536 -0.6638
   54DOPE  C212 6898   7.976   3.305   7.961  0.2887  0.4493  0.7980
   54DOPE  H12R 6899   7.880   3.282   8.012 -0.5798 -0.4090 -1.1439
   54DOPE  H12S 6900   7.964   3.412   7.931  2.9452  0.9654  1.2859
   54DOPE  C213 6901   8.090   3.305   8.067  0.0178  0.8154  0.0618
   54DOPE  H13R 6902   8.056   3.367   8.153  0.6277  1.0522  0.1387
   54DOPE  H13S 6903   8.179   3.356   8.026  0.3002 -1.1283 -1.8983
   54DOPE  C214 6904   8.134   3.168   8.117 -0.6346 -0.4822 -0.4231
   54DOPE  H14R 6905   8.173   3.114   8.028 -0.4145  0.3989 -0.8678
   54DOPE  H14S 6906   8.043   3.111   8.148 -0.0782 -1.7011 -0.9637
   54DOPE  C215 6907   8.237   3.162   8.235  0.2783 -0.5462  0.1867
   54DOPE  H15R 6908   8.254   3.057   8.267  1.4132 -1.0163 -1.8163
   54DOPE  H15S 6909   8.207   3.222   8.324  0.9985 -1.0325  0.7674
   54DOPE  C216 6910   8.375   3.221   8.186 -0.1776  0.2746 -0.1154
   54DOPE  H16R 6911   8.361   3.331   8.186  1.5633  0.5247  0.8425
   54DOPE  H16S 6912   8.402   3.196   8.081 -0.1025  0.4017 -0.1275
   54DOPE  C217 6913   8.496   3.192   8.269 -1.0692  0.0816  0.6394
   54DOPE  H17R 6914   8.514   3.082   8.270  0.3207  0.2937  0.9197
   54DOPE  H17S 6915   8.487   3.228   8.373  1.1078 -1.1698  1.3211
   54DOPE  C218 6916   8.614   3.281   8.232  0.3053 -0.1300  0.4292
   54DOPE  H18R 6917   8.587   3.388   8.233  0.3142 -0.1258  1.5366
   54DOPE  H18S 6918   8.638   3.256   8.126 -0.8954  1.6125 -0.2940
   54DOPE  H18T 6919   8.699   3.267   8.302 -0.3547 -2.1891  0.9032
   54DOPE   C33 6920   7.376   2.620   7.738  0.3834 -0.1956 -0.1651
   54DOPE   H3X 6921   7.456   2.661   7.672  0.1401 -1.6713 -1.4377
   54DOPE   H3Y 6922   7.391   2.511   7.753 -2.0755 -0.7110 -0.8801
   54DOPE   C34 6923   7.390   2.677   7.880  0.7028 -0.6959 -0.4515
   54DOPE   H4X 6924   7.306   2.631   7.937  1.2241 -1.1572 -0.0460
   54DOPE   H4Y 6925   7.482   2.644   7.932 -0.8419 -3.9950  0.4892
   54DOPE   C35 6926   7.370   2.834   7.894 -0.3188  0.3857  0.8233
   54DOPE   H5X 6927   7.275   2.855   7.841  0.4763 -0.4071 -0.9888
   54DOPE   H5Y 6928   7.455   2.883   7.842 -0.3395 -0.1027  0.3216
   54DOPE   C36 6929   7.361   2.880   8.042 -0.0713  0.2655 -0.0303
   54DOPE   H6X 6930   7.372   2.789   8.104 -0.2887  0.8083  0.8218
   54DOPE   H6Y 6931   7.260   2.912   8.078  0.7108  0.7817  1.8197
   54DOPE   C37 6932   7.473   2.978   8.077 -0.3645  0.3238  0.3906
   54DOPE   H7X 6933   7.568   2.928   8.048  0.4623  1.9914  0.1307
   54DOPE   H7Y 6934   7.466   3.069   8.014  1.5087  0.1190 -0.1677
   54DOPE   C38 6935   7.474   3.013   8.225  0.1404 -0.7713  0.2392
   54DOPE   H8X 6936   7.385   3.079   8.233 -0.1534 -0.8619 -1.6667
   54DOPE   H8Y 6937   7.560   3.078   8.249  1.8336 -2.2002 -1.6184
   54DOPE   C39 6938   7.471   2.901   8.324  0.3549 -0.3646 -0.6026
   54DOPE   H9X 6939   7.559   2.840   8.298  0.1816 -0.1086 -1.8152
   54DOPE  C310 6940   7.378   2.855   8.408 -0.4214  0.2109  0.4682
   54DOPE  H10X 6941   7.404   2.770   8.473  2.4705  0.7642  0.1635
   54DOPE  C311 6942   7.244   2.924   8.432  0.6468 -0.3204  0.0879
   54DOPE  H11X 6943   7.242   3.022   8.379  1.1375  0.3497  1.2638
   54DOPE  H11Y 6944   7.159   2.862   8.398  0.4955  0.0083 -0.1501
   54DOPE  C312 6945   7.235   2.963   8.583 -0.0009  0.2347  0.3070
   54DOPE  H12X 6946   7.165   3.049   8.584 -0.3045  0.0804 -1.9595
   54DOPE  H12Y 6947   7.334   2.997   8.621 -0.5543  1.4909  0.6847
   54DOPE  C313 6948   7.183   2.857   8.673  0.0409  0.4996 -0.2906
   54DOPE  H13X 6949   7.096   2.802   8.631  0.8439 -1.2364  0.2025
   54DOPE  H13Y 6950   7.258   2.777   8.695 -0.1907  0.1089 -0.8878
   54DOPE  C314 6951   7.125   2.913   8.808 -0.2600  0.1007 -0.6143
   54DOPE  H14X 6952   7.059   3.000   8.791  0.7541  0.8842 -0.5965
   54DOPE  H14Y 6953   7.209   2.942   8.875 -1.0862  0.2377  0.3875
   54DOPE  C315 6954   7.034   2.808   8.877 -0.3758  0.8355 -0.1644
   54DOPE  H15X 6955   7.099   2.729   8.922 -1.4804  1.2029  2.2476
   54DOPE  H15Y 6956   6.958   2.769   8.807 -0.7862  0.3725  0.5224
   54DOPE  C316 6957   6.953   2.887   8.989 -0.0790 -0.5732 -0.4505
   54DOPE  H16X 6958   6.928   2.992   8.962  0.3228 -0.4800 -0.4682
   54DOPE  H16Y 6959   7.026   2.901   9.072 -0.8444 -1.6874  0.4361
   54DOPE  C317 6960   6.838   2.808   9.051 -0.0712  0.1535  0.3656
   54DOPE  H17X 6961   6.749   2.801   8.985  0.9507 -1.3536 -0.9110
   54DOPE  H17Y 6962   6.878   2.706   9.073 -0.2832  0.8425  4.9909
   54DOPE  C318 6963   6.786   2.868   9.180  0.0810  0.2980  0.5204
   54DOPE  H18X 6964   6.741   2.967   9.158  0.1184  0.2061  0.0106
   54DOPE  H18Y 6965   6.704   2.808   9.226 -2.4569  3.7517  0.8403
   54DOPE  H18Z 6966   6.873   2.887   9.247  1.7961 -0.5021 -1.3465
   55DOPE     N 6967   0.254   4.331   6.889  0.0426  0.0041 -0.2762
   55DOPE   HN1 6968   0.171   4.386   6.856 -0.3995 -1.3640 -1.5808
   55DOPE   HN2 6969   0.323   4.396   6.931 -0.3398 -1.9471  3.8419
   55DOPE   HN3 6970   0.298   4.289   6.804  1.2145 -0.3050  0.4694
   55DOPE   C12 6971   0.214   4.237   6.994  0.0892 -0.4626  0.0372
   55DOPE  H12A 6972   0.279   4.147   6.981  0.4042  0.2663 -5.3265
   55DOPE  H12B 6973   0.111   4.197   6.986 -0.1192  0.1751 -0.4904
   55DOPE   C11 6974   0.239   4.298   7.132 -0.6431 -0.1607  0.0130
   55DOPE  H11A 6975   0.203   4.238   7.217  2.1194 -1.0773  0.6513
   55DOPE  H11B 6976   0.165   4.381   7.134  1.2822  1.6809 -1.0687
   55DOPE     P 6977   0.483   4.278   7.220 -0.2743 -0.4846  0.5226
   55DOPE   O13 6978   0.596   4.368   7.229  0.1101 -0.3792  0.4901
   55DOPE   O14 6979   0.506   4.158   7.143 -0.1465  0.0212 -0.5259
   55DOPE   O11 6980   0.421   4.257   7.360  0.5149 -0.1518  0.5212
   55DOPE   O12 6981   0.367   4.352   7.143 -0.1509  0.3863 -0.4108
   55DOPE    C1 6982   0.415   4.365   7.453 -0.0302  0.8605  0.7472
   55DOPE    HA 6983   0.414   4.465   7.404 -0.4095 -0.1692 -1.4348
   55DOPE    HB 6984   0.503   4.350   7.519 -0.1299 -1.7303  0.3968
   55DOPE    C2 6985   0.283   4.358   7.530  0.5137 -0.2337 -0.1356
   55DOPE    HS 6986   0.197   4.341   7.462  1.3776 -1.7293 -0.9021
   55DOPE   O21 6987   0.265   4.473   7.621  0.3966  0.0136  0.0185
   55DOPE   C21 6988   0.206   4.581   7.580 -0.0430 -0.1807  0.7630
   55DOPE   O22 6989   0.166   4.601   7.467 -0.2952 -0.0461 -0.8478
   55DOPE   C22 6990   0.209   4.679   7.694  0.4730  0.0201 -0.0510
   55DOPE   H2R 6991   0.316   4.709   7.696  0.2621  0.8114 -0.2205
   55DOPE   H2S 6992   0.195   4.629   7.792  1.9093  1.2858  0.8308
   55DOPE    C3 6993   0.283   4.221   7.612 -0.4017  0.3836 -0.0559
   55DOPE    HX 6994   0.360   4.212   7.691 -0.1412 -0.5802 -0.4050
   55DOPE    HY 6995   0.315   4.145   7.538  0.5236  0.8260 -0.1240
   55DOPE   O31 6996   0.153   4.189   7.665  0.1072 -0.1774 -0.1569
   55DOPE   C31 6997   0.131   4.211   7.791  0.1506 -0.0793  0.5994
   55DOPE   O32 6998   0.206   4.268   7.871  0.6625  0.4400  0.5403
   55DOPE   C32 6999  -0.009   4.162   7.821  0.5411 -0.2409  0.0990
   55DOPE   H2X 7000  -0.078   4.222   7.758 -1.2695  0.0681  2.2554
   55DOPE   H2Y 7001  -0.020   4.057   7.789  0.6333 -0.2840  0.2072
   55DOPE   C23 7002   0.101   4.790   7.673 -0.1862  0.2043 -0.3564
   55DOPE   H3R 7003   0.118   4.846   7.579  1.0777  0.4789  0.0078
   55DOPE   H3S 7004   0.127   4.883   7.729 -2.3579 -0.5584  2.1545
   55DOPE   C24 7005  -0.044   4.743   7.695 -0.0817 -0.4747  0.6025
   55DOPE   H4R 7006  -0.065   4.660   7.624  0.7249 -1.1752  1.1560
   55DOPE   H4S 7007  -0.113   4.822   7.659 -0.4079 -1.2314 -0.4807
   55DOPE   C25 7008  -0.082   4.699   7.834  0.5635  0.0501  0.4895
   55DOPE   H5R 7009  -0.021   4.750   7.912  1.0037  0.8279 -0.3445
   55DOPE   H5S 7010  -0.059   4.590   7.835  0.7159  0.0545 -0.7674
   55DOPE   C26 7011  -0.231   4.727   7.862 -0.6052  0.4034 -0.6964
   55DOPE   H6R 7012  -0.294   4.697   7.775 -1.4753 -0.3671  0.1854
   55DOPE   H6S 7013  -0.245   4.837   7.875  0.8389  0.5238  0.0402
   55DOPE   C27 7014  -0.281   4.654   7.989  0.3422  0.2663 -0.1117
   55DOPE   H7R 7015  -0.210   4.683   8.069 -1.2819  0.8440  1.1641
   55DOPE   H7S 7016  -0.262   4.545   7.973 -1.7621 -0.1484 -0.0868
   55DOPE   C28 7017  -0.428   4.671   8.032 -0.1799  0.2219  0.3844
   55DOPE   H8R 7018  -0.488   4.595   7.977  1.9014 -0.5632 -0.9128
   55DOPE   H8S 7019  -0.456   4.774   8.002  1.5280  1.2900  2.1768
   55DOPE   C29 7020  -0.444   4.649   8.181 -0.1806 -0.1669  0.5025
   55DOPE   H9R 7021  -0.397   4.555   8.213 -1.7852 -1.8857 -1.8545
   55DOPE  C210 7022  -0.501   4.731   8.266 -0.0481  0.0864 -0.4193
   55DOPE  H10R 7023  -0.508   4.705   8.372 -0.7821 -0.8651 -0.6974
   55DOPE  C211 7024  -0.565   4.858   8.232  1.1581  0.3412  1.0159
   55DOPE  H11R 7025  -0.674   4.838   8.237  0.9268  1.7418  2.7632
   55DOPE  H11S 7026  -0.550   4.904   8.132 -2.3739 -0.9093 -0.2376
   55DOPE  C212 7027  -0.542   4.963   8.345  0.1222 -0.0830  0.1386
   55DOPE  H12R 7028  -0.581   5.058   8.303  0.2092  0.3164  0.9529
   55DOPE  H12S 7029  -0.437   4.984   8.374  0.8429 -0.4280 -2.0007
   55DOPE  C213 7030  -0.624   4.939   8.475 -0.0134  0.2565 -0.0381
   55DOPE  H13R 7031  -0.582   5.027   8.527  2.0947 -1.5654  1.5706
   55DOPE  H13S 7032  -0.589   4.846   8.526  0.4696 -0.4633 -1.6098
   55DOPE  C214 7033  -0.773   4.945   8.459  0.1341 -0.1371  0.2116
   55DOPE  H14R 7034  -0.829   4.849   8.451 -0.9725  0.6308 -4.1183
   55DOPE  H14S 7035  -0.802   5.016   8.379  2.9801 -0.1966 -0.9605
   55DOPE  C215 7036  -0.844   5.011   8.581 -0.2935 -0.2999 -0.2738
   55DOPE  H15R 7037  -0.835   4.935   8.662  2.0014  0.9151  0.7119
   55DOPE  H15S 7038  -0.950   5.025   8.552 -0.5828 -0.2361  0.7643
   55DOPE  C216 7039  -0.784   5.139   8.645  0.4247 -0.8916 -0.0260
   55DOPE  H16R 7040  -0.785   5.218   8.567  1.4081 -0.5707  0.2767
   55DOPE  H16S 7041  -0.679   5.129   8.679  0.8575  3.0274  0.2924
   55DOPE  C217 7042  -0.870   5.198   8.758  0.7811 -0.4177  0.1573
   55DOPE  H17R 7043  -0.946   5.253   8.699  1.0847 -0.0328  0.1175
   55DOPE  H17S 7044  -0.798   5.274   8.796 -0.4626  0.9676 -0.1611
   55DOPE  C218 7045  -0.918   5.116   8.880 -0.0219  0.1890  0.0065
   55DOPE  H18R 7046  -0.833   5.065   8.930 -0.3696  1.7486  2.3503
   55DOPE  H18S 7047  -0.993   5.044   8.839 -1.1683  0.9391  0.7143
   55DOPE  H18T 7048  -0.974   5.170   8.960  0.9814  1.5441 -0.1686
   55DOPE   C33 7049  -0.045   4.186   7.965  0.2068  0.1225  0.0518
   55DOPE   H3X 7050  -0.060   4.293   7.989  1.2748  0.9046 -2.4116
   55DOPE   H3Y 7051   0.035   4.149   8.034  0.4376  2.3544  1.0513
   55DOPE   C34 7052  -0.183   4.126   8.011 -0.4381 -0.2009  0.0485
   55DOPE   H4X 7053  -0.266   4.152   7.942 -0.9700  1.0955  1.1396
   55DOPE   H4Y 7054  -0.167   4.016   8.016  0.1103 -0.2052  6.4941
   55DOPE   C35 7055  -0.218   4.159   8.158 -0.2944 -0.6254  0.2007
   55DOPE   H5X 7056  -0.250   4.263   8.180  0.0259 -0.7244  1.1784
   55DOPE   H5Y 7057  -0.123   4.153   8.215 -0.6746  0.6245  1.0119
   55DOPE   C36 7058  -0.319   4.066   8.223 -0.2527 -0.3490 -0.4885
   55DOPE   H6X 7059  -0.329   4.087   8.332  1.2091 -4.2631  0.5897
   55DOPE   H6Y 7060  -0.271   3.966   8.223  3.4265  1.2480 -1.8026
   55DOPE   C37 7061  -0.451   4.052   8.144 -0.2966  0.2138 -0.5119
   55DOPE   H7X 7062  -0.494   4.155   8.141 -0.8594 -0.0376 -2.0224
   55DOPE   H7Y 7063  -0.432   4.005   8.046 -0.9641  0.0283 -0.5598
   55DOPE   C38 7064  -0.555   3.957   8.221  0.1460  0.0264 -0.5144
   55DOPE   H8X 7065  -0.584   3.993   8.322  2.0404 -0.9654  0.4353
   55DOPE   H8Y 7066  -0.503   3.862   8.244  0.4294  0.2969 -0.0198
   55DOPE   C39 7067  -0.681   3.936   8.138  0.4922 -0.4790 -0.1551
   55DOPE   H9X 7068  -0.726   4.028   8.097 -1.8773 -0.7455  1.6495
   55DOPE  C310 7069  -0.731   3.822   8.097  0.0858  0.8674  0.0503
   55DOPE  H10X 7070  -0.814   3.826   8.025  0.7855  0.6765 -0.7966
   55DOPE  C311 7071  -0.693   3.679   8.137  0.1572 -0.3493  0.0082
   55DOPE  H11X 7072  -0.590   3.676   8.178  1.0299 -3.8124 -1.9774
   55DOPE  H11Y 7073  -0.768   3.649   8.213 -2.0221  1.4358 -1.3331
   55DOPE  C312 7074  -0.699   3.578   8.024  0.1626 -0.0951 -0.2999
   55DOPE  H12X 7075  -0.802   3.553   7.990 -0.2220  0.8222  0.1359
   55DOPE  H12Y 7076  -0.649   3.487   8.062 -1.2642 -0.1258  1.6956
   55DOPE  C313 7077  -0.623   3.613   7.898  0.1446  0.4748 -0.2677
   55DOPE  H13X 7078  -0.684   3.694   7.851 -1.1585 -0.4295 -0.1704
   55DOPE  H13Y 7079  -0.521   3.653   7.921  0.1017  0.9157 -0.8327
   55DOPE  C314 7080  -0.631   3.501   7.794 -0.1582 -0.1805  0.2360
   55DOPE  H14X 7081  -0.593   3.533   7.695  1.4881  4.0430  2.0102
   55DOPE  H14Y 7082  -0.739   3.475   7.785  0.2450 -1.7884 -0.2281
   55DOPE  C315 7083  -0.560   3.372   7.827 -0.5203 -0.0686  0.0684
   55DOPE  H15X 7084  -0.621   3.312   7.898 -0.5214 -0.1499 -0.0006
   55DOPE  H15Y 7085  -0.461   3.405   7.864 -0.1148 -0.1971 -0.8781
   55DOPE  C316 7086  -0.543   3.279   7.704 -0.2495  0.0393  0.0374
   55DOPE  H16X 7087  -0.493   3.338   7.625  0.2088 -0.5563 -0.1315
   55DOPE  H16Y 7088  -0.635   3.240   7.654  1.2023 -1.2808 -1.7293
   55DOPE  C317 7089  -0.453   3.160   7.739 -0.1626 -0.5600 -0.6367
   55DOPE  H17X 7090  -0.366   3.190   7.801 -0.1338  1.6806 -1.6630
   55DOPE  H17Y 7091  -0.512   3.092   7.804 -0.3072  0.5526  0.4431
   55DOPE  C318 7092  -0.409   3.085   7.614  0.0320  0.5658  0.6799
   55DOPE  H18X 7093  -0.499   3.060   7.553 -0.5524  1.1966  1.2781
   55DOPE  H18Y 7094  -0.343   3.155   7.559 -0.4180 -0.2937 -1.0339
   55DOPE  H18Z 7095  -0.352   2.995   7.646 -0.7400 -0.2087 -0.0650
   56DOPE     N 7096   7.537   5.610   7.142 -0.0129  0.1379 -0.1540
   56DOPE   HN1 7097   7.545   5.583   7.042 -2.1760  0.3149 -0.4272
   56DOPE   HN2 7098   7.483   5.530   7.180  0.6811 -0.9348 -1.3282
   56DOPE   HN3 7099   7.486   5.698   7.163 -0.3416  0.2184 -1.2361
   56DOPE   C12 7100   7.670   5.609   7.214  0.0993  0.2262  0.1674
   56DOPE  H12A 7101   7.725   5.519   7.179 -0.0622 -0.3597  1.3790
   56DOPE  H12B 7102   7.649   5.586   7.321  1.1669 -1.9632 -0.0473
   56DOPE   C11 7103   7.753   5.737   7.199 -0.6106 -0.2339  0.0031
   56DOPE  H11A 7104   7.809   5.747   7.294 -0.0348  1.3560 -0.4558
   56DOPE  H11B 7105   7.680   5.821   7.198  0.2666  0.5589  0.3557
   56DOPE     P 7106   7.956   5.652   7.050  0.3255  0.0536 -0.1209
   56DOPE   O13 7107   8.042   5.740   6.967 -0.0540 -0.6409  0.1260
   56DOPE   O14 7108   7.926   5.522   6.987  0.2263 -0.0939 -0.3812
   56DOPE   O11 7109   8.025   5.624   7.192  0.0163  0.3461 -0.1158
   56DOPE   O12 7110   7.830   5.742   7.082  0.4974  0.3631 -0.1028
   56DOPE    C1 7111   8.097   5.732   7.247 -0.4907 -0.5280  0.2599
   56DOPE    HA 7112   8.031   5.813   7.284 -0.3878  0.2723 -1.2235
   56DOPE    HB 7113   8.155   5.789   7.171 -1.2742  1.8151  1.3274
   56DOPE    C2 7114   8.199   5.690   7.358 -0.7981 -0.5108 -0.0170
   56DOPE    HS 7115   8.268   5.621   7.306 -1.5128 -1.1815 -0.0989
   56DOPE   O21 7116   8.139   5.620   7.462 -0.1790  0.2751  0.3751
   56DOPE   C21 7117   8.222   5.538   7.542 -0.4577  0.4887  0.2029
   56DOPE   O22 7118   8.340   5.532   7.530 -0.2010 -0.2389 -0.0925
   56DOPE   C22 7119   8.133   5.468   7.647 -0.4173 -0.0996  0.2918
   56DOPE   H2R 7120   8.108   5.368   7.605  3.9677 -0.9661 -0.6988
   56DOPE   H2S 7121   8.039   5.525   7.660  0.0959  0.7519  0.3156
   56DOPE    C3 7122   8.278   5.814   7.406 -0.0308  0.2598  0.0440
   56DOPE    HX 7123   8.346   5.854   7.327  2.2511  0.5340  2.0533
   56DOPE    HY 7124   8.355   5.781   7.478 -1.1196 -0.9540  0.6999
   56DOPE   O31 7125   8.193   5.913   7.460 -0.1497 -0.0643 -0.6269
   56DOPE   C31 7126   8.254   6.029   7.483 -0.2747  0.2077 -0.2976
   56DOPE   O32 7127   8.376   6.045   7.479 -0.1657  0.6299 -0.3839
   56DOPE   C32 7128   8.154   6.138   7.504 -0.2171  0.4528  0.1570
   56DOPE   H2X 7129   8.190   6.217   7.435  1.1889 -1.2321 -1.1380
   56DOPE   H2Y 7130   8.051   6.111   7.470 -0.7942 -0.2935  2.3080
   56DOPE   C23 7131   8.182   5.465   7.797  0.1329  0.6233  0.4691
   56DOPE   H3R 7132   8.222   5.566   7.818 -2.1285  2.1234 -1.9583
   56DOPE   H3S 7133   8.269   5.396   7.798 -1.1418 -1.0519  1.3954
   56DOPE   C24 7134   8.066   5.444   7.892 -0.1566  0.0697 -0.4290
   56DOPE   H4R 7135   8.023   5.343   7.878  1.3132 -0.5734 -0.5152
   56DOPE   H4S 7136   7.981   5.508   7.860 -0.0578 -0.1843 -1.2225
   56DOPE   C25 7137   8.102   5.469   8.044  0.0991  0.7660 -0.2319
   56DOPE   H5R 7138   8.157   5.565   8.046  1.6834 -0.1201  0.7290
   56DOPE   H5S 7139   8.178   5.400   8.086 -1.0069  0.5233  1.4796
   56DOPE   C26 7140   7.982   5.488   8.139 -0.1668 -0.2386  0.0163
   56DOPE   H6R 7141   7.924   5.393   8.137  0.3666 -0.5631 -0.1539
   56DOPE   H6S 7142   7.911   5.563   8.099  0.2569  0.7404  1.0413
   56DOPE   C27 7143   8.019   5.524   8.280 -0.5738 -0.0992 -0.5003
   56DOPE   H7R 7144   7.928   5.563   8.330 -1.1804  0.7828 -2.2173
   56DOPE   H7S 7145   8.102   5.598   8.272  0.2699 -1.1415 -1.8075
   56DOPE   C28 7146   8.070   5.405   8.363  0.0823 -0.0024 -0.0122
   56DOPE   H8R 7147   8.084   5.433   8.470  3.0032 -1.5471  0.0942
   56DOPE   H8S 7148   8.167   5.367   8.325 -0.2848 -2.4999  1.3171
   56DOPE   C29 7149   7.984   5.278   8.372 -0.1088  0.0916 -0.5324
   56DOPE   H9R 7150   7.990   5.204   8.291 -1.9639 -1.1413  0.3762
   56DOPE  C210 7151   7.887   5.264   8.464 -0.4033  0.0233 -0.5295
   56DOPE  H10R 7152   7.835   5.167   8.460 -0.6559  0.1187  0.2960
   56DOPE  C211 7153   7.860   5.350   8.585 -0.3076  0.2291  0.5386
   56DOPE  H11R 7154   7.790   5.433   8.562  1.3969  1.9757  1.3715
   56DOPE  H11S 7155   7.944   5.408   8.628 -1.6226  2.8245 -0.1894
   56DOPE  C212 7156   7.811   5.264   8.702 -0.4451  0.1131 -0.2454
   56DOPE  H12R 7157   7.720   5.202   8.682  0.9394 -1.3869 -2.3606
   56DOPE  H12S 7158   7.781   5.324   8.791  2.1114 -0.0484  0.7913
   56DOPE  C213 7159   7.917   5.159   8.755  0.8314 -0.7867  0.8899
   56DOPE  H13R 7160   8.001   5.209   8.806  1.4544 -2.8915  2.0425
   56DOPE  H13S 7161   7.960   5.104   8.668  0.4918  1.6732 -0.9574
   56DOPE  C214 7162   7.876   5.053   8.854 -1.1408 -0.5030 -0.7512
   56DOPE  H14R 7163   7.971   5.000   8.875  0.6588  3.0607  1.0893
   56DOPE  H14S 7164   7.803   4.985   8.804 -0.1861 -1.4528 -0.8836
   56DOPE  C215 7165   7.828   5.106   8.991 -0.0834 -0.2522  0.6374
   56DOPE  H15R 7166   7.751   5.182   8.966  2.3193  2.0511 -0.2415
   56DOPE  H15S 7167   7.907   5.167   9.041  0.8821  0.0370 -1.1563
   56DOPE  C216 7168   7.767   5.007   9.082 -0.6225 -0.5539  0.3017
   56DOPE  H16R 7169   7.815   4.907   9.080  4.0842  1.4042  1.2400
   56DOPE  H16S 7170   7.662   4.992   9.052  0.0205 -1.8005 -1.4499
   56DOPE  C217 7171   7.774   5.051   9.230 -0.4281 -0.2473 -0.5401
   56DOPE  H17R 7172   7.688   4.997   9.275 -1.7996  0.3741 -2.2786
   56DOPE  H17S 7173   7.751   5.160   9.236  1.5963  0.2944 -1.4626
   56DOPE  C218 7174   7.903   5.017   9.303  0.1066 -0.8240 -0.2974
   56DOPE  H18R 7175   7.932   4.911   9.286  0.8175 -0.3022 -2.8004
   56DOPE  H18S 7176   7.892   5.047   9.409  1.1561  1.0847 -0.6821
   56DOPE  H18T 7177   7.997   5.068   9.272 -1.5743  1.5653 -1.7805
   56DOPE   C33 7178   8.150   6.191   7.644 -0.4168  0.6032  0.3023
   56DOPE   H3X 7179   8.069   6.267   7.657 -1.2781 -0.1900 -0.2500
   56DOPE   H3Y 7180   8.243   6.242   7.674 -0.5192  0.6821  0.4855
   56DOPE   C34 7181   8.109   6.082   7.742  0.2646  1.2424 -1.1690
   56DOPE   H4X 7182   8.067   6.138   7.829  0.5609  0.5527 -0.5638
   56DOPE   H4Y 7183   8.035   6.006   7.708  0.8634 -1.0934  2.2121
   56DOPE   C35 7184   8.232   6.008   7.804  0.5964 -0.1126 -0.0202
   56DOPE   H5X 7185   8.315   6.070   7.844  0.5349  0.9570 -1.4748
   56DOPE   H5Y 7186   8.284   5.957   7.720 -1.5726  0.6035 -1.9240
   56DOPE   C36 7187   8.190   5.903   7.911  0.5518 -0.1808  0.4132
   56DOPE   H6X 7188   8.286   5.866   7.953  1.4385  0.8315 -0.6296
   56DOPE   H6Y 7189   8.137   5.821   7.859  0.3722 -0.3895  0.9159
   56DOPE   C37 7190   8.103   5.964   8.027 -0.7895 -0.0010 -0.4251
   56DOPE   H7X 7191   8.131   6.071   8.035  0.6369 -0.3947  0.1829
   56DOPE   H7Y 7192   7.995   5.951   8.003 -0.7332 -2.8063  0.4533
   56DOPE   C38 7193   8.123   5.900   8.163  0.2019 -0.1812 -0.1615
   56DOPE   H8X 7194   8.231   5.878   8.178  0.3611 -0.0333 -1.0146
   56DOPE   H8Y 7195   8.068   5.803   8.160 -1.0794  0.4071  2.1792
   56DOPE   C39 7196   8.050   5.982   8.271 -0.4151  0.1568 -0.3742
   56DOPE   H9X 7197   7.955   6.032   8.245 -0.5151  0.1702  0.0128
   56DOPE  C310 7198   8.072   5.971   8.406  0.3361 -0.1586  0.3773
   56DOPE  H10X 7199   8.004   6.031   8.469  1.1943  1.7546 -0.4515
   56DOPE  C311 7200   8.174   5.879   8.475 -0.5796 -0.3557  1.1453
   56DOPE  H11X 7201   8.241   5.833   8.400 -0.4643  1.4931  0.0515
   56DOPE  H11Y 7202   8.233   5.929   8.554 -1.3861 -0.4807  1.8365
   56DOPE  C312 7203   8.100   5.760   8.525 -0.1597 -0.5847 -0.0789
   56DOPE  H12X 7204   8.165   5.673   8.544 -0.4589 -0.8969 -0.4823
   56DOPE  H12Y 7205   8.034   5.724   8.443 -0.0401  1.3003 -1.0722
   56DOPE  C313 7206   8.017   5.795   8.650  0.0681 -0.0138  0.0671
   56DOPE  H13X 7207   8.083   5.838   8.729  0.7067 -1.9171  0.6263
   56DOPE  H13Y 7208   7.941   5.872   8.624 -1.9069 -1.3272  1.6215
   56DOPE  C314 7209   7.942   5.668   8.699  0.5812 -0.3038  0.2063
   56DOPE  H14X 7210   8.028   5.607   8.734  1.9465  0.6721 -1.2924
   56DOPE  H14Y 7211   7.893   5.619   8.613  0.7866  0.5608 -0.4172
   56DOPE  C315 7212   7.859   5.705   8.821  0.2015  0.4209 -0.3304
   56DOPE  H15X 7213   7.791   5.790   8.796 -1.5238 -0.2213  1.9321
   56DOPE  H15Y 7214   7.922   5.747   8.902 -0.4745  0.2429  0.2901
   56DOPE  C316 7215   7.791   5.581   8.881 -0.1121 -0.3270 -0.1725
   56DOPE  H16X 7216   7.858   5.494   8.895 -0.7303 -0.7189  0.3908
   56DOPE  H16Y 7217   7.706   5.544   8.819 -0.2602 -1.1135  0.4877
   56DOPE  C317 7218   7.723   5.626   9.014  0.0189  0.3126  0.5186
   56DOPE  H17X 7219   7.804   5.682   9.065  2.6828 -0.4682 -2.5735
   56DOPE  H17Y 7220   7.636   5.693   8.994 -0.7653 -0.4546  1.2337
   56DOPE  C318 7221   7.671   5.505   9.097 -0.2507  0.1967  0.4225
   56DOPE  H18X 7222   7.580   5.458   9.053 -0.4582 -1.3144  2.3204
   56DOPE  H18Y 7223   7.750   5.426   9.090  1.9058  2.1816  1.1035
   56DOPE  H18Z 7224   7.651   5.536   9.202  0.8047  2.8005 -0.0798
   57DOPE     N 7225   7.267   1.352   6.947  0.4369  0.1564  0.3225
   57DOPE   HN1 7226   7.360   1.335   6.905 -0.6020 -1.4422 -1.5021
   57DOPE   HN2 7227   7.192   1.380   6.880  0.2397 -1.0320  0.0246
   57DOPE   HN3 7228   7.277   1.433   7.011 -0.9607  1.5060 -1.0636
   57DOPE   C12 7229   7.235   1.239   7.044  0.1155  0.5823 -0.0620
   57DOPE  H12A 7230   7.208   1.145   6.991 -0.8852  0.3708  0.7708
   57DOPE  H12B 7231   7.136   1.267   7.086 -1.3626 -0.5337 -2.5600
   57DOPE   C11 7232   7.341   1.224   7.154 -0.2022  0.9085  0.4246
   57DOPE  H11A 7233   7.426   1.178   7.100 -2.1681 -1.2457 -1.0176
   57DOPE  H11B 7234   7.295   1.165   7.236 -1.6023  1.3280 -0.0283
   57DOPE     P 7235   7.493   1.386   7.303  0.1816  0.0439 -0.3162
   57DOPE   O13 7236   7.445   1.493   7.393 -0.1964  0.1974  0.3057
   57DOPE   O14 7237   7.613   1.409   7.219 -0.1890  0.4831  0.0029
   57DOPE   O11 7238   7.523   1.252   7.390  0.5982  0.1126 -0.2702
   57DOPE   O12 7239   7.374   1.352   7.202 -0.2843  0.1403 -0.3055
   57DOPE    C1 7240   7.433   1.221   7.494  0.2168  0.4038 -0.1444
   57DOPE    HA 7241   7.390   1.119   7.483  0.2761  0.3984 -0.3494
   57DOPE    HB 7242   7.337   1.276   7.488  1.0091  1.7055 -1.6861
   57DOPE    C2 7243   7.516   1.221   7.626  0.4721 -0.1014 -0.5993
   57DOPE    HS 7244   7.615   1.178   7.600 -0.2725 -2.7503  0.6358
   57DOPE   O21 7245   7.451   1.144   7.728 -0.2953  0.0094 -0.0120
   57DOPE   C21 7246   7.528   1.064   7.796  0.4163 -0.2083 -0.4606
   57DOPE   O22 7247   7.645   1.040   7.777 -0.1037 -0.6184  0.2556
   57DOPE   C22 7248   7.456   1.005   7.915  0.0242  0.1954 -0.1943
   57DOPE   H2R 7249   7.371   0.945   7.874  0.0814 -0.4360  0.5888
   57DOPE   H2S 7250   7.409   1.083   7.977 -2.1328 -0.4386 -0.9480
   57DOPE    C3 7251   7.546   1.367   7.677  1.0423 -0.0333  0.0321
   57DOPE    HX 7252   7.451   1.424   7.691  1.0685  0.2304 -0.8116
   57DOPE    HY 7253   7.598   1.419   7.594  2.4608  0.4464  1.1750
   57DOPE   O31 7254   7.621   1.365   7.799  0.2513  0.3432  0.5556
   57DOPE   C31 7255   7.747   1.328   7.785 -0.7208 -0.0694 -0.0752
   57DOPE   O32 7256   7.811   1.328   7.679  0.8412  0.2732 -0.2342
   57DOPE   C32 7257   7.799   1.286   7.921  0.0400 -0.1354 -0.0589
   57DOPE   H2X 7258   7.719   1.309   7.995  1.3011  0.4150  1.1600
   57DOPE   H2Y 7259   7.821   1.177   7.916 -0.4228 -0.2401  0.1209
   57DOPE   C23 7260   7.547   0.908   8.000  0.0716  0.2464 -0.2754
   57DOPE   H3R 7261   7.603   0.837   7.936 -0.4923  0.0363 -0.5485
   57DOPE   H3S 7262   7.489   0.835   8.061  3.5242 -1.3576  1.3457
   57DOPE   C24 7263   7.635   0.986   8.103 -0.0000  0.5468 -0.2050
   57DOPE   H4R 7264   7.689   1.071   8.055 -1.4503 -0.1108 -3.2405
   57DOPE   H4S 7265   7.711   0.914   8.142  0.0265  0.1443 -0.9788
   57DOPE   C25 7266   7.560   1.035   8.235  0.4558 -0.0148  0.8168
   57DOPE   H5R 7267   7.490   0.957   8.272  2.0042 -1.9071 -0.0334
   57DOPE   H5S 7268   7.518   1.136   8.214  0.4762 -0.1025  0.3278
   57DOPE   C26 7269   7.653   1.041   8.360 -0.3003  0.2671  0.3228
   57DOPE   H6R 7270   7.702   0.942   8.375  0.4091  0.6706  0.7438
   57DOPE   H6S 7271   7.598   1.054   8.455 -2.4626  1.1887 -0.9878
   57DOPE   C27 7272   7.767   1.145   8.353  0.6261  0.7390 -0.3882
   57DOPE   H7R 7273   7.723   1.246   8.337  2.1559  1.5236  0.1871
   57DOPE   H7S 7274   7.820   1.130   8.256  0.9321 -0.1698 -0.0799
   57DOPE   C28 7275   7.876   1.145   8.463 -0.2619 -0.5667  0.4364
   57DOPE   H8R 7276   7.915   1.043   8.484 -1.0113 -0.6269  1.6489
   57DOPE   H8S 7277   7.824   1.165   8.559 -0.5820  0.3071  0.0866
   57DOPE   C29 7278   7.987   1.233   8.441 -0.3304 -0.1342  0.3833
   57DOPE   H9R 7279   8.046   1.229   8.349  1.4055  0.8749  1.4059
   57DOPE  C210 7280   8.045   1.297   8.545 -0.3085  0.2984  0.2403
   57DOPE  H10R 7281   8.139   1.352   8.525 -0.9481  1.8686  1.3328
   57DOPE  C211 7282   8.006   1.289   8.691 -0.6630 -0.1857  0.0158
   57DOPE  H11R 7283   7.997   1.185   8.729  0.1948 -0.3949 -0.3168
   57DOPE  H11S 7284   7.911   1.342   8.714 -0.3183  0.1272  0.7329
   57DOPE  C212 7285   8.116   1.374   8.763  0.1072  0.0029  0.6444
   57DOPE  H12R 7286   8.122   1.477   8.721 -0.2079  0.1096  0.8587
   57DOPE  H12S 7287   8.217   1.329   8.754  0.3545  0.9182 -2.2633
   57DOPE  C213 7288   8.076   1.390   8.913 -0.5669 -0.1450  1.6136
   57DOPE  H13R 7289   7.969   1.415   8.931 -1.1453 -2.1088  1.0697
   57DOPE  H13S 7290   8.129   1.477   8.959 -1.1155 -0.7676  3.4885
   57DOPE  C214 7291   8.116   1.271   8.997 -0.7633  0.2863 -0.2112
   57DOPE  H14R 7292   8.226   1.256   9.005 -0.4668  2.2316 -0.0969
   57DOPE  H14S 7293   8.065   1.188   8.944  1.4533 -0.0881 -1.9158
   57DOPE  C215 7294   8.064   1.280   9.141  0.2367 -0.0718 -0.4959
   57DOPE  H15R 7295   8.074   1.180   9.188 -0.6972 -0.7434 -1.6854
   57DOPE  H15S 7296   7.957   1.308   9.132  0.0830 -0.3955  0.2751
   57DOPE  C216 7297   8.136   1.383   9.226  0.5694 -0.6302  0.4876
   57DOPE  H16R 7298   8.103   1.384   9.332  2.1492 -1.5896  1.0225
   57DOPE  H16S 7299   8.106   1.483   9.190 -0.0666  0.3400  3.4183
   57DOPE  C217 7300   8.294   1.359   9.232  0.6551  0.0456  0.2248
   57DOPE  H17R 7301   8.340   1.359   9.131  3.1941  0.0377  1.2924
   57DOPE  H17S 7302   8.317   1.258   9.274 -1.0407  0.0441  1.2584
   57DOPE  C218 7303   8.353   1.461   9.326 -0.6090 -0.5320  0.3711
   57DOPE  H18R 7304   8.288   1.551   9.315 -0.9719 -0.8159  0.1617
   57DOPE  H18S 7305   8.461   1.479   9.310 -0.5775 -1.0204 -0.0073
   57DOPE  H18T 7306   8.337   1.435   9.433  0.0368  0.9533  0.8480
   57DOPE   C33 7307   7.922   1.363   7.971 -0.0224  0.2285  0.2820
   57DOPE   H3X 7308   7.949   1.322   8.071  0.2323  1.5993  0.7976
   57DOPE   H3Y 7309   7.895   1.469   7.994 -1.6650 -0.1030 -0.0071
   57DOPE   C34 7310   8.057   1.352   7.884  0.7221  0.1425  0.0772
   57DOPE   H4X 7311   8.108   1.253   7.890  0.3820 -0.0073  0.5725
   57DOPE   H4Y 7312   8.041   1.382   7.778  1.1633  1.4497  0.3574
   57DOPE   C35 7313   8.157   1.453   7.938  0.1762  0.4947 -0.1033
   57DOPE   H5X 7314   8.112   1.552   7.915  1.1301  1.0409  0.3344
   57DOPE   H5Y 7315   8.253   1.439   7.884  0.8477 -0.4227  1.2542
   57DOPE   C36 7316   8.208   1.436   8.088  0.8170  0.0742  0.7403
   57DOPE   H6X 7317   8.242   1.332   8.108 -3.1858 -1.2974  1.2008
   57DOPE   H6Y 7318   8.129   1.453   8.163 -0.5491  2.5956 -1.1102
   57DOPE   C37 7319   8.320   1.531   8.119  0.0636  0.2535  0.3144
   57DOPE   H7X 7320   8.408   1.518   8.052  0.9108  0.8535  1.2713
   57DOPE   H7Y 7321   8.291   1.636   8.098 -0.1866  0.2088  0.4325
   57DOPE   C38 7322   8.368   1.512   8.267 -0.0945 -0.6664  0.2745
   57DOPE   H8X 7323   8.405   1.408   8.255  0.6824 -0.4131  0.3778
   57DOPE   H8Y 7324   8.284   1.514   8.340  0.2884 -0.8456  0.7200
   57DOPE   C39 7325   8.481   1.604   8.313 -0.2435  0.9476 -0.0733
   57DOPE   H9X 7326   8.548   1.640   8.234 -1.5604  0.6657 -1.3874
   57DOPE  C310 7327   8.492   1.639   8.442 -0.0140 -0.7640  0.8435
   57DOPE  H10X 7328   8.574   1.708   8.463 -1.0580  0.4118  1.1820
   57DOPE  C311 7329   8.406   1.611   8.557  0.1082 -0.2955 -0.4993
   57DOPE  H11X 7330   8.306   1.574   8.526  0.4265  0.6507 -2.8549
   57DOPE  H11Y 7331   8.460   1.527   8.605  0.2782  0.4652  0.6713
   57DOPE  C312 7332   8.392   1.732   8.651 -0.5950  0.6726 -0.4176
   57DOPE  H12X 7333   8.343   1.816   8.597  1.9277  2.0062 -0.7807
   57DOPE  H12Y 7334   8.488   1.785   8.672 -1.1038  1.8278 -0.8852
   57DOPE  C313 7335   8.329   1.701   8.789  0.0363  0.0012 -0.9390
   57DOPE  H13X 7336   8.219   1.695   8.773 -0.0419 -0.6571 -0.1648
   57DOPE  H13Y 7337   8.362   1.600   8.820  0.0683  0.1772 -0.3837
   57DOPE  C314 7338   8.372   1.799   8.896 -0.5554  0.1173  0.3434
   57DOPE  H14X 7339   8.364   1.898   8.847 -0.2573  0.5588  1.1724
   57DOPE  H14Y 7340   8.470   1.786   8.945 -1.4882 -1.2170  1.9507
   57DOPE  C315 7341   8.281   1.785   9.017  0.6952  0.3556 -0.2002
   57DOPE  H15X 7342   8.296   1.689   9.071  1.9699  0.4445 -0.3663
   57DOPE  H15Y 7343   8.172   1.789   8.995  0.9078 -0.6895 -1.5908
   57DOPE  C316 7344   8.297   1.896   9.119  0.0579  0.3956 -0.2619
   57DOPE  H16X 7345   8.286   1.990   9.062 -1.1326 -0.0954 -0.8773
   57DOPE  H16Y 7346   8.403   1.892   9.153 -0.1322  1.8343  0.5891
   57DOPE  C317 7347   8.194   1.893   9.235  0.3295  0.0406 -0.6310
   57DOPE  H17X 7348   8.098   1.939   9.203  0.0338  0.5576  0.9105
   57DOPE  H17Y 7349   8.174   1.788   9.261 -1.1274  0.5519  0.4063
   57DOPE  C318 7350   8.247   1.962   9.362  0.1768  0.5688  0.0639
   57DOPE  H18X 7351   8.162   1.962   9.434  1.1670 -0.7845  1.3023
   57DOPE  H18Y 7352   8.326   1.890   9.393  0.7453  0.4233 -1.6249
   57DOPE  H18Z 7353   8.290   2.064   9.356 -1.1518  1.4150  2.8765
   58DOPE     N 7354   0.146   4.795   7.243 -0.0359 -0.0136  0.7884
   58DOPE   HN1 7355   0.206   4.728   7.295 -0.7185 -0.5566  0.8828
   58DOPE   HN2 7356   0.198   4.830   7.159 -1.3885 -1.7431 -0.8759
   58DOPE   HN3 7357   0.131   4.878   7.304  0.4640  0.3797  0.3888
   58DOPE   C12 7358   0.017   4.733   7.215 -0.2674 -0.2713  0.2534
   58DOPE  H12A 7359  -0.011   4.664   7.298 -0.9437 -0.3532 -0.0332
   58DOPE  H12B 7360   0.016   4.667   7.126 -0.2481 -1.7560  1.3052
   58DOPE   C11 7361  -0.103   4.832   7.210  0.1317  0.5779  0.5434
   58DOPE  H11A 7362  -0.192   4.771   7.183  1.1948 -1.2550  0.9826
   58DOPE  H11B 7363  -0.093   4.919   7.141 -0.9933  1.6698  1.7131
   58DOPE     P 7364  -0.244   4.985   7.369  0.5076 -0.5795 -0.3782
   58DOPE   O13 7365  -0.257   5.086   7.256 -0.5893 -0.0172  1.0511
   58DOPE   O14 7366  -0.223   5.059   7.493 -0.2816  0.4565 -0.1233
   58DOPE   O11 7367  -0.368   4.897   7.379  0.1098 -0.1287  0.2029
   58DOPE   O12 7368  -0.127   4.886   7.338  0.0756 -0.4274 -0.3455
   58DOPE    C1 7369  -0.502   4.943   7.404 -0.9332 -0.1234  0.6589
   58DOPE    HA 7370  -0.578   4.881   7.351 -1.4807  1.1830 -0.1062
   58DOPE    HB 7371  -0.517   5.043   7.359 -2.3447 -0.7878 -0.4140
   58DOPE    C2 7372  -0.542   4.942   7.558  0.4711 -0.9844  0.4915
   58DOPE    HS 7373  -0.653   4.935   7.553  0.5294 -1.0816 -1.3675
   58DOPE   O21 7374  -0.508   5.059   7.637  0.3049  0.6819 -0.1477
   58DOPE   C21 7375  -0.582   5.169   7.606  0.0648  0.3114 -0.0864
   58DOPE   O22 7376  -0.663   5.175   7.516 -0.2432  0.3052  0.2638
   58DOPE   C22 7377  -0.557   5.277   7.702  0.1370 -0.1726 -0.9455
   58DOPE   H2R 7378  -0.599   5.369   7.655 -0.9751 -1.1080 -1.8660
   58DOPE   H2S 7379  -0.448   5.291   7.715 -0.2257  0.2227  2.4383
   58DOPE    C3 7380  -0.489   4.819   7.636  0.7295 -0.4997  0.4031
   58DOPE    HX 7381  -0.380   4.841   7.642  0.6365 -0.1215  0.7965
   58DOPE    HY 7382  -0.505   4.726   7.577  2.1211 -1.6567  1.7794
   58DOPE   O31 7383  -0.555   4.812   7.769 -0.5915 -0.2948 -0.1507
   58DOPE   C31 7384  -0.679   4.777   7.774 -0.2640  0.6978  0.3194
   58DOPE   O32 7385  -0.745   4.741   7.682  0.0762 -0.7924  0.1590
   58DOPE   C32 7386  -0.732   4.798   7.914  0.6622 -0.6672 -0.1890
   58DOPE   H2X 7387  -0.693   4.722   7.986  1.4423  1.2723  1.5560
   58DOPE   H2Y 7388  -0.706   4.897   7.956 -0.0141 -0.7009  0.3293
   58DOPE   C23 7389  -0.623   5.252   7.842  0.0070  0.2029 -0.0476
   58DOPE   H3R 7390  -0.586   5.156   7.886  0.5494 -0.5093 -1.9632
   58DOPE   H3S 7391  -0.733   5.246   7.824  0.3485  0.7821 -2.7343
   58DOPE   C24 7392  -0.609   5.358   7.953 -0.4505  0.0500  0.2715
   58DOPE   H4R 7393  -0.633   5.458   7.912  0.6670 -0.7327 -2.5002
   58DOPE   H4S 7394  -0.503   5.370   7.985 -0.9020  1.3809  1.4209
   58DOPE   C25 7395  -0.693   5.312   8.070 -0.2213  0.5955 -0.2883
   58DOPE   H5R 7396  -0.635   5.234   8.123 -1.9365 -2.2091 -2.2775
   58DOPE   H5S 7397  -0.792   5.265   8.051 -0.1253  0.6355 -0.9014
   58DOPE   C26 7398  -0.725   5.424   8.165 -0.0115 -0.4950  0.2053
   58DOPE   H6R 7399  -0.782   5.509   8.122 -0.5417 -0.0981  1.6432
   58DOPE   H6S 7400  -0.632   5.462   8.211  0.1657 -3.3445  2.4574
   58DOPE   C27 7401  -0.808   5.383   8.297  0.1126  0.1871  0.0501
   58DOPE   H7R 7402  -0.746   5.322   8.366 -1.6576 -0.9998  0.6379
   58DOPE   H7S 7403  -0.881   5.306   8.265  0.2636 -0.3817  1.0309
   58DOPE   C28 7404  -0.864   5.499   8.376 -0.0230  0.0024  0.3898
   58DOPE   H8R 7405  -0.913   5.451   8.464 -0.4361 -0.3355 -0.0242
   58DOPE   H8S 7406  -0.942   5.552   8.317  0.7714  0.3204 -0.3949
   58DOPE   C29 7407  -0.771   5.611   8.422 -0.4436 -0.8105  0.8132
   58DOPE   H9R 7408  -0.720   5.662   8.339 -1.6795  0.6894  0.9146
   58DOPE  C210 7409  -0.731   5.646   8.548 -0.7268  0.2015  0.6957
   58DOPE  H10R 7410  -0.655   5.726   8.549 -0.7596  0.2768 -1.0837
   58DOPE  C211 7411  -0.757   5.586   8.683  0.0207 -0.7164 -1.1442
   58DOPE  H11R 7412  -0.675   5.607   8.755 -3.1447  1.6172  2.1962
   58DOPE  H11S 7413  -0.780   5.478   8.673 -0.5102 -0.5020 -2.5139
   58DOPE  C212 7414  -0.895   5.635   8.735  0.7430 -0.7054 -0.3769
   58DOPE  H12R 7415  -0.978   5.596   8.673 -3.1069 -0.1925  3.9966
   58DOPE  H12S 7416  -0.890   5.746   8.723  0.2653 -0.6746 -0.2814
   58DOPE  C213 7417  -0.915   5.601   8.882 -0.6870 -1.0603  0.1067
   58DOPE  H13R 7418  -0.835   5.639   8.949 -2.1008 -1.6368  2.1796
   58DOPE  H13S 7419  -0.893   5.492   8.890  0.3233 -0.9849 -1.1714
   58DOPE  C214 7420  -1.050   5.644   8.937  0.7014  0.0974 -0.5302
   58DOPE  H14R 7421  -1.136   5.590   8.892  0.2972  0.0779  0.2481
   58DOPE  H14S 7422  -1.066   5.753   8.929 -1.7446 -0.0361  1.3859
   58DOPE  C215 7423  -1.052   5.616   9.084  0.0568  0.1669 -0.0350
   58DOPE  H15R 7424  -0.963   5.667   9.125 -0.7588  1.1115  0.6206
   58DOPE  H15S 7425  -1.049   5.507   9.109 -1.1824  0.5843  2.2682
   58DOPE  C216 7426  -1.174   5.662   9.164  0.0180  0.5042 -0.0062
   58DOPE  H16R 7427  -1.263   5.613   9.120  0.1726  0.9636 -0.8457
   58DOPE  H16S 7428  -1.178   5.773   9.160 -0.9815  0.5843  1.9444
   58DOPE  C217 7429  -1.157   5.640   9.314  0.0186  0.1553  0.2216
   58DOPE  H17R 7430  -1.057   5.683   9.335 -0.2762  2.2465 -2.1444
   58DOPE  H17S 7431  -1.157   5.531   9.333  0.6679  0.2169  0.5982
   58DOPE  C218 7432  -1.258   5.715   9.391 -0.0840 -0.5696  0.3758
   58DOPE  H18R 7433  -1.359   5.690   9.352 -0.5080 -0.7284  1.5462
   58DOPE  H18S 7434  -1.231   5.822   9.389 -0.3080 -0.4652  2.0642
   58DOPE  H18T 7435  -1.247   5.681   9.496  0.0571 -0.1855  0.4841
   58DOPE   C33 7436  -0.894   4.784   7.914  0.1570  0.4425 -0.1202
   58DOPE   H3X 7437  -0.931   4.692   7.863 -1.1743  0.6955  0.3509
   58DOPE   H3Y 7438  -0.937   4.870   7.859 -1.6219 -0.2966  0.0580
   58DOPE   C34 7439  -0.943   4.801   8.062  0.8278  0.5941 -0.4197
   58DOPE   H4X 7440  -1.033   4.737   8.069  0.0011  1.7350 -0.4669
   58DOPE   H4Y 7441  -0.879   4.760   8.143  1.1146  0.4827 -0.6964
   58DOPE   C35 7442  -0.987   4.940   8.100 -0.6827 -0.9606  0.4887
   58DOPE   H5X 7443  -1.042   4.985   8.014 -0.8133 -1.0055  0.5492
   58DOPE   H5Y 7444  -0.895   4.999   8.118  0.2060 -1.9192 -0.6996
   58DOPE   C36 7445  -1.077   4.940   8.225 -0.3830 -0.1008  0.8275
   58DOPE   H6X 7446  -1.019   4.895   8.308  0.4893 -0.4581  0.0522
   58DOPE   H6Y 7447  -1.156   4.864   8.208  0.3705 -1.2126  2.1817
   58DOPE   C37 7448  -1.139   5.074   8.272 -0.0008  0.4163 -0.4938
   58DOPE   H7X 7449  -1.051   5.140   8.290  1.0818 -0.6633 -1.5621
   58DOPE   H7Y 7450  -1.188   5.128   8.189 -0.2515 -0.1111 -0.6957
   58DOPE   C38 7451  -1.232   5.041   8.390  0.1360 -1.0316 -0.1959
   58DOPE   H8X 7452  -1.208   4.938   8.425 -2.7216 -1.1726  1.6284
   58DOPE   H8Y 7453  -1.336   5.041   8.352  0.1157 -0.0897 -0.1815
   58DOPE   C39 7454  -1.209   5.134   8.508  0.1873 -0.0631 -0.7165
   58DOPE   H9X 7455  -1.138   5.217   8.499 -1.2200  1.2289 -0.3373
   58DOPE  C310 7456  -1.267   5.125   8.630 -0.1532  0.8507  0.1468
   58DOPE  H10X 7457  -1.245   5.193   8.714 -2.4071 -2.0490  3.3135
   58DOPE  C311 7458  -1.367   5.023   8.672  0.3805 -0.1279 -0.1632
   58DOPE  H11X 7459  -1.448   5.069   8.733 -0.0409 -0.1391 -0.7017
   58DOPE  H11Y 7460  -1.415   4.975   8.584  1.4217  0.6588 -1.1892
   58DOPE  C312 7461  -1.309   4.915   8.769  0.2167 -0.4789 -0.1281
   58DOPE  H12X 7462  -1.209   4.873   8.746  0.0294 -0.9886 -0.0219
   58DOPE  H12Y 7463  -1.381   4.831   8.768 -0.6110  0.1891  0.8522
   58DOPE  C313 7464  -1.283   4.970   8.913 -0.1692 -0.1081  0.1662
   58DOPE  H13X 7465  -1.208   5.052   8.921  0.1240 -0.0970 -2.1626
   58DOPE  H13Y 7466  -1.376   5.004   8.963 -0.5550  0.2514 -0.7822
   58DOPE  C314 7467  -1.227   4.861   9.001 -0.8820  0.0015 -0.5503
   58DOPE  H14X 7468  -1.203   4.919   9.093 -1.2044  1.2880 -1.2541
   58DOPE  H14Y 7469  -1.132   4.819   8.963 -0.1879  0.5080  0.5741
   58DOPE  C315 7470  -1.330   4.750   9.038 -0.3274  0.2872  0.4505
   58DOPE  H15X 7471  -1.371   4.701   8.947  0.6609  0.4126 -0.0730
   58DOPE  H15Y 7472  -1.412   4.798   9.096  0.7715  0.2831  2.0528
   58DOPE  C316 7473  -1.270   4.641   9.127  0.6244 -0.6016 -0.2610
   58DOPE  H16X 7474  -1.238   4.693   9.219  1.0817  0.5387 -1.0389
   58DOPE  H16Y 7475  -1.183   4.606   9.067  1.3763  2.2392 -0.9391
   58DOPE  C317 7476  -1.372   4.529   9.156  0.3502  0.1059 -0.0827
   58DOPE  H17X 7477  -1.459   4.565   9.216  0.8632  1.5048 -0.1361
   58DOPE  H17Y 7478  -1.393   4.481   9.058  2.8290  1.8686 -1.5905
   58DOPE  C318 7479  -1.293   4.429   9.245  0.0039  0.3396 -1.1233
   58DOPE  H18X 7480  -1.352   4.336   9.255  1.6440 -0.7664 -1.2895
   58DOPE  H18Y 7481  -1.196   4.391   9.206  0.4911 -0.4161  0.7084
   58DOPE  H18Z 7482  -1.271   4.477   9.343 -1.8296 -0.9116 -0.0367
   59DOPE     N 7483   7.103   0.553   7.333  0.3888  0.2283 -0.2530
   59DOPE   HN1 7484   7.178   0.527   7.265 -0.2209 -0.0963 -0.8120
   59DOPE   HN2 7485   7.022   0.488   7.325  0.8930 -0.3304 -0.9021
   59DOPE   HN3 7486   7.067   0.642   7.292 -0.7008  0.5277  1.2525
   59DOPE   C12 7487   7.148   0.572   7.474 -0.7182 -0.7170  0.6422
   59DOPE  H12A 7488   7.144   0.473   7.523 -1.3003 -1.4707 -0.8682
   59DOPE  H12B 7489   7.073   0.641   7.519 -1.9268  0.4554 -2.8017
   59DOPE   C11 7490   7.289   0.627   7.470 -0.7186  0.1258 -0.2976
   59DOPE  H11A 7491   7.324   0.644   7.575 -0.3536 -0.9376 -0.2361
   59DOPE  H11B 7492   7.288   0.730   7.428 -0.8866 -0.3952 -1.6003
   59DOPE     P 7493   7.484   0.447   7.463  0.1011 -0.1343 -0.0437
   59DOPE   O13 7494   7.626   0.498   7.445  0.4142 -0.2920 -0.5818
   59DOPE   O14 7495   7.458   0.303   7.427 -0.2040 -0.0847  0.3645
   59DOPE   O11 7496   7.465   0.459   7.619  0.4227 -0.3309  0.5038
   59DOPE   O12 7497   7.378   0.545   7.399 -0.0271 -0.7043 -0.0564
   59DOPE    C1 7498   7.514   0.371   7.722 -0.4678  0.2329 -0.2254
   59DOPE    HA 7499   7.582   0.426   7.791 -0.2981  1.3376 -1.2406
   59DOPE    HB 7500   7.567   0.281   7.684 -0.3151 -0.9192  2.5365
   59DOPE    C2 7501   7.407   0.332   7.827  0.3468  0.7308  0.1123
   59DOPE    HS 7502   7.401   0.411   7.904  1.1785  0.5219  0.4003
   59DOPE   O21 7503   7.440   0.210   7.890 -0.3002  0.3463  0.8445
   59DOPE   C21 7504   7.527   0.218   7.992 -0.9355 -0.2905 -0.3188
   59DOPE   O22 7505   7.579   0.317   8.035  0.1038  0.1488 -0.1438
   59DOPE   C22 7506   7.550   0.073   8.046 -0.2997  0.2389 -0.1801
   59DOPE   H2R 7507   7.530   0.006   7.960 -1.3820  0.5321 -0.1861
   59DOPE   H2S 7508   7.462   0.051   8.110 -0.7195 -1.2535 -1.2214
   59DOPE    C3 7509   7.267   0.322   7.764 -0.5874 -0.3706  0.8593
   59DOPE    HX 7510   7.266   0.256   7.675 -1.8368  1.1072 -0.2665
   59DOPE    HY 7511   7.245   0.422   7.722 -0.0511 -0.2887  0.7642
   59DOPE   O31 7512   7.163   0.287   7.859  0.6897  0.8944 -0.1372
   59DOPE   C31 7513   7.050   0.260   7.800  0.8444 -0.2743  0.2727
   59DOPE   O32 7514   7.035   0.276   7.679 -0.1391 -0.1355 -0.4612
   59DOPE   C32 7515   6.940   0.226   7.895 -0.5820 -0.2536 -0.4213
   59DOPE   H2X 7516   6.974   0.154   7.972 -2.4608  1.8303  2.5706
   59DOPE   H2Y 7517   6.909   0.319   7.946  1.3845  0.3578 -0.2566
   59DOPE   C23 7518   7.663   0.050   8.146  0.6550  0.4628 -0.1248
   59DOPE   H3R 7519   7.667   0.133   8.220 -3.0315  1.6879 -1.0780
   59DOPE   H3S 7520   7.759   0.043   8.090  1.1782 -0.5873  0.8512
   59DOPE   C24 7521   7.636  -0.082   8.221 -0.1950  0.6260 -0.3832
   59DOPE   H4R 7522   7.566  -0.142   8.159 -0.2896  1.3573 -0.9968
   59DOPE   H4S 7523   7.573  -0.055   8.309 -3.7455 -2.2736 -1.7732
   59DOPE   C25 7524   7.763  -0.155   8.271  0.2629 -0.0099  0.3032
   59DOPE   H5R 7525   7.818  -0.095   8.346 -0.1788  0.3260  0.3599
   59DOPE   H5S 7526   7.829  -0.166   8.182 -0.0593  0.3936  0.0139
   59DOPE   C26 7527   7.739  -0.295   8.326 -1.1743  0.2451 -0.1650
   59DOPE   H6R 7528   7.684  -0.347   8.245  0.6735  1.4523 -2.2949
   59DOPE   H6S 7529   7.674  -0.283   8.415 -1.0105 -3.1600  0.5739
   59DOPE   C27 7530   7.871  -0.376   8.364 -0.5192 -0.2609 -0.1639
   59DOPE   H7R 7531   7.954  -0.303   8.356 -0.9558  0.2232 -0.2609
   59DOPE   H7S 7532   7.890  -0.455   8.288 -0.0764 -0.3550  0.0416
   59DOPE   C28 7533   7.879  -0.434   8.509 -0.1391  0.4507 -0.0753
   59DOPE   H8R 7534   7.873  -0.344   8.573  1.7409  1.2982 -1.0377
   59DOPE   H8S 7535   7.974  -0.491   8.518 -1.4197 -1.7821  0.0617
   59DOPE   C29 7536   7.763  -0.525   8.548  0.7283  0.6749 -0.1270
   59DOPE   H9R 7537   7.738  -0.603   8.473 -2.2653 -0.9492  2.3204
   59DOPE  C210 7538   7.669  -0.506   8.640 -0.0513  0.4906 -0.0169
   59DOPE  H10R 7539   7.590  -0.581   8.657  0.2082  0.3386  0.5156
   59DOPE  C211 7540   7.700  -0.414   8.758 -0.0199 -0.0675 -0.6246
   59DOPE  H11R 7541   7.649  -0.317   8.736  0.8059  0.8208  1.1659
   59DOPE  H11S 7542   7.805  -0.386   8.781 -0.5193  1.2599  0.1812
   59DOPE  C212 7543   7.647  -0.477   8.890  0.5983 -0.3613  0.4686
   59DOPE  H12R 7544   7.696  -0.576   8.903 -0.2838 -1.2026 -1.9777
   59DOPE  H12S 7545   7.540  -0.500   8.877  0.6636 -0.6396  0.4183
   59DOPE  C213 7546   7.656  -0.387   9.012  0.1356  0.2091 -0.8490
   59DOPE  H13R 7547   7.577  -0.417   9.085 -0.0097  1.2519 -0.5640
   59DOPE  H13S 7548   7.612  -0.293   8.971 -0.4385 -0.1883 -1.1638
   59DOPE  C214 7549   7.795  -0.362   9.074 -0.5464 -0.3644  0.1828
   59DOPE  H14R 7550   7.861  -0.320   8.995 -0.4866 -2.6551 -1.0545
   59DOPE  H14S 7551   7.834  -0.458   9.112  2.3136  0.2437 -0.9523
   59DOPE  C215 7552   7.788  -0.255   9.185 -0.1387 -0.8595  0.0027
   59DOPE  H15R 7553   7.699  -0.284   9.246 -1.4066  1.2912 -0.7275
   59DOPE  H15S 7554   7.761  -0.155   9.145  0.8827 -0.4313  0.3592
   59DOPE  C216 7555   7.901  -0.260   9.289  0.4095  0.3929 -0.1260
   59DOPE  H16R 7556   8.000  -0.246   9.240  1.7874 -2.9050  1.3923
   59DOPE  H16S 7557   7.918  -0.352   9.349  1.4421  0.1614 -0.7349
   59DOPE  C217 7558   7.873  -0.151   9.403 -0.1321  0.4434  0.5140
   59DOPE  H17R 7559   7.972  -0.146   9.452  0.5779  0.4749 -0.8650
   59DOPE  H17S 7560   7.800  -0.188   9.478 -0.7729  0.3765 -0.1241
   59DOPE  C218 7561   7.836  -0.008   9.358 -0.2333 -0.1800 -0.4599
   59DOPE  H18R 7562   7.726  -0.004   9.340 -0.1848 -0.0451 -0.7315
   59DOPE  H18S 7563   7.886   0.027   9.265 -2.4882  2.1619 -0.9099
   59DOPE  H18T 7564   7.847   0.061   9.444 -1.8485  1.0305 -1.1604
   59DOPE   C33 7565   6.816   0.154   7.845  0.1579  0.1070 -0.5247
   59DOPE   H3X 7566   6.749   0.209   7.776 -0.4960 -0.3494 -0.2585
   59DOPE   H3Y 7567   6.760   0.144   7.941  0.8851  1.8619  0.1294
   59DOPE   C34 7568   6.843   0.016   7.788  0.3430  0.8593  0.9285
   59DOPE   H4X 7569   6.775  -0.008   7.703  2.3691  0.4204 -0.6297
   59DOPE   H4Y 7570   6.949   0.009   7.757 -0.2412 -2.5107 -0.7479
   59DOPE   C35 7571   6.819  -0.099   7.886  0.1404 -0.6271  0.1203
   59DOPE   H5X 7572   6.718  -0.092   7.931 -0.3219 -3.0297 -0.3852
   59DOPE   H5Y 7573   6.897  -0.092   7.965  0.6362  2.6408 -0.5050
   59DOPE   C36 7574   6.826  -0.237   7.815  0.0783 -0.3023 -0.2675
   59DOPE   H6X 7575   6.875  -0.222   7.716 -1.3474  1.2283 -0.7809
   59DOPE   H6Y 7576   6.720  -0.265   7.799  0.3097  0.3800 -3.8319
   59DOPE   C37 7577   6.899  -0.347   7.894  0.1411 -0.0797 -0.1135
   59DOPE   H7X 7578   7.005  -0.322   7.912  0.0879 -0.6419  1.1793
   59DOPE   H7Y 7579   6.846  -0.354   7.992 -0.1259  0.0500 -0.2487
   59DOPE   C38 7580   6.907  -0.478   7.821 -0.4977  0.2291  0.2640
   59DOPE   H8X 7581   6.985  -0.537   7.873  1.0785  1.2842 -0.8333
   59DOPE   H8Y 7582   6.937  -0.469   7.714 -3.2093  1.3135 -0.5165
   59DOPE   C39 7583   6.772  -0.553   7.827  0.7436 -0.5549 -0.1924
   59DOPE   H9X 7584   6.695  -0.501   7.767  1.8628  0.2007 -1.0173
   59DOPE  C310 7585   6.754  -0.667   7.891  0.0198  0.3412  0.4215
   59DOPE  H10X 7586   6.652  -0.705   7.904 -0.4644  1.7452  0.9094
   59DOPE  C311 7587   6.862  -0.748   7.957 -0.2636  0.4414 -0.6938
   59DOPE  H11X 7588   6.823  -0.852   7.964 -0.2860  0.3795 -1.5799
   59DOPE  H11Y 7589   6.957  -0.759   7.901  0.6737  0.2836  0.8718
   59DOPE  C312 7590   6.897  -0.699   8.105  0.6496 -0.0750 -0.3176
   59DOPE  H12X 7591   6.908  -0.589   8.095 -0.4680  0.0394 -0.4759
   59DOPE  H12Y 7592   6.994  -0.742   8.136  0.0155 -0.8297  0.6739
   59DOPE  C313 7593   6.797  -0.736   8.217 -0.6787  0.8740  0.1220
   59DOPE  H13X 7594   6.704  -0.679   8.194 -1.7084 -0.2061  1.4200
   59DOPE  H13Y 7595   6.769  -0.843   8.228  1.1883  0.3714  0.1800
   59DOPE  C314 7596   6.868  -0.692   8.347  0.3514 -0.6361  0.0738
   59DOPE  H14X 7597   6.904  -0.587   8.339  1.9634 -1.1625 -0.0488
   59DOPE  H14Y 7598   6.966  -0.740   8.368 -0.1390 -1.2272  1.0665
   59DOPE  C315 7599   6.782  -0.716   8.472 -0.2030  0.5575  0.3961
   59DOPE  H15X 7600   6.754  -0.819   8.503 -2.6297  0.5645 -1.4591
   59DOPE  H15Y 7601   6.687  -0.666   8.443  0.2525  0.7884 -0.7723
   59DOPE  C316 7602   6.843  -0.642   8.588 -0.1726 -0.0012 -0.0682
   59DOPE  H16X 7603   6.854  -0.535   8.562 -0.6125 -0.0477 -0.4640
   59DOPE  H16Y 7604   6.945  -0.686   8.589  0.7944  2.1038 -0.3218
   59DOPE  C317 7605   6.771  -0.668   8.723  0.0692  0.2395  0.1520
   59DOPE  H17X 7606   6.667  -0.629   8.720 -0.3079 -0.5588  1.5825
   59DOPE  H17Y 7607   6.782  -0.774   8.754 -0.1571  0.7111  1.9547
   59DOPE  C318 7608   6.851  -0.597   8.836  0.6187 -0.5545  0.4157
   59DOPE  H18X 7609   6.961  -0.607   8.831  0.6530  0.1934 -0.7321
   59DOPE  H18Y 7610   6.832  -0.488   8.837  0.8398 -0.5050 -0.2596
   59DOPE  H18Z 7611   6.813  -0.643   8.929  0.6565 -0.8699  0.2799
   60DOPE     N 7612   6.926   5.808   7.071  0.3851 -0.6728  0.4387
   60DOPE   HN1 7613   6.944   5.880   6.998  0.7408 -0.9618  0.2439
   60DOPE   HN2 7614   6.902   5.720   7.023 -1.1658  0.1542 -0.3852
   60DOPE   HN3 7615   6.842   5.845   7.120  0.4052  0.3975 -0.2892
   60DOPE   C12 7616   7.040   5.786   7.165 -0.6223  0.1690 -0.5956
   60DOPE  H12A 7617   7.104   5.875   7.147 -0.1414 -0.2839 -1.1891
   60DOPE  H12B 7618   7.090   5.691   7.136 -0.9625 -0.2614  0.2053
   60DOPE   C11 7619   6.983   5.780   7.312 -0.3511 -0.0689  0.3668
   60DOPE  H11A 7620   7.064   5.777   7.388 -0.0791  0.9692  0.1380
   60DOPE  H11B 7621   6.918   5.691   7.321 -1.3673  0.2877 -2.4622
   60DOPE     P 7622   6.818   5.899   7.465 -0.1860  0.1907 -0.3545
   60DOPE   O13 7623   6.677   5.873   7.433 -0.1573 -0.3822 -0.5789
   60DOPE   O14 7624   6.849   6.027   7.528 -0.6272 -0.1219  0.6487
   60DOPE   O11 7625   6.863   5.781   7.566  0.2270 -0.2431  0.5394
   60DOPE   O12 7626   6.899   5.893   7.335 -0.1313 -0.4235  0.4522
   60DOPE    C1 7627   6.803   5.652   7.573 -0.8827  0.3754  0.5005
   60DOPE    HA 7628   6.883   5.575   7.564 -0.6011  0.7794 -0.5862
   60DOPE    HB 7629   6.741   5.640   7.482  1.4625  1.3530 -1.3507
   60DOPE    C2 7630   6.719   5.640   7.703  0.2414  0.2833 -0.1966
   60DOPE    HS 7631   6.619   5.686   7.686  0.3878 -0.4070 -3.5878
   60DOPE   O21 7632   6.781   5.693   7.815  0.5190 -0.4960 -0.7523
   60DOPE   C21 7633   6.729   5.806   7.869  0.3530 -0.1003 -0.3358
   60DOPE   O22 7634   6.627   5.855   7.827  0.0918 -0.6251  0.4151
   60DOPE   C22 7635   6.818   5.850   7.992 -0.5957  0.7018  0.5802
   60DOPE   H2R 7636   6.880   5.940   7.972 -0.1327  0.4670  0.9496
   60DOPE   H2S 7637   6.889   5.769   8.015  2.2951  2.9148  0.0024
   60DOPE    C3 7638   6.687   5.490   7.725 -0.2935 -0.5965 -0.5585
   60DOPE    HX 7639   6.789   5.448   7.716  0.9799  1.4244  2.7188
   60DOPE    HY 7640   6.628   5.444   7.642  1.7623 -0.2274 -2.3020
   60DOPE   O31 7641   6.647   5.454   7.866 -0.0823 -0.1577 -0.1689
   60DOPE   C31 7642   6.514   5.444   7.881  0.1001  0.4118 -0.0655
   60DOPE   O32 7643   6.433   5.455   7.790  0.0663 -0.6792  0.4864
   60DOPE   C32 7644   6.486   5.399   8.030 -0.4343 -0.2460  0.9629
   60DOPE   H2X 7645   6.435   5.300   8.025 -0.7988  0.0201 -1.1525
   60DOPE   H2Y 7646   6.580   5.374   8.084  0.0491  0.2520  0.3650
   60DOPE   C23 7647   6.746   5.879   8.123  0.5897  0.8034 -0.2643
   60DOPE   H3R 7648   6.819   5.859   8.205 -0.1098  0.2870  0.2574
   60DOPE   H3S 7649   6.665   5.804   8.139  1.2616 -0.2437 -1.5953
   60DOPE   C24 7650   6.701   6.027   8.136 -1.3215 -0.2385 -0.0933
   60DOPE   H4R 7651   6.629   6.051   8.055 -0.2962 -2.6895 -1.8523
   60DOPE   H4S 7652   6.799   6.076   8.118 -0.1368 -2.7760 -1.1310
   60DOPE   C25 7653   6.645   6.079   8.274  0.1646  0.4263  0.4149
   60DOPE   H5R 7654   6.562   6.011   8.301  0.3178 -0.0837 -0.3525
   60DOPE   H5S 7655   6.599   6.178   8.256 -1.2313 -0.1900  0.4747
   60DOPE   C26 7656   6.744   6.067   8.393 -0.6053  0.4466  0.0367
   60DOPE   H6R 7657   6.834   6.119   8.353  0.8356 -1.1920  1.0434
   60DOPE   H6S 7658   6.775   5.962   8.408  2.1574  1.3659  1.6238
   60DOPE   C27 7659   6.691   6.126   8.517 -0.6598 -0.2905  0.5831
   60DOPE   H7R 7660   6.589   6.087   8.536 -2.2741  2.1226 -2.2791
   60DOPE   H7S 7661   6.685   6.236   8.508  0.2260 -0.2413  0.4864
   60DOPE   C28 7662   6.779   6.102   8.636 -0.4141  0.2313 -1.2048
   60DOPE   H8R 7663   6.878   6.146   8.610  1.0445 -0.8263  2.0119
   60DOPE   H8S 7664   6.792   5.993   8.654  0.1395  0.0244 -2.7093
   60DOPE   C29 7665   6.722   6.170   8.759  0.6477  0.2102  0.1964
   60DOPE   H9R 7666   6.626   6.219   8.740  2.3265  2.5525 -3.2914
   60DOPE  C210 7667   6.771   6.174   8.882 -0.4486  0.0654  0.1959
   60DOPE  H10R 7668   6.721   6.234   8.960  0.7132 -0.2759  1.2241
   60DOPE  C211 7669   6.900   6.112   8.922  0.5999 -0.3448  0.5339
   60DOPE  H11R 7670   6.978   6.190   8.940  1.4597 -1.0426 -0.0739
   60DOPE  H11S 7671   6.942   6.052   8.839  0.4601 -0.5049  0.5793
   60DOPE  C212 7672   6.897   6.018   9.039  0.1508  0.4132  0.5189
   60DOPE  H12R 7673   7.003   6.004   9.067  0.5798  2.6421  0.1636
   60DOPE  H12S 7674   6.859   5.918   9.007 -0.4262  0.6987  0.2990
   60DOPE  C213 7675   6.832   6.069   9.163  0.1733  0.7529 -0.0134
   60DOPE  H13R 7676   6.727   6.095   9.134  0.2967  0.6544 -0.5575
   60DOPE  H13S 7677   6.879   6.165   9.194  2.2548  0.0578 -0.8568
   60DOPE  C214 7678   6.833   5.961   9.277  0.5527  0.0881  0.3241
   60DOPE  H14R 7679   6.935   5.959   9.320  1.6839  0.9469 -2.1228
   60DOPE  H14S 7680   6.802   5.868   9.224 -0.4911  0.8186 -0.3910
   60DOPE  C215 7681   6.736   5.994   9.388  0.9616 -0.5339 -0.2769
   60DOPE  H15R 7682   6.637   5.960   9.350  0.1258  1.6663 -0.1958
   60DOPE  H15S 7683   6.729   6.095   9.434 -0.7747 -1.2081  1.0645
   60DOPE  C216 7684   6.748   5.896   9.513 -0.2375  0.9407  0.1739
   60DOPE  H16R 7685   6.847   5.911   9.560 -0.4777 -2.1759  1.9764
   60DOPE  H16S 7686   6.737   5.796   9.464 -1.4850  1.2486 -0.2128
   60DOPE  C217 7687   6.641   5.907   9.624  0.7470  0.2565 -0.0130
   60DOPE  H17R 7688   6.546   5.889   9.569  0.6180 -1.3128  0.6671
   60DOPE  H17S 7689   6.651   6.011   9.662  1.1386  0.1977  0.0500
   60DOPE  C218 7690   6.666   5.800   9.733  0.2246 -1.5005  0.0825
   60DOPE  H18R 7691   6.603   5.826   9.821 -0.0313  1.6420 -0.9280
   60DOPE  H18S 7692   6.767   5.820   9.776 -0.6468  0.0912  1.5143
   60DOPE  H18T 7693   6.660   5.692   9.706  1.7455 -1.6297  0.1935
   60DOPE   C33 7694   6.398   5.505   8.108 -0.0771  0.2232 -0.4750
   60DOPE   H3X 7695   6.309   5.514   8.043 -0.6184  1.4772  0.3996
   60DOPE   H3Y 7696   6.461   5.596   8.105  1.3800 -0.6507  1.3162
   60DOPE   C34 7697   6.381   5.468   8.249  0.2432  0.0737  0.3488
   60DOPE   H4X 7698   6.466   5.399   8.267 -0.7447 -1.4446 -0.4851
   60DOPE   H4Y 7699   6.384   5.561   8.309 -0.4427  0.4062 -0.1190
   60DOPE   C35 7700   6.245   5.398   8.291  0.5484  0.0501 -0.1651
   60DOPE   H5X 7701   6.254   5.379   8.400 -1.6982  1.5037  0.3320
   60DOPE   H5Y 7702   6.246   5.295   8.249 -0.8737  0.0098 -0.1300
   60DOPE   C36 7703   6.117   5.473   8.262 -0.0268 -0.0253 -0.6552
   60DOPE   H6X 7704   6.106   5.465   8.152  0.1143  1.4690 -0.8009
   60DOPE   H6Y 7705   6.108   5.576   8.304 -0.4169 -0.3980  0.2147
   60DOPE   C37 7706   5.988   5.405   8.323 -0.6780  0.6157 -0.5087
   60DOPE   H7X 7707   5.996   5.297   8.297  1.5473  0.3203  1.1099
   60DOPE   H7Y 7708   5.979   5.408   8.433  0.4352 -0.3324 -0.3741
   60DOPE   C38 7709   5.857   5.462   8.270 -0.9424  0.5850 -0.5971
   60DOPE   H8X 7710   5.782   5.399   8.322 -0.0580 -0.0031  0.0064
   60DOPE   H8Y 7711   5.847   5.426   8.165 -0.4983  0.2752 -0.5375
   60DOPE   C39 7712   5.828   5.609   8.277  0.3212  0.3435  0.2784
   60DOPE   H9X 7713   5.910   5.676   8.248 -1.2435  2.6001  0.7890
   60DOPE  C310 7714   5.726   5.655   8.350 -0.2049 -0.4655  0.0929
   60DOPE  H10X 7715   5.712   5.762   8.333  0.6589 -0.5585 -1.3215
   60DOPE  C311 7716   5.613   5.581   8.415  0.4857  0.5266  0.7881
   60DOPE  H11X 7717   5.521   5.643   8.419 -1.9475 -2.8037  0.5470
   60DOPE  H11Y 7718   5.591   5.490   8.355 -0.6271  0.8071  0.7404
   60DOPE  C312 7719   5.631   5.518   8.552 -0.0602 -0.0571 -0.2019
   60DOPE  H12X 7720   5.636   5.601   8.625  0.9156  0.4174 -0.7884
   60DOPE  H12Y 7721   5.735   5.479   8.555 -0.2014 -0.4315  2.1852
   60DOPE  C313 7722   5.535   5.400   8.576 -0.1601 -0.1297  0.0109
   60DOPE  H13X 7723   5.432   5.428   8.544 -0.7456 -2.1031  0.0664
   60DOPE  H13Y 7724   5.566   5.316   8.510  0.4807  1.3020 -1.5807
   60DOPE  C314 7725   5.534   5.344   8.721  1.1120 -0.0427  0.5620
   60DOPE  H14X 7726   5.438   5.291   8.738 -0.1906  2.1503  0.4925
   60DOPE  H14Y 7727   5.543   5.431   8.790  0.2276  2.4029 -2.1760
   60DOPE  C315 7728   5.653   5.254   8.759 -0.3604 -0.1984  0.5973
   60DOPE  H15X 7729   5.749   5.303   8.729 -1.2697  1.6646  0.6581
   60DOPE  H15Y 7730   5.646   5.157   8.704  1.4771  1.1815 -2.3347
   60DOPE  C316 7731   5.678   5.244   8.910 -0.0480  0.5005 -0.1645
   60DOPE  H16X 7732   5.584   5.213   8.961  1.4843 -2.2379  1.2303
   60DOPE  H16Y 7733   5.708   5.343   8.948 -1.5218  1.0128 -0.2665
   60DOPE  C317 7734   5.787   5.139   8.943  0.7237  0.5223 -0.6185
   60DOPE  H17X 7735   5.757   5.032   8.942  1.4841  0.2986 -0.2781
   60DOPE  H17Y 7736   5.869   5.144   8.869  1.2189  0.8257 -0.0626
   60DOPE  C318 7737   5.861   5.168   9.067 -0.2804 -0.4711  0.0370
   60DOPE  H18X 7738   5.926   5.254   9.039 -3.0208  1.6231 -0.3016
   60DOPE  H18Y 7739   5.801   5.186   9.159 -1.2934  0.1876 -0.7334
   60DOPE  H18Z 7740   5.919   5.079   9.100  0.4893  0.1002  0.2684
   6123SM     N 7741   3.215   4.024  11.185 -0.2084  0.5362  0.0320
   6123SM   C15 7742   3.188   3.900  11.264 -0.4540 -0.2216  0.1089
   6123SM  H15A 7743   3.279   3.857  11.302 -0.2998  0.5789  0.6674
   6123SM  H15B 7744   3.124   3.838  11.203 -1.1584 -1.7061  2.2345
   6123SM  H15C 7745   3.121   3.937  11.341 -1.8997  1.6944 -1.9174
   6123SM   C14 7746   3.283   4.110  11.291 -0.1025 -0.9604  0.5511
   6123SM  H14A 7747   3.208   4.145  11.361  0.3063  1.1241 -0.0085
   6123SM  H14B 7748   3.309   4.205  11.247  0.1429 -1.8715 -1.3868
   6123SM  H14C 7749   3.366   4.060  11.338  0.7818  1.4822  1.7662
   6123SM   C13 7750   3.324   3.984  11.091  0.2789  0.2792 -0.1162
   6123SM  H13A 7751   3.413   3.947  11.140  0.7826  0.1028 -1.1345
   6123SM  H13B 7752   3.358   4.058  11.020  1.0315 -0.5774 -0.6804
   6123SM  H13C 7753   3.280   3.915  11.020 -1.1499  1.1440 -0.1126
   6123SM   C12 7754   3.091   4.086  11.118  0.8344 -0.6108 -0.1115
   6123SM  H12A 7755   3.042   4.007  11.063  0.1861  0.7180 -1.4923
   6123SM  H12B 7756   3.119   4.158  11.044  2.1385 -0.9993 -0.0273
   6123SM   C11 7757   2.984   4.143  11.221 -0.5939 -0.3381  0.3961
   6123SM  H11A 7758   2.901   4.184  11.159 -1.1094 -0.7552  0.7932
   6123SM  H11B 7759   3.028   4.230  11.273 -1.4544  0.4333 -0.1321
   6123SM     P 7760   2.815   3.952  11.277  0.1034  0.8431 -0.1034
   6123SM   O13 7761   2.807   3.858  11.394  0.2176  0.2239  0.7232
   6123SM   O14 7762   2.688   4.029  11.240 -1.3063 -0.2855 -0.1692
   6123SM   O11 7763   2.876   3.870  11.148 -0.5021  0.1240 -0.0860
   6123SM   O12 7764   2.927   4.054  11.314 -0.0707  0.1244 -0.0422
   6123SM   C1S 7765   2.782   3.790  11.069  0.2736  0.4456  0.0597
   6123SM   H1S 7766   2.717   3.860  11.012  0.3987  1.5141  1.1838
   6123SM   H1T 7767   2.712   3.728  11.129 -0.5117  0.1975 -1.0854
   6123SM    NF 7768   2.749   3.613  10.901 -0.2546 -0.1603 -0.2915
   6123SM   HNF 7769   2.753   3.514  10.917  0.2165 -0.2082 -0.6712
   6123SM   C2S 7770   2.844   3.699  10.963 -0.1863  0.2410  0.7111
   6123SM   H2S 7771   2.872   3.771  10.883  3.2569  1.2609  2.6161
   6123SM   C3S 7772   2.965   3.624  11.000  0.0722  0.2227 -0.1277
   6123SM   H3S 7773   2.931   3.538  11.063 -0.5360 -1.9063 -3.1263
   6123SM    O3 7774   3.059   3.698  11.079  0.1862  0.5584 -0.1135
   6123SM   HO3 7775   3.002   3.773  11.096 -0.9989  0.2479 -2.2976
   6123SM   C4S 7776   3.038   3.579  10.876 -0.1050  0.5999  0.3067
   6123SM   H4S 7777   3.040   3.663  10.804  1.4304 -0.1123 -0.5531
   6123SM   C5S 7778   3.091   3.460  10.844 -0.5100 -0.1349 -0.6536
   6123SM   H5S 7779   3.102   3.393  10.931 -1.8027  0.1630 -0.2448
   6123SM   C6S 7780   3.179   3.433  10.724  0.6738 -0.1733 -0.2185
   6123SM   H6S 7781   3.143   3.344  10.668 -0.4549  0.3164 -0.2955
   6123SM   H6T 7782   3.282   3.407  10.755  0.6410  0.9057  0.8584
   6123SM   C7S 7783   3.188   3.555  10.618  0.2891  0.0074 -0.0559
   6123SM   H7S 7784   3.234   3.643  10.668 -2.4990  0.0748  2.7003
   6123SM   H7T 7785   3.084   3.580  10.589 -0.5145 -0.7175  2.0786
   6123SM   C8S 7786   3.254   3.512  10.484  0.9214 -0.5268  0.0510
   6123SM   H8S 7787   3.207   3.415  10.455 -0.9667  0.3713 -0.0382
   6123SM   H8T 7788   3.360   3.501  10.513  1.0935  2.3493  0.8212
   6123SM   C9S 7789   3.238   3.599  10.354 -0.2020 -0.3603 -0.0314
   6123SM   H9S 7790   3.295   3.691  10.379  4.1031 -2.4583 -1.1288
   6123SM   H9T 7791   3.136   3.642  10.343 -1.1918 -2.8275 -1.3737
   6123SM  C10S 7792   3.303   3.537  10.234  0.8659  0.3179  0.0659
   6123SM  H10S 7793   3.284   3.428  10.232 -0.7278  0.5838 -0.4979
   6123SM  H10T 7794   3.411   3.563  10.243  1.1113 -0.9837  1.1593
   6123SM  C11S 7795   3.253   3.592  10.099  0.5145  0.1177 -0.5084
   6123SM  H11S 7796   3.280   3.700  10.100  2.3060 -0.2955  0.0297
   6123SM  H11T 7797   3.143   3.580  10.087  0.6344 -1.6464 -0.1747
   6123SM  C12S 7798   3.307   3.524   9.971  0.7654  0.0041 -0.0055
   6123SM  H12S 7799   3.254   3.427   9.964 -0.8245  0.9554 -2.5064
   6123SM  H12T 7800   3.415   3.500   9.979  0.4989 -0.8305  1.1593
   6123SM  C13S 7801   3.268   3.605   9.850 -0.4129 -0.5830  0.7811
   6123SM  H13S 7802   3.317   3.704   9.862 -2.0867  0.2143  1.3714
   6123SM  H13T 7803   3.159   3.626   9.858 -0.0390  1.5490  0.7940
   6123SM  C14S 7804   3.311   3.538   9.721  0.6154 -0.1602 -0.2141
   6123SM  H14S 7805   3.268   3.602   9.642  0.4270  0.2171  0.1880
   6123SM  H14T 7806   3.263   3.438   9.713 -0.2385  0.3519 -1.7322
   6123SM  C15S 7807   3.460   3.525   9.699  0.5410 -0.0792 -0.0030
   6123SM  H15S 7808   3.489   3.439   9.763 -1.3178 -1.1062 -0.4659
   6123SM  H15T 7809   3.510   3.615   9.741  4.0243 -2.0073  0.3984
   6123SM  C16S 7810   3.496   3.515   9.549 -0.6056 -0.2531  0.0923
   6123SM  H16S 7811   3.461   3.606   9.496  1.0629 -0.6333 -1.8056
   6123SM  H16T 7812   3.444   3.432   9.496 -1.3660  0.1511  0.1939
   6123SM  C17S 7813   3.651   3.493   9.526 -0.0544 -0.3927  0.6370
   6123SM  H17S 7814   3.685   3.598   9.537 -0.2397 -0.2256 -0.3585
   6123SM  H17T 7815   3.657   3.464   9.419 -0.0002  1.1226  0.2083
   6123SM  C18S 7816   3.723   3.388   9.613 -0.7344 -0.0131 -0.1894
   6123SM  H18S 7817   3.669   3.291   9.598 -1.1608  0.1731  0.1046
   6123SM  H18T 7818   3.728   3.419   9.720 -0.3682 -0.2311 -0.1422
   6123SM  H18U 7819   3.827   3.372   9.579 -0.8399 -1.2385  0.0178
   6123SM   C1F 7820   2.633   3.658  10.850 -0.1838  0.1340  0.2403
   6123SM    OF 7821   2.627   3.767  10.791 -0.8461  1.1356  0.1236
   6123SM   C2F 7822   2.514   3.566  10.879 -0.1269  0.0589  0.2335
   6123SM   H2F 7823   2.464   3.588  10.976  0.0425 -1.7964  0.7751
   6123SM   H2G 7824   2.553   3.462  10.884 -0.2483  0.0470  0.9301
   6123SM   C3F 7825   2.397   3.571  10.776 -0.4624 -0.2069 -0.0999
   6123SM   H3F 7826   2.344   3.668  10.774  2.3654  1.5168  1.4701
   6123SM   H3G 7827   2.330   3.487  10.805  1.6599 -1.8016  0.4666
   6123SM   C4F 7828   2.447   3.536  10.637  0.4741 -0.4950  0.3573
   6123SM   H4F 7829   2.521   3.453  10.637  2.0430  0.8117  2.5150
   6123SM   H4G 7830   2.501   3.621  10.591 -0.6790 -1.3924 -2.9694
   6123SM   C5F 7831   2.326   3.506  10.544  0.1897 -1.0478 -0.2601
   6123SM   H5F 7832   2.256   3.592  10.547  1.8871  0.4119 -0.7591
   6123SM   H5G 7833   2.283   3.414  10.591 -0.7072  0.1477  1.3549
   6123SM   C6F 7834   2.376   3.468  10.404  0.5888 -0.1430 -0.0418
   6123SM   H6F 7835   2.297   3.408  10.354  1.1521 -1.6783  0.8379
   6123SM   H6G 7836   2.470   3.412  10.425  0.5267 -0.3416 -0.2929
   6123SM   C7F 7837   2.415   3.586  10.314  0.0086  0.0548 -0.1929
   6123SM   H7F 7838   2.480   3.659  10.367 -0.5213  0.2970  0.1446
   6123SM   H7G 7839   2.325   3.646  10.286 -1.3909 -2.0641 -0.4515
   6123SM   C8F 7840   2.476   3.533  10.185  0.1718  0.0744  0.2388
   6123SM   H8F 7841   2.402   3.470  10.129 -0.8988  1.5726 -0.0913
   6123SM   H8G 7842   2.560   3.468  10.217  0.5201  0.1572 -0.4948
   6123SM   C9F 7843   2.525   3.643  10.084 -0.5281 -0.2215  0.3276
   6123SM   H9F 7844   2.595   3.709  10.140 -0.7571 -0.5828  1.0448
   6123SM   H9G 7845   2.432   3.694  10.052 -1.1885 -1.7828 -0.3242
   6123SM  C10F 7846   2.612   3.583   9.968  0.3174 -0.3475  0.0805
   6123SM  H10F 7847   2.564   3.484   9.952  0.7674 -0.8217  1.5468
   6123SM  H10G 7848   2.710   3.546  10.006  0.7431 -0.2201 -0.8542
   6123SM  C11F 7849   2.620   3.679   9.838  0.2130  0.4711 -0.0518
   6123SM  H11F 7850   2.679   3.764   9.880 -1.2857  0.8910  1.2793
   6123SM  H11G 7851   2.521   3.717   9.806 -0.0330  1.4180  1.7246
   6123SM  C12F 7852   2.680   3.601   9.726 -0.3841 -0.6118  0.8182
   6123SM  H12F 7853   2.612   3.514   9.726  0.8698 -1.6926 -1.9635
   6123SM  H12G 7854   2.778   3.562   9.762 -0.7723 -0.1846  2.4472
   6123SM  C13F 7855   2.696   3.675   9.587  0.2712  0.7952 -0.4845
   6123SM  H13F 7856   2.766   3.761   9.602  0.4483  0.4914  0.4839
   6123SM  H13G 7857   2.594   3.706   9.557 -0.1580 -0.9565 -0.9389
   6123SM  C14F 7858   2.753   3.585   9.474 -0.2218  0.7610  0.4287
   6123SM  H14F 7859   2.848   3.531   9.492 -1.4638 -1.6212  0.2310
   6123SM  H14G 7860   2.770   3.637   9.378 -2.2650  0.1939 -0.2884
   6123SM  C15F 7861   2.653   3.470   9.433 -0.4682 -0.0391 -0.2949
   6123SM  H15F 7862   2.611   3.416   9.520 -1.3981  0.7690 -0.2306
   6123SM  H15G 7863   2.707   3.394   9.371  0.8924  1.7249 -1.3735
   6123SM  C16F 7864   2.536   3.513   9.344  0.7204 -0.2452  0.3614
   6123SM  H16F 7865   2.503   3.615   9.373 -1.1447 -1.2230  1.8831
   6123SM  H16G 7866   2.452   3.446   9.369 -0.6776  2.0836  2.3814
   6123SM  C17F 7867   2.573   3.496   9.192 -0.0088 -0.4032 -0.0786
   6123SM  H17F 7868   2.572   3.387   9.168 -0.1652 -0.4263  0.0348
   6123SM  H17G 7869   2.669   3.548   9.172 -0.0350  0.5672  2.0562
   6123SM  C18F 7870   2.476   3.546   9.086  0.0835 -0.2152 -0.2197
   6123SM  H18F 7871   2.378   3.494   9.095  0.4577 -0.6142  2.2894
   6123SM  H18G 7872   2.516   3.529   8.984  1.6404  0.4855  0.2564
   6123SM  C19F 7873   2.440   3.702   9.115  0.2436  0.0400 -0.0137
   6123SM  H19F 7874   2.538   3.754   9.117  0.1304  0.2342  1.0082
   6123SM  H19G 7875   2.404   3.719   9.219  0.4173  0.2414  0.0138
   6123SM  C20F 7876   2.337   3.758   9.010 -0.7807 -0.6008  0.1966
   6123SM  H20F 7877   2.371   3.736   8.906 -0.9105  2.2614 -0.5472
   6123SM  H20G 7878   2.308   3.865   9.014 -0.0053 -0.3041 -1.2209
   6123SM  C21F 7879   2.200   3.689   9.023  0.0689 -0.0872  0.4700
   6123SM  H21F 7880   2.162   3.708   9.126 -0.5763 -2.5567  0.7475
   6123SM  H21G 7881   2.213   3.580   9.010  0.4350  0.0467 -0.2983
   6123SM  C22F 7882   2.103   3.748   8.914 -0.0252 -0.0232 -0.5337
   6123SM  H22F 7883   2.084   3.855   8.934 -1.8725 -0.4797  0.3718
   6123SM  H22G 7884   2.000   3.711   8.936  0.7847 -1.9220  0.3139
   6123SM  C23F 7885   2.138   3.736   8.768  0.2135  0.6809 -0.0449
   6123SM  H23F 7886   2.234   3.792   8.753  1.0619 -1.0233 -1.3078
   6123SM  H23G 7887   2.059   3.776   8.701 -1.0104  0.8732  1.4776
   6123SM  H23H 7888   2.150   3.628   8.746  0.5165  1.0257 -1.7297
   6223SM     N 7889   2.855   3.522  11.788 -0.7893 -0.2902 -0.4523
   6223SM   C15 7890   2.911   3.421  11.888  0.4763  0.4636  0.2129
   6223SM  H15A 7891   2.856   3.428  11.981  1.8834  0.3141  1.0906
   6223SM  H15B 7892   3.014   3.429  11.919  1.0741  1.4189 -1.8461
   6223SM  H15C 7893   2.905   3.322  11.845  0.4158  1.2870 -1.7794
   6223SM   C14 7894   2.714   3.506  11.756  0.0676 -0.7850  0.3770
   6223SM  H14A 7895   2.669   3.582  11.694  0.0772 -1.1917 -0.1404
   6223SM  H14B 7896   2.652   3.508  11.845 -0.4934  3.7648  0.0765
   6223SM  H14C 7897   2.683   3.410  11.716  0.4770  1.0327 -5.1678
   6223SM   C13 7898   2.879   3.661  11.845 -0.7823 -0.3710 -1.2445
   6223SM  H13A 7899   2.981   3.669  11.878 -1.7246  0.8301  1.6582
   6223SM  H13B 7900   2.826   3.664  11.939 -0.3315 -0.2979 -0.9912
   6223SM  H13C 7901   2.857   3.738  11.772  2.5419  0.8217 -1.1204
   6223SM   C12 7902   2.935   3.501  11.663 -0.2310  0.4771 -0.0814
   6223SM  H12A 7903   3.031   3.549  11.672  0.4245 -0.7452 -0.3653
   6223SM  H12B 7904   2.890   3.566  11.589  0.2395 -0.6614 -1.4085
   6223SM   C11 7905   2.946   3.356  11.611 -0.1128  0.4474 -0.2019
   6223SM  H11A 7906   2.993   3.296  11.692  0.3193  1.6927  0.4931
   6223SM  H11B 7907   3.015   3.362  11.525 -2.8801 -1.8913 -2.7828
   6223SM     P 7908   2.763   3.308  11.430 -0.1910  0.0900  0.1438
   6223SM   O13 7909   2.615   3.322  11.435 -0.4299 -0.1925  0.4816
   6223SM   O14 7910   2.829   3.404  11.342  0.1765 -0.3073 -0.3718
   6223SM   O11 7911   2.793   3.163  11.369 -0.1539  0.0955  0.0886
   6223SM   O12 7912   2.820   3.310  11.571 -0.0723  0.4755  0.3945
   6223SM   C1S 7913   2.785   3.142  11.226  0.2066 -0.0729  0.0643
   6223SM   H1S 7914   2.711   3.214  11.185 -0.6390 -0.5069  0.7840
   6223SM   H1T 7915   2.750   3.039  11.207 -2.2753  0.6643  0.2723
   6223SM    NF 7916   2.898   3.125  11.006  0.2980 -0.8489  0.1155
   6223SM   HNF 7917   2.918   3.042  10.955  1.2083  0.0673 -1.0812
   6223SM   C2S 7918   2.924   3.150  11.148  0.1455 -0.3065 -0.6738
   6223SM   H2S 7919   2.951   3.256  11.164  1.7729 -0.6442 -1.0195
   6223SM   C3S 7920   3.035   3.068  11.213  0.1876  0.6379 -0.0831
   6223SM   H3S 7921   3.008   2.960  11.219  3.7952 -0.3859  0.1803
   6223SM    O3 7922   3.065   3.107  11.345 -0.5268  0.3058 -0.2421
   6223SM   HO3 7923   2.995   3.171  11.361 -0.5403  0.3466 -0.4602
   6223SM   C4S 7924   3.146   3.073  11.121 -0.8906  0.1929  0.3498
   6223SM   H4S 7925   3.149   2.991  11.048 -2.0972  0.9502 -0.6021
   6223SM   C5S 7926   3.247   3.168  11.120 -0.4929  0.3243 -0.4153
   6223SM   H5S 7927   3.250   3.238  11.205  0.6523  0.0738 -0.2389
   6223SM   C6S 7928   3.361   3.165  11.027  0.4471 -0.6366  0.3356
   6223SM   H6S 7929   3.456   3.126  11.067  1.4223  1.2792  0.0327
   6223SM   H6T 7930   3.376   3.274  11.008 -0.9795 -0.6232 -0.9402
   6223SM   C7S 7931   3.354   3.100  10.888 -0.2084 -0.1919 -0.3902
   6223SM   H7S 7932   3.254   3.116  10.843 -0.6430 -0.6440  0.3814
   6223SM   H7T 7933   3.366   2.990  10.904 -2.3754 -0.6440 -1.5461
   6223SM   C8S 7934   3.466   3.147  10.796 -0.7621 -0.8780  0.8558
   6223SM   H8S 7935   3.566   3.133  10.844 -0.3220  0.7919  0.4958
   6223SM   H8T 7936   3.462   3.255  10.770 -0.5190 -0.5807  1.9918
   6223SM   C9S 7937   3.481   3.063  10.669 -0.1621 -0.3189  0.4399
   6223SM   H9S 7938   3.388   3.033  10.615  1.1565 -1.4026 -1.3454
   6223SM   H9T 7939   3.528   2.968  10.701  3.9157  0.6013 -2.0092
   6223SM  C10S 7940   3.571   3.128  10.568 -0.0009 -0.2263 -0.4594
   6223SM  H10S 7941   3.677   3.100  10.587  0.7271  0.8271 -2.5475
   6223SM  H10T 7942   3.561   3.239  10.564  0.2162 -0.2346 -1.4816
   6223SM  C11S 7943   3.551   3.087  10.419 -0.7568  1.1888  0.6972
   6223SM  H11S 7944   3.542   2.976  10.420 -0.5403  1.1518  2.9726
   6223SM  H11T 7945   3.646   3.114  10.367 -0.4694 -1.6641 -0.4635
   6223SM  C12S 7946   3.425   3.145  10.358 -0.1655 -0.1689  0.1575
   6223SM  H12S 7947   3.426   3.256  10.365 -0.2447 -0.1936  0.5796
   6223SM  H12T 7948   3.335   3.114  10.416 -2.7555  4.2730 -0.9525
   6223SM  C13S 7949   3.408   3.088  10.216  0.3122 -0.2872  0.3856
   6223SM  H13S 7950   3.437   2.981  10.213  0.1145 -0.3933  1.5258
   6223SM  H13T 7951   3.486   3.138  10.155  0.7656 -1.0324  0.3512
   6223SM  C14S 7952   3.260   3.099  10.156 -0.2973  0.5376 -0.3731
   6223SM  H14S 7953   3.227   3.204  10.174 -1.3621  0.0226  0.7809
   6223SM  H14T 7954   3.187   3.029  10.201 -0.8997  0.5782 -1.2631
   6223SM  C15S 7955   3.264   3.083  10.007 -0.3376  0.2421  0.3681
   6223SM  H15S 7956   3.297   3.178   9.960  3.7541  0.1226  2.5253
   6223SM  H15T 7957   3.163   3.072   9.963  0.4274  1.6771 -1.9473
   6223SM  C16S 7958   3.351   2.966   9.947 -0.0986  0.5204 -0.4466
   6223SM  H16S 7959   3.329   2.867   9.992 -0.8537  0.7315 -0.3419
   6223SM  H16T 7960   3.461   2.979   9.957  0.1446  0.9573 -2.9289
   6223SM  C17S 7961   3.326   2.948   9.799  0.0387 -0.1559  0.5757
   6223SM  H17S 7962   3.217   2.947   9.778 -0.0820  1.2641  0.9970
   6223SM  H17T 7963   3.368   2.848   9.776  0.2940 -0.4715  2.2663
   6223SM  C18S 7964   3.403   3.045   9.706 -0.2997  0.0167  0.4152
   6223SM  H18S 7965   3.365   3.012   9.607 -3.3006 -0.8112  1.7063
   6223SM  H18T 7966   3.512   3.027   9.717  0.1369  0.9665 -1.7682
   6223SM  H18U 7967   3.384   3.154   9.717  0.2030  0.1751 -0.2490
   6223SM   C1F 7968   2.834   3.219  10.928 -0.3694  0.5295 -0.0357
   6223SM    OF 7969   2.785   3.322  10.971 -0.0867 -0.2362 -0.3113
   6223SM   C2F 7970   2.832   3.191  10.784  0.5835  0.1434  0.0777
   6223SM   H2F 7971   2.792   3.089  10.769 -1.0034  0.6173  0.9279
   6223SM   H2G 7972   2.938   3.179  10.752  1.2396  3.1327  0.7788
   6223SM   C3F 7973   2.771   3.306  10.702 -0.1089 -1.1433  0.3059
   6223SM   H3F 7974   2.811   3.405  10.733  1.8948 -2.0529  0.7362
   6223SM   H3G 7975   2.661   3.304  10.718  0.1372 -1.4714  2.1088
   6223SM   C4F 7976   2.786   3.303  10.549 -0.8009 -0.2400 -0.2976
   6223SM   H4F 7977   2.891   3.321  10.518 -1.1787  1.8867 -0.4509
   6223SM   H4G 7978   2.720   3.382  10.509 -2.0412 -1.5398 -0.9196
   6223SM   C5F 7979   2.748   3.173  10.489  0.5442  0.2791  0.0507
   6223SM   H5F 7980   2.656   3.135  10.539  0.2819 -0.9635 -1.3014
   6223SM   H5G 7981   2.832   3.103  10.511  1.7515  1.7002  0.0990
   6223SM   C6F 7982   2.729   3.183  10.339 -0.5995 -0.0408  0.2203
   6223SM   H6F 7983   2.637   3.241  10.322  0.3507  1.9596  1.5778
   6223SM   H6G 7984   2.709   3.084  10.292  2.2945  0.2330 -1.8682
   6223SM   C7F 7985   2.846   3.242  10.258 -0.1988 -0.3853 -0.0830
   6223SM   H7F 7986   2.941   3.188  10.280  1.3277  2.8416  2.1049
   6223SM   H7G 7987   2.865   3.344  10.297  2.3667  0.4956 -3.2625
   6223SM   C8F 7988   2.812   3.250  10.109 -0.9344  0.0560  1.0453
   6223SM   H8F 7989   2.717   3.303  10.088 -1.7229 -2.0375 -1.3004
   6223SM   H8G 7990   2.795   3.146  10.073 -0.0154  0.0536  0.5884
   6223SM   C9F 7991   2.926   3.309  10.025  0.0460 -0.3105 -0.2157
   6223SM   H9F 7992   3.024   3.266  10.054  0.5780  0.0026 -1.4748
   6223SM   H9G 7993   2.936   3.416  10.052  1.2214 -0.4745  0.0309
   6223SM  C10F 7994   2.906   3.298   9.870 -0.2762 -0.2675  0.5616
   6223SM  H10F 7995   2.820   3.360   9.835  0.8676  0.7043 -0.5953
   6223SM  H10G 7996   2.869   3.195   9.850 -3.1936  0.8901 -0.5447
   6223SM  C11F 7997   3.031   3.318   9.780  0.3961  0.0073 -0.0912
   6223SM  H11F 7998   3.109   3.243   9.807 -2.4281 -3.8033 -1.5839
   6223SM  H11G 7999   3.064   3.424   9.790 -0.0963  0.2442 -0.8733
   6223SM  C12F 8000   2.994   3.288   9.633 -0.6061 -0.1335  0.2140
   6223SM  H12F 8001   2.918   3.365   9.606  0.1697  0.7339  0.4854
   6223SM  H12G 8002   2.944   3.189   9.624 -1.2469  0.1651  0.3715
   6223SM  C13F 8003   3.107   3.301   9.528  0.0205  0.1763  0.4675
   6223SM  H13F 8004   3.198   3.255   9.574  0.2333  0.2961  0.1733
   6223SM  H13G 8005   3.131   3.404   9.494 -1.3766  0.3208 -0.1453
   6223SM  C14F 8006   3.090   3.226   9.396 -0.3710 -0.6528  0.5183
   6223SM  H14F 8007   3.074   3.116   9.409 -1.5187 -0.7234 -1.1242
   6223SM  H14G 8008   3.185   3.243   9.342 -0.5456  0.5476  0.5748
   6223SM  C15F 8009   2.983   3.290   9.302 -0.5553 -0.2523 -0.1834
   6223SM  H15F 8010   3.015   3.396   9.293  0.4771 -0.6289 -1.1687
   6223SM  H15G 8011   2.886   3.293   9.356  0.9452 -0.6871  2.7341
   6223SM  C16F 8012   2.985   3.225   9.162 -0.1095 -0.1362 -0.9518
   6223SM  H16F 8013   2.967   3.115   9.169  1.1504 -0.3647 -1.1676
   6223SM  H16G 8014   3.084   3.242   9.117  0.0087  0.1873 -0.5752
   6223SM  C17F 8015   2.890   3.277   9.061  0.5681  0.1434 -0.0708
   6223SM  H17F 8016   2.918   3.381   9.033 -0.6222  0.1853 -1.1960
   6223SM  H17G 8017   2.786   3.279   9.100  0.3979 -0.8662 -0.4568
   6223SM  C18F 8018   2.880   3.186   8.941 -0.4714  0.6594  0.5145
   6223SM  H18F 8019   2.845   3.089   8.982 -0.7709  0.1203 -0.9401
   6223SM  H18G 8020   2.975   3.160   8.890  0.2489 -0.3668  2.2830
   6223SM  C19F 8021   2.762   3.232   8.857 -0.3413  0.5148  0.1994
   6223SM  H19F 8022   2.774   3.337   8.821 -1.1589 -0.1129 -2.0703
   6223SM  H19G 8023   2.678   3.227   8.930 -0.9735  0.7692 -0.5041
   6223SM  C20F 8024   2.729   3.138   8.740 -0.4610 -0.3836  0.4260
   6223SM  H20F 8025   2.634   3.183   8.703  0.4430  1.7392  0.5650
   6223SM  H20G 8026   2.734   3.034   8.779  0.4274 -0.1065  1.0861
   6223SM  C21F 8027   2.818   3.153   8.616  0.3382 -0.3150 -0.2778
   6223SM  H21F 8028   2.926   3.135   8.636  0.3104  0.1989  0.3792
   6223SM  H21G 8029   2.818   3.252   8.566 -2.1351  0.0388  0.2977
   6223SM  C22F 8030   2.768   3.055   8.509 -0.0215 -0.3674  0.6021
   6223SM  H22F 8031   2.661   3.070   8.484 -0.1951 -2.2123  0.0396
   6223SM  H22G 8032   2.797   2.954   8.546  0.9904  0.1773  1.3464
   6223SM  C23F 8033   2.834   3.075   8.370  0.1887 -0.1766  0.2141
   6223SM  H23F 8034   2.944   3.076   8.378  0.3089  1.3226 -1.2059
   6223SM  H23G 8035   2.795   3.170   8.328 -1.7239 -1.4730 -1.1336
   6223SM  H23H 8036   2.802   2.997   8.297 -3.3677  0.6472  0.7082
   6323SM     N 8037   3.598   4.486  11.663 -0.0337 -0.1851 -0.7433
   6323SM   C15 8038   3.620   4.628  11.722  0.2383 -0.7303  0.0666
   6323SM  H15A 8039   3.521   4.666  11.739 -0.1605  0.4793 -3.8715
   6323SM  H15B 8040   3.675   4.689  11.651  1.6531 -1.4922  0.4591
   6323SM  H15C 8041   3.672   4.623  11.816  0.6429  0.0937 -0.0997
   6323SM   C14 8042   3.497   4.419  11.760 -0.7515  0.2150  0.1495
   6323SM  H14A 8043   3.522   4.423  11.865  1.0666 -1.4338 -0.1817
   6323SM  H14B 8044   3.483   4.316  11.733  2.3674 -0.0926 -0.5871
   6323SM  H14C 8045   3.409   4.482  11.752  0.3661  1.7976 -0.2639
   6323SM   C13 8046   3.538   4.490  11.531  0.3077 -0.4075  0.9510
   6323SM  H13A 8047   3.521   4.392  11.490  1.5920  0.2207 -1.2822
   6323SM  H13B 8048   3.602   4.546  11.464 -2.6883  0.8321 -1.1269
   6323SM  H13C 8049   3.445   4.546  11.528  1.4439  1.5091 -0.5891
   6323SM   C12 8050   3.723   4.404  11.670  0.4134 -0.2711  0.1866
   6323SM  H12A 8051   3.710   4.309  11.621  0.8011  0.0039 -0.4623
   6323SM  H12B 8052   3.747   4.381  11.773  1.3089  2.0703  0.5715
   6323SM   C11 8053   3.848   4.464  11.609 -0.0970  0.2310 -0.1440
   6323SM  H11A 8054   3.940   4.410  11.641 -1.5624 -1.6952  1.0388
   6323SM  H11B 8055   3.864   4.570  11.639 -0.4656 -0.0683  1.1894
   6323SM     P 8056   3.862   4.324  11.380  0.0014 -0.0980  0.0680
   6323SM   O13 8057   3.998   4.318  11.321 -0.2735 -0.6015  0.2334
   6323SM   O14 8058   3.816   4.218  11.468  0.4551  0.5307  0.3330
   6323SM   O11 8059   3.756   4.343  11.268 -0.3801 -0.2561  0.0707
   6323SM   O12 8060   3.851   4.458  11.465 -0.4217  0.6060 -0.0946
   6323SM   C1S 8061   3.745   4.461  11.182 -0.9979  0.0628 -0.6409
   6323SM   H1S 8062   3.845   4.483  11.139 -0.4538  1.7193  1.2622
   6323SM   H1T 8063   3.731   4.556  11.238  0.3860  0.5197 -1.0209
   6323SM    NF 8064   3.682   4.545  10.958 -0.2060 -0.0691 -0.7535
   6323SM   HNF 8065   3.610   4.613  10.946 -1.1717 -1.1282 -1.1122
   6323SM   C2S 8066   3.663   4.437  11.054  0.4890  0.8887  0.0168
   6323SM   H2S 8067   3.713   4.350  11.008  2.7976  2.1311  0.0247
   6323SM   C3S 8068   3.519   4.399  11.089 -0.2425 -0.1851 -0.7540
   6323SM   H3S 8069   3.476   4.489  11.137  1.4659  0.7200 -0.8570
   6323SM    O3 8070   3.494   4.301  11.188  0.4247 -0.2434  0.4015
   6323SM   HO3 8071   3.585   4.295  11.219  0.9920  0.8604 -0.9185
   6323SM   C4S 8072   3.432   4.379  10.970  0.0733  0.2573  0.0482
   6323SM   H4S 8073   3.354   4.453  10.950  1.0398  0.9436 -1.3630
   6323SM   C5S 8074   3.447   4.276  10.882  0.4901 -0.0116 -0.7963
   6323SM   H5S 8075   3.524   4.204  10.912 -0.8416 -0.9889  0.4495
   6323SM   C6S 8076   3.367   4.238  10.763 -0.0023 -0.0438  0.3527
   6323SM   H6S 8077   3.422   4.272  10.673 -0.7703 -0.9810 -0.5013
   6323SM   H6T 8078   3.277   4.303  10.770 -0.5591 -0.9323  3.0358
   6323SM   C7S 8079   3.310   4.093  10.742  1.0969 -0.7006  0.3713
   6323SM   H7S 8080   3.261   4.084  10.643  2.8949 -1.2206 -0.5161
   6323SM   H7T 8081   3.244   4.062  10.826  0.5955 -0.6811 -0.0123
   6323SM   C8S 8082   3.425   3.991  10.728  0.2449 -0.0156  0.8761
   6323SM   H8S 8083   3.391   3.889  10.701 -0.3296  0.3124  0.3287
   6323SM   H8T 8084   3.464   3.979  10.832  2.5033 -0.7968 -0.0006
   6323SM   C9S 8085   3.541   4.021  10.630 -0.1657  0.4766  0.4023
   6323SM   H9S 8086   3.611   3.936  10.647 -0.0410  0.8869  2.0928
   6323SM   H9T 8087   3.590   4.118  10.654 -0.0228  1.4949 -3.4007
   6323SM  C10S 8088   3.498   4.034  10.484 -0.4566 -0.4853  0.4191
   6323SM  H10S 8089   3.391   4.009  10.466 -0.1983 -1.5152  0.2167
   6323SM  H10T 8090   3.566   3.966  10.428 -0.1530 -0.3094  0.5764
   6323SM  C11S 8091   3.528   4.175  10.429 -0.3661 -0.1759  0.3122
   6323SM  H11S 8092   3.632   4.205  10.453  0.2589 -1.0516 -1.1962
   6323SM  H11T 8093   3.446   4.243  10.461 -0.4647  0.1533 -0.6073
   6323SM  C12S 8094   3.526   4.200  10.276 -0.3312  0.2178  0.5047
   6323SM  H12S 8095   3.557   4.305  10.253 -0.3857 -0.0256 -0.7745
   6323SM  H12T 8096   3.431   4.168  10.230  0.2925  1.1141 -1.5176
   6323SM  C13S 8097   3.631   4.106  10.202 -0.4695  0.4180  1.0373
   6323SM  H13S 8098   3.585   4.005  10.209  1.3765 -0.7920 -2.2930
   6323SM  H13T 8099   3.734   4.096  10.242 -0.1112 -2.3723 -0.3877
   6323SM  C14S 8100   3.646   4.150  10.057  0.2165 -0.8082 -0.2454
   6323SM  H14S 8101   3.709   4.241  10.052 -0.3438 -0.3596  0.6210
   6323SM  H14T 8102   3.546   4.185  10.023  0.8435  0.5584 -0.7546
   6323SM  C15S 8103   3.706   4.045   9.961  0.0199 -0.3685  0.0772
   6323SM  H15S 8104   3.651   3.950   9.975  3.3517 -2.3367  1.0094
   6323SM  H15T 8105   3.812   4.019   9.983 -0.4140 -0.0907  2.7689
   6323SM  C16S 8106   3.693   4.099   9.817  0.8645 -0.7997 -0.0419
   6323SM  H16S 8107   3.594   4.148   9.805 -0.2921 -2.6317  1.4611
   6323SM  H16T 8108   3.672   4.017   9.744 -0.0869 -0.4902 -0.1279
   6323SM  C17S 8109   3.813   4.181   9.763  0.1805  0.6686 -0.4170
   6323SM  H17S 8110   3.892   4.102   9.760 -0.5104 -0.0101 -2.1317
   6323SM  H17T 8111   3.836   4.263   9.834  0.0184  0.2996  0.0706
   6323SM  C18S 8112   3.798   4.230   9.618  0.6397 -0.1844  0.5675
   6323SM  H18S 8113   3.712   4.300   9.619  1.9342  1.5511 -1.7317
   6323SM  H18T 8114   3.778   4.148   9.546 -0.4970  0.9784 -0.4871
   6323SM  H18U 8115   3.885   4.289   9.584  0.9810 -1.5533 -1.0571
   6323SM   C1F 8116   3.797   4.571  10.894  0.1762 -0.2827 -0.4013
   6323SM    OF 8117   3.892   4.496  10.911 -0.3931  0.1942 -0.1373
   6323SM   C2F 8118   3.795   4.681  10.802  0.0289 -0.0497 -0.2386
   6323SM   H2F 8119   3.900   4.714  10.788 -0.5465  1.2771 -1.6571
   6323SM   H2G 8120   3.732   4.768  10.832  3.4270  2.5913 -0.1057
   6323SM   C3F 8121   3.740   4.634  10.663  0.1051 -0.0497 -0.0726
   6323SM   H3F 8122   3.798   4.544  10.631 -0.1122 -0.9381  1.8632
   6323SM   H3G 8123   3.765   4.702  10.579 -0.4905 -3.6962 -3.5383
   6323SM   C4F 8124   3.582   4.604  10.648 -0.3147  0.6948 -0.2811
   6323SM   H4F 8125   3.527   4.687  10.697  0.0054  0.7936 -0.0881
   6323SM   H4G 8126   3.577   4.514  10.713  1.5134 -0.0946 -1.1370
   6323SM   C5F 8127   3.533   4.577  10.509 -0.2272 -0.2354 -0.1169
   6323SM   H5F 8128   3.571   4.475  10.485 -0.8683 -0.3818 -0.5288
   6323SM   H5G 8129   3.562   4.656  10.437  3.0610 -0.2586  1.0178
   6323SM   C6F 8130   3.382   4.579  10.507  0.3835  0.7490  0.1289
   6323SM   H6F 8131   3.338   4.679  10.526 -2.7310 -0.6530  0.9174
   6323SM   H6G 8132   3.344   4.529  10.599  0.5343  1.1045  0.3838
   6323SM   C7F 8133   3.326   4.517  10.384  0.0419 -0.1647  0.5173
   6323SM   H7F 8134   3.215   4.526  10.377  0.0449 -1.1781 -1.3941
   6323SM   H7G 8135   3.333   4.406  10.374 -2.5316 -0.1809 -4.4752
   6323SM   C8F 8136   3.383   4.565  10.248  0.0794  0.1470  0.5176
   6323SM   H8F 8137   3.489   4.541  10.224  0.2672  1.7288 -0.3567
   6323SM   H8G 8138   3.368   4.673  10.227 -1.5995  0.1416  1.5048
   6323SM   C9F 8139   3.330   4.482  10.129  0.1304 -0.4429 -0.8784
   6323SM   H9F 8140   3.220   4.467  10.125  0.3836 -2.1578 -2.5917
   6323SM   H9G 8141   3.364   4.377  10.129 -0.1806 -0.6253  2.0458
   6323SM  C10F 8142   3.361   4.557  10.000 -0.2170 -0.2248  0.3925
   6323SM  H10F 8143   3.355   4.667  10.016 -0.3192 -0.0392 -0.8003
   6323SM  H10G 8144   3.279   4.532   9.929 -1.1327  1.1296  0.9263
   6323SM  C11F 8145   3.498   4.518   9.939  0.7753  0.8360  0.1535
   6323SM  H11F 8146   3.481   4.412   9.912 -2.7208  0.8512  1.6605
   6323SM  H11G 8147   3.576   4.520  10.018 -0.2003  1.5836  1.1264
   6323SM  C12F 8148   3.522   4.599   9.813 -0.2741 -0.5099  0.2938
   6323SM  H12F 8149   3.507   4.705   9.844 -0.6287 -1.1438  2.3970
   6323SM  H12G 8150   3.443   4.577   9.739  0.7775  1.6265 -1.6041
   6323SM  C13F 8151   3.662   4.583   9.746  0.0536 -0.0384 -0.8286
   6323SM  H13F 8152   3.672   4.478   9.713 -2.3436 -0.1180 -1.4947
   6323SM  H13G 8153   3.741   4.591   9.824 -1.0690  0.1721  0.3345
   6323SM  C14F 8154   3.683   4.677   9.630 -0.0164  0.4872 -0.0019
   6323SM  H14F 8155   3.702   4.779   9.670 -0.1248  1.2445 -1.7974
   6323SM  H14G 8156   3.587   4.673   9.573  0.4362  1.7959 -0.8858
   6323SM  C15F 8157   3.798   4.627   9.534  0.4055  0.3636 -0.1420
   6323SM  H15F 8158   3.819   4.708   9.461  0.0336 -0.3391 -1.0553
   6323SM  H15G 8159   3.754   4.539   9.482  0.8226  0.3170 -0.4261
   6323SM  C16F 8160   3.926   4.603   9.614  0.2660  0.4430 -0.2024
   6323SM  H16F 8161   4.004   4.562   9.547 -1.0054 -1.9478 -0.3299
   6323SM  H16G 8162   3.911   4.524   9.690  1.9465 -1.6393 -1.9152
   6323SM  C17F 8163   3.989   4.722   9.679  0.2691 -0.3246  0.5945
   6323SM  H17F 8164   4.066   4.675   9.744  2.1170  2.9630  0.9948
   6323SM  H17G 8165   3.918   4.779   9.743 -1.2326 -2.4786  0.9508
   6323SM  C18F 8166   4.039   4.820   9.575  0.1240  0.2384 -0.2664
   6323SM  H18F 8167   3.971   4.835   9.489  0.7662 -0.8007 -0.9708
   6323SM  H18G 8168   4.130   4.766   9.539 -0.4252 -0.4850 -0.5772
   6323SM  C19F 8169   4.080   4.953   9.641  0.8592  0.4178  0.0946
   6323SM  H19F 8170   4.125   4.934   9.740 -0.6269 -0.9075  0.5638
   6323SM  H19G 8171   3.989   5.010   9.672  2.1247  3.3314 -1.1512
   6323SM  C20F 8172   4.173   5.045   9.557  0.0269  0.2026 -0.0025
   6323SM  H20F 8173   4.170   5.149   9.595 -3.1668  0.4084 -0.5317
   6323SM  H20G 8174   4.128   5.079   9.461 -2.5807 -1.9874  0.3112
   6323SM  C21F 8175   4.317   5.006   9.544  0.0250 -0.1399  0.9446
   6323SM  H21F 8176   4.330   4.902   9.506  0.2588  0.4022 -0.5562
   6323SM  H21G 8177   4.370   5.000   9.641  0.4959  0.2483  0.7167
   6323SM  C22F 8178   4.401   5.093   9.443  0.4422 -0.2880  0.0503
   6323SM  H22F 8179   4.400   5.199   9.479  2.0174 -0.5029  0.8135
   6323SM  H22G 8180   4.346   5.090   9.347  1.5684 -0.6520 -0.6023
   6323SM  C23F 8181   4.544   5.046   9.416  0.1964  0.1358 -0.7535
   6323SM  H23F 8182   4.539   4.939   9.388 -1.4051 -0.5006  1.7198
   6323SM  H23G 8183   4.611   5.058   9.503 -0.6930  1.0521 -0.1771
   6323SM  H23H 8184   4.591   5.102   9.332 -1.2808  0.1030 -1.6393
   6423SM     N 8185   5.926   3.575  11.190  0.3155  0.6478  0.2415
   6423SM   C15 8186   6.034   3.624  11.095  0.2224  0.2554 -0.7576
   6423SM  H15A 8187   6.009   3.635  10.990 -0.7209  2.4463 -0.3642
   6423SM  H15B 8188   6.123   3.563  11.090 -2.4487 -3.9320 -3.5591
   6423SM  H15C 8189   6.066   3.723  11.126  1.0364 -0.9347  2.5332
   6423SM   C14 8190   5.806   3.659  11.158 -0.3972 -0.4284  0.1534
   6423SM  H14A 8191   5.727   3.620  11.221  0.7891  0.4088  2.2556
   6423SM  H14B 8192   5.774   3.647  11.055  0.1180 -0.1370 -0.0466
   6423SM  H14C 8193   5.828   3.761  11.185 -1.8855 -0.1120  0.2527
   6423SM   C13 8194   5.890   3.431  11.157  0.3670 -0.4722 -0.3754
   6423SM  H13A 8195   5.813   3.403  11.227 -1.3622  2.0967 -1.1309
   6423SM  H13B 8196   5.982   3.377  11.179  0.5231  0.0742  0.3819
   6423SM  H13C 8197   5.860   3.413  11.055 -1.0836  1.1304 -0.2634
   6423SM   C12 8198   5.971   3.589  11.334 -0.5511 -0.0579 -0.6520
   6423SM  H12A 8199   5.978   3.695  11.352  0.0781 -0.1433 -0.3278
   6423SM  H12B 8200   6.075   3.558  11.333 -0.5752 -0.1326 -0.8187
   6423SM   C11 8201   5.883   3.518  11.442 -0.1776  0.7865 -0.3380
   6423SM  H11A 8202   5.925   3.546  11.541  0.6954  3.2867 -1.3105
   6423SM  H11B 8203   5.909   3.413  11.419 -1.0662  0.4709  0.0917
   6423SM     P 8204   5.639   3.441  11.448 -0.0998 -0.2533 -0.0651
   6423SM   O13 8205   5.697   3.347  11.542 -0.6190  0.2985 -0.0911
   6423SM   O14 8206   5.509   3.494  11.490 -0.0564 -0.2009 -0.3750
   6423SM   O11 8207   5.635   3.368  11.307 -0.0948  0.3488 -0.2080
   6423SM   O12 8208   5.744   3.549  11.425  0.2540 -0.4999  0.2107
   6423SM   C1S 8209   5.543   3.413  11.205  0.1072  0.2620 -0.1613
   6423SM   H1S 8210   5.603   3.478  11.139 -1.3464 -0.5484 -2.3963
   6423SM   H1T 8211   5.448   3.461  11.238  0.5906  1.0944  0.0244
   6423SM    NF 8212   5.467   3.336  10.973  0.5342  0.0379  0.7031
   6423SM   HNF 8213   5.372   3.317  10.950  0.9853 -1.1051 -0.3686
   6423SM   C2S 8214   5.508   3.290  11.109  0.0450  0.1182  0.3541
   6423SM   H2S 8215   5.599   3.232  11.086  0.2955  0.9341 -0.8836
   6423SM   C3S 8216   5.407   3.187  11.179 -0.5466 -0.1480 -0.0697
   6423SM   H3S 8217   5.312   3.241  11.198 -0.4679 -0.4731  1.3492
   6423SM    O3 8218   5.448   3.147  11.309  0.1299  0.5015 -0.0697
   6423SM   HO3 8219   5.516   3.208  11.337 -0.9930  1.2017  1.2643
   6423SM   C4S 8220   5.381   3.059  11.095  0.5964 -0.3695 -0.1348
   6423SM   H4S 8221   5.465   2.989  11.101  1.8571  0.9815 -1.2105
   6423SM   C5S 8222   5.266   3.015  11.036  0.2664 -1.0082 -0.1867
   6423SM   H5S 8223   5.173   3.068  11.060  1.0536  0.0267  0.6541
   6423SM   C6S 8224   5.251   2.878  10.979  0.1992 -1.1936  0.2479
   6423SM   H6S 8225   5.203   2.887  10.880  1.4840  3.2886 -0.1758
   6423SM   H6T 8226   5.185   2.816  11.043 -0.7657  0.6258  1.0763
   6423SM   C7S 8227   5.375   2.782  10.964  0.5414  0.0316  0.2750
   6423SM   H7S 8228   5.414   2.780  11.068  0.4605 -1.0135  0.2957
   6423SM   H7T 8229   5.456   2.826  10.901  0.3261  0.2766  0.1654
   6423SM   C8S 8230   5.334   2.640  10.912 -0.8853  0.4135  0.4525
   6423SM   H8S 8231   5.258   2.593  10.978 -1.2427  1.5996  0.9217
   6423SM   H8T 8232   5.433   2.592  10.921 -1.1904 -0.3796 -0.3475
   6423SM   C9S 8233   5.273   2.636  10.768  0.1069  0.1108  0.4281
   6423SM   H9S 8234   5.334   2.695  10.697 -1.3778  1.5930  0.3193
   6423SM   H9T 8235   5.169   2.674  10.776  0.1834  0.4447 -0.1420
   6423SM  C10S 8236   5.259   2.484  10.731 -0.3368 -0.5641 -0.1523
   6423SM  H10S 8237   5.213   2.434  10.819 -0.6483 -0.3219 -0.1790
   6423SM  H10T 8238   5.366   2.464  10.707  0.0544  3.2251 -2.3658
   6423SM  C11S 8239   5.183   2.470  10.597  0.1416 -0.1241  0.1718
   6423SM  H11S 8240   5.080   2.495  10.630  1.2496  0.4389  3.6313
   6423SM  H11T 8241   5.179   2.362  10.568 -1.9270 -0.2827  0.9323
   6423SM  C12S 8242   5.220   2.561  10.475 -0.7968  1.0485 -0.6003
   6423SM  H12S 8243   5.330   2.579  10.475 -0.5746 -0.1646 -0.4251
   6423SM  H12T 8244   5.166   2.656  10.495 -0.0647  2.0005 -2.8414
   6423SM  C13S 8245   5.157   2.501  10.348 -0.7613  0.6199  0.3180
   6423SM  H13S 8246   5.055   2.464  10.373 -1.2662  1.1857 -0.8339
   6423SM  H13T 8247   5.212   2.411  10.313 -1.6941  0.1685 -0.0365
   6423SM  C14S 8248   5.141   2.605  10.242  0.0954 -0.2995  0.9375
   6423SM  H14S 8249   5.229   2.670  10.225 -1.3502  1.5763  0.3486
   6423SM  H14T 8250   5.063   2.676  10.277  1.5307  1.4946  0.6131
   6423SM  C15S 8251   5.102   2.551  10.101 -0.2866 -0.4145  0.2924
   6423SM  H15S 8252   5.003   2.502  10.114 -1.4436  1.5833 -0.5650
   6423SM  H15T 8253   5.170   2.469  10.071 -0.1423  0.5635 -2.3261
   6423SM  C16S 8254   5.099   2.657   9.993 -0.9788 -0.1097 -0.1715
   6423SM  H16S 8255   5.198   2.703   9.970 -1.6416  0.2373 -2.6014
   6423SM  H16T 8256   5.016   2.727  10.016 -0.6247  1.1197 -2.4059
   6423SM  C17S 8257   5.069   2.596   9.848 -0.0158  0.2094  0.1605
   6423SM  H17S 8258   5.139   2.512   9.832 -1.1074 -0.4033 -1.7757
   6423SM  H17T 8259   5.078   2.666   9.763 -0.0236 -1.5794 -1.3863
   6423SM  C18S 8260   4.919   2.538   9.848  0.0124  0.0675  0.1372
   6423SM  H18S 8261   4.917   2.449   9.914  1.0884  0.1697  0.3216
   6423SM  H18T 8262   4.892   2.522   9.742 -1.0433 -1.3391  0.5901
   6423SM  H18U 8263   4.853   2.618   9.889  1.1178  0.0499  2.0809
   6423SM   C1F 8264   5.538   3.417  10.890  0.2221  0.8440  0.0245
   6423SM    OF 8265   5.655   3.443  10.914  0.0729  0.6926  0.1240
   6423SM   C2F 8266   5.462   3.458  10.766 -0.3525 -0.0520  0.2212
   6423SM   H2F 8267   5.359   3.422  10.789 -0.1592 -0.6168  0.2140
   6423SM   H2G 8268   5.504   3.410  10.675 -2.3507 -1.9622  0.2070
   6423SM   C3F 8269   5.461   3.606  10.742 -0.2573 -0.0143  0.2020
   6423SM   H3F 8270   5.560   3.652  10.723 -0.5126  1.3510  1.8747
   6423SM   H3G 8271   5.427   3.657  10.835  0.3476 -0.1404  0.4973
   6423SM   C4F 8272   5.362   3.648  10.627 -0.1262  0.1313  0.4186
   6423SM   H4F 8273   5.375   3.755  10.602  0.8256  0.2729  1.4424
   6423SM   H4G 8274   5.260   3.628  10.664  1.0609 -1.6062  3.0690
   6423SM   C5F 8275   5.380   3.573  10.493  0.9065  0.5171  0.6515
   6423SM   H5F 8276   5.349   3.467  10.500  0.8192  0.2426 -2.4636
   6423SM   H5G 8277   5.488   3.563  10.474  1.0804 -1.6436  2.4047
   6423SM   C6F 8278   5.305   3.644  10.383  0.4309 -0.1713  0.8030
   6423SM   H6F 8279   5.333   3.751  10.374  0.8687 -0.2946  0.6393
   6423SM   H6G 8280   5.195   3.651  10.394  0.4157  1.2885  0.0017
   6423SM   C7F 8281   5.335   3.575  10.248 -0.5887 -0.4018 -0.4966
   6423SM   H7F 8282   5.327   3.464  10.256 -1.6521 -0.7653 -4.4354
   6423SM   H7G 8283   5.443   3.585  10.226 -0.4524 -1.0828 -0.1608
   6423SM   C8F 8284   5.258   3.615  10.127  0.3551 -0.8414 -0.7260
   6423SM   H8F 8285   5.275   3.724  10.114  1.0463 -0.9585 -0.8233
   6423SM   H8G 8286   5.151   3.597  10.154  0.9360 -0.5646  2.0372
   6423SM   C9F 8287   5.297   3.532  10.004  0.0580 -0.7876  0.2372
   6423SM   H9F 8288   5.298   3.423  10.028  1.2205 -1.4440 -2.4847
   6423SM   H9G 8289   5.396   3.573   9.974 -0.0838 -0.3568  0.3503
   6423SM  C10F 8290   5.188   3.551   9.892  0.4918 -0.5703  0.2807
   6423SM  H10F 8291   5.095   3.530   9.949 -0.8417  2.6834 -0.4897
   6423SM  H10G 8292   5.201   3.471   9.816 -0.5257 -0.4332 -0.0500
   6423SM  C11F 8293   5.177   3.690   9.842  0.5881  0.4583  0.5993
   6423SM  H11F 8294   5.277   3.709   9.797  1.5105 -3.1163  0.8880
   6423SM  H11G 8295   5.159   3.758   9.928  2.9719  1.0718  0.7079
   6423SM  C12F 8296   5.059   3.701   9.743 -0.4256  0.2863 -0.4121
   6423SM  H12F 8297   4.963   3.660   9.783 -0.2603 -0.9190 -1.2013
   6423SM  H12G 8298   5.079   3.643   9.651  3.1773  0.2212  0.2603
   6423SM  C13F 8299   5.030   3.851   9.708 -0.3002  0.3388 -0.3991
   6423SM  H13F 8300   5.107   3.878   9.632  1.1072 -2.5184 -0.1246
   6423SM  H13G 8301   5.033   3.921   9.794 -1.0979  0.2124 -0.2655
   6423SM  C14F 8302   4.893   3.871   9.650 -0.4579 -0.2733  0.6619
   6423SM  H14F 8303   4.809   3.834   9.713 -0.1768 -0.2746  1.0365
   6423SM  H14G 8304   4.892   3.820   9.551 -1.2485 -0.4438  0.7512
   6423SM  C15F 8305   4.877   4.026   9.633  0.2616  0.4300 -0.4710
   6423SM  H15F 8306   4.939   4.061   9.548  0.4843  0.2810 -0.3693
   6423SM  H15G 8307   4.913   4.077   9.725 -0.4010 -1.5215  0.9615
   6423SM  C16F 8308   4.737   4.087   9.606 -0.7683 -0.3436 -0.6868
   6423SM  H16F 8309   4.704   4.063   9.503 -1.8958 -2.5840  0.1354
   6423SM  H16G 8310   4.747   4.196   9.626  0.4741 -0.5449 -0.1278
   6423SM  C17F 8311   4.628   4.043   9.691  0.4033 -0.1318 -0.3483
   6423SM  H17F 8312   4.657   4.040   9.798 -0.2089  2.0572 -0.0686
   6423SM  H17G 8313   4.599   3.939   9.665 -0.8284 -0.1770  1.0737
   6423SM  C18F 8314   4.502   4.133   9.669  0.7671 -0.5286  0.2314
   6423SM  H18F 8315   4.524   4.242   9.662 -1.0890 -0.1892 -1.2240
   6423SM  H18G 8316   4.441   4.137   9.762  1.8717  4.0297  1.0190
   6423SM  C19F 8317   4.412   4.111   9.541 -0.0654 -0.6477 -0.2761
   6423SM  H19F 8318   4.462   4.145   9.448 -0.1088  0.3842  0.0637
   6423SM  H19G 8319   4.322   4.177   9.539  1.2375  1.1886 -2.0994
   6423SM  C20F 8320   4.369   3.969   9.519  0.4295  0.7202 -0.1958
   6423SM  H20F 8321   4.333   3.926   9.615 -1.4340 -0.1891 -1.2288
   6423SM  H20G 8322   4.455   3.900   9.512  0.6645  0.7493  1.7797
   6423SM  C21F 8323   4.266   3.953   9.405  0.4640  0.4746 -1.1795
   6423SM  H21F 8324   4.306   3.988   9.307 -1.2133 -0.2201 -2.1362
   6423SM  H21G 8325   4.177   4.016   9.424  1.3182  1.6627 -1.0377
   6423SM  C22F 8326   4.216   3.806   9.391  0.4175 -1.1486 -0.2317
   6423SM  H22F 8327   4.199   3.759   9.490  0.3272 -0.4371  0.0966
   6423SM  H22G 8328   4.297   3.746   9.345  0.3087 -0.1379 -1.8184
   6423SM  C23F 8329   4.099   3.792   9.298 -0.1414 -0.2322 -0.3841
   6423SM  H23F 8330   4.019   3.859   9.335  0.0493 -1.0432  1.6455
   6423SM  H23G 8331   4.067   3.687   9.282 -0.1446 -0.4399  0.8632
   6423SM  H23H 8332   4.126   3.831   9.197 -2.1391 -0.8162 -1.1823
   6523SM     N 8333   5.371   4.743  11.037  0.7224  0.1000 -0.2349
   6523SM   C15 8334   5.360   4.595  11.059 -0.3165  0.0253 -0.0225
   6523SM  H15A 8335   5.319   4.577  11.157 -0.1373 -0.2805 -0.0047
   6523SM  H15B 8336   5.458   4.550  11.051 -0.3011  0.3731 -2.8180
   6523SM  H15C 8337   5.292   4.551  10.988 -2.4869  1.6255  0.9609
   6523SM   C14 8338   5.242   4.822  11.069  0.4960 -0.2628 -0.3455
   6523SM  H14A 8339   5.211   4.806  11.171  0.9648  1.4439  0.1021
   6523SM  H14B 8340   5.162   4.794  11.003 -0.2375 -2.1591  1.2606
   6523SM  H14C 8341   5.251   4.929  11.054 -1.6688  0.0492  0.2913
   6523SM   C13 8342   5.471   4.780  11.147 -0.0102  0.3932  0.1343
   6523SM  H13A 8343   5.562   4.727  11.124 -0.7413 -1.1691  0.7344
   6523SM  H13B 8344   5.432   4.731  11.235  1.3773 -2.4612 -0.7432
   6523SM  H13C 8345   5.484   4.887  11.159  1.6547  0.1337  0.7958
   6523SM   C12 8346   5.433   4.784  10.902 -0.0286 -0.1911 -0.4344
   6523SM  H12A 8347   5.459   4.889  10.905  0.2700 -0.2315 -1.5393
   6523SM  H12B 8348   5.349   4.792  10.834 -0.9416 -0.4113  0.6297
   6523SM   C11 8349   5.546   4.689  10.852 -0.7834 -0.1964 -0.4288
   6523SM  H11A 8350   5.590   4.722  10.755  0.2478 -0.4643 -0.0602
   6523SM  H11B 8351   5.515   4.583  10.839 -0.2124 -0.3480 -0.5810
   6523SM     P 8352   5.748   4.566  10.975  0.0610  0.6229 -0.2563
   6523SM   O13 8353   5.869   4.607  11.040  0.0015 -0.5383 -0.0096
   6523SM   O14 8354   5.664   4.477  11.051 -0.0174 -0.0334 -0.4176
   6523SM   O11 8355   5.778   4.517  10.828 -0.2452  0.8546  0.1349
   6523SM   O12 8356   5.664   4.692  10.935  0.1159 -0.2368 -0.7207
   6523SM   C1S 8357   5.730   4.393  10.767  0.6764  0.1345  0.1276
   6523SM   H1S 8358   5.625   4.369  10.794  0.7415  0.3380  0.5651
   6523SM   H1T 8359   5.788   4.307  10.807  1.0922  0.7136  0.7902
   6523SM    NF 8360   5.676   4.271  10.547 -0.4289 -0.0617 -0.9400
   6523SM   HNF 8361   5.734   4.210  10.493 -0.3222  0.8182 -1.8445
   6523SM   C2S 8362   5.743   4.394  10.614 -0.1115 -0.2969  0.7899
   6523SM   H2S 8363   5.693   4.483  10.572 -0.3616 -0.6173  0.4006
   6523SM   C3S 8364   5.892   4.419  10.576 -0.1688 -0.3391 -0.2490
   6523SM   H3S 8365   5.951   4.330  10.609 -1.3488 -1.4357 -0.9665
   6523SM    O3 8366   5.940   4.544  10.625  0.7990  0.1876  0.3032
   6523SM   HO3 8367   5.869   4.560  10.688  0.6814 -0.4591  0.3380
   6523SM   C4S 8368   5.895   4.434  10.427 -0.3306 -0.3864  0.7809
   6523SM   H4S 8369   5.856   4.531  10.392  1.1778  0.9321  2.5369
   6523SM   C5S 8370   5.932   4.340  10.337  0.9167  0.0505  0.2650
   6523SM   H5S 8371   5.967   4.244  10.376 -0.0894  0.1215  1.4068
   6523SM   C6S 8372   5.905   4.346  10.193 -0.1098 -0.2680  0.0510
   6523SM   H6S 8373   5.867   4.246  10.162  0.8414 -0.7132  0.2887
   6523SM   H6T 8374   6.004   4.347  10.143 -0.7263 -1.3044 -1.2617
   6523SM   C7S 8375   5.814   4.454  10.132 -0.4525  0.4589 -0.1647
   6523SM   H7S 8376   5.848   4.557  10.156  0.8898  0.0234 -0.1644
   6523SM   H7T 8377   5.713   4.437  10.174 -0.5929 -0.5731 -0.8790
   6523SM   C8S 8378   5.798   4.441   9.975  0.5237 -0.2354  0.3723
   6523SM   H8S 8379   5.777   4.334   9.957 -1.1183 -0.6914  4.0815
   6523SM   H8T 8380   5.900   4.465   9.937  1.0254  0.5280  2.0993
   6523SM   C9S 8381   5.692   4.542   9.906 -0.4532  0.0075  0.4589
   6523SM   H9S 8382   5.735   4.644   9.916  0.0410 -0.0855 -0.5543
   6523SM   H9T 8383   5.611   4.530   9.981  1.6770 -4.9544  2.4530
   6523SM  C10S 8384   5.650   4.508   9.758  0.3298 -0.8500  0.2915
   6523SM  H10S 8385   5.562   4.571   9.732 -0.8937 -2.6949 -0.2800
   6523SM  H10T 8386   5.618   4.401   9.761 -1.0986 -0.4526 -0.0407
   6523SM  C11S 8387   5.755   4.548   9.650 -0.0966  0.4078 -0.0207
   6523SM  H11S 8388   5.852   4.505   9.683  0.2211  0.3542 -0.9827
   6523SM  H11T 8389   5.774   4.658   9.654  1.6347  0.1396  0.0443
   6523SM  C12S 8390   5.713   4.489   9.518 -0.4254  0.4671  0.1938
   6523SM  H12S 8391   5.603   4.506   9.518 -0.4456  0.5682  2.6650
   6523SM  H12T 8392   5.722   4.379   9.510 -2.2858  0.3015  0.0899
   6523SM  C13S 8393   5.781   4.546   9.394 -0.2007  0.3465 -0.7304
   6523SM  H13S 8394   5.889   4.518   9.401 -0.6507 -1.7283 -1.2004
   6523SM  H13T 8395   5.768   4.655   9.384 -0.3230  0.7976  2.8193
   6523SM  C14S 8396   5.722   4.491   9.268 -0.1478  0.0688 -0.3061
   6523SM  H14S 8397   5.611   4.494   9.272 -0.1493 -0.7255  3.2638
   6523SM  H14T 8398   5.748   4.383   9.261  1.0626  0.2621  0.7623
   6523SM  C15S 8399   5.766   4.563   9.138 -0.5133  0.0165 -0.5467
   6523SM  H15S 8400   5.726   4.667   9.135  0.4065  0.3588 -1.8547
   6523SM  H15T 8401   5.719   4.496   9.063  0.3335 -1.5807  0.3126
   6523SM  C16S 8402   5.919   4.561   9.116  0.5159 -0.1945 -0.1414
   6523SM  H16S 8403   5.960   4.458   9.125  1.8312  0.3877  1.0614
   6523SM  H16T 8404   5.965   4.617   9.201  1.9483  0.4721 -1.3072
   6523SM  C17S 8405   5.957   4.622   8.984 -0.9160  0.2421 -0.4474
   6523SM  H17S 8406   5.901   4.570   8.904 -1.5258 -0.2218  0.2742
   6523SM  H17T 8407   6.064   4.598   8.962 -1.0761 -0.2932 -0.6540
   6523SM  C18S 8408   5.929   4.775   8.965  0.3215 -0.0259 -0.3374
   6523SM  H18S 8409   5.820   4.792   8.967 -0.7222 -5.0522 -0.3393
   6523SM  H18T 8410   5.984   4.808   8.874  1.1877  0.3976  0.3196
   6523SM  H18U 8411   5.972   4.837   9.046  1.2889  0.2990 -1.0655
   6523SM   C1F 8412   5.541   4.252  10.560  0.1661  0.2837  0.1619
   6523SM    OF 8413   5.469   4.331  10.620  0.3919  0.0382 -0.5676
   6523SM   C2F 8414   5.492   4.123  10.511  0.2048  0.7313 -0.1161
   6523SM   H2F 8415   5.501   4.049  10.594  0.9480  0.5111 -0.3857
   6523SM   H2G 8416   5.567   4.087  10.437 -0.4723 -4.8391  1.4350
   6523SM   C3F 8417   5.356   4.133  10.449  0.5548  0.4493 -0.5349
   6523SM   H3F 8418   5.277   4.168  10.519  0.8163  1.5762 -0.7830
   6523SM   H3G 8419   5.331   4.030  10.415 -2.4469  1.5949 -2.2648
   6523SM   C4F 8420   5.323   4.217  10.326  0.4025 -0.3268  0.0437
   6523SM   H4F 8421   5.295   4.320  10.358  1.9886 -0.1202  0.8595
   6523SM   H4G 8422   5.239   4.171  10.270 -0.2304 -0.6015  1.1815
   6523SM   C5F 8423   5.432   4.212  10.214 -0.6296 -0.5800 -0.1623
   6523SM   H5F 8424   5.483   4.113  10.216  2.1617  0.7332 -0.5835
   6523SM   H5G 8425   5.507   4.284  10.255  1.3317 -2.1217 -0.8828
   6523SM   C6F 8426   5.399   4.254  10.072 -0.1375  0.0578 -0.0460
   6523SM   H6F 8427   5.346   4.162  10.037 -0.5813  0.6082 -0.8503
   6523SM   H6G 8428   5.494   4.257  10.014  0.3669  0.0487  0.7554
   6523SM   C7F 8429   5.315   4.381  10.073 -0.4597  0.9853 -0.2248
   6523SM   H7F 8430   5.359   4.448  10.150 -0.2139  0.3871  0.1650
   6523SM   H7G 8431   5.215   4.346  10.108  0.0319 -2.4372 -1.8677
   6523SM   C8F 8432   5.314   4.447   9.935  0.6409  0.5006 -0.3927
   6523SM   H8F 8433   5.413   4.490   9.906  1.7099 -0.1444  2.0752
   6523SM   H8G 8434   5.258   4.541   9.954 -2.6052 -1.8051  2.7225
   6523SM   C9F 8435   5.278   4.357   9.815 -0.2232 -0.0647  0.0212
   6523SM   H9F 8436   5.173   4.323   9.829 -0.1269 -0.6106 -0.5571
   6523SM   H9G 8437   5.341   4.266   9.815 -1.2510 -0.8021 -0.6660
   6523SM  C10F 8438   5.292   4.429   9.679  0.5189  0.7142 -0.0612
   6523SM  H10F 8439   5.395   4.470   9.670  1.4018 -1.0585  1.3008
   6523SM  H10G 8440   5.218   4.509   9.656  0.9627  0.9709 -0.6207
   6523SM  C11F 8441   5.289   4.339   9.549  0.2358 -0.0622 -0.4206
   6523SM  H11F 8442   5.366   4.260   9.561 -1.3520 -1.5521  0.3957
   6523SM  H11G 8443   5.319   4.416   9.475  1.3566 -0.2387 -0.1624
   6523SM  C12F 8444   5.150   4.276   9.513 -0.7984  0.4916  0.9692
   6523SM  H12F 8445   5.093   4.241   9.602 -2.6115  1.7700  0.3776
   6523SM  H12G 8446   5.162   4.186   9.450 -0.4465  0.8622  0.4968
   6523SM  C13F 8447   5.059   4.387   9.457  0.6813  0.2035  0.2316
   6523SM  H13F 8448   5.106   4.422   9.363  0.3663  0.2356  0.0860
   6523SM  H13G 8449   5.064   4.465   9.536 -0.1009 -0.8546  1.3689
   6523SM  C14F 8450   4.916   4.339   9.424  0.1479 -0.1565  0.5760
   6523SM  H14F 8451   4.864   4.307   9.517  0.4152  0.5860  0.9884
   6523SM  H14G 8452   4.931   4.247   9.362  2.5453  0.2725  0.4349
   6523SM  C15F 8453   4.830   4.431   9.335 -0.0838 -0.2023 -0.2938
   6523SM  H15F 8454   4.883   4.468   9.244 -1.2181  1.3114 -0.3860
   6523SM  H15G 8455   4.785   4.519   9.386 -0.1945 -0.5582  0.2315
   6523SM  C16F 8456   4.705   4.366   9.287 -0.0763 -0.1509 -0.1487
   6523SM  H16F 8457   4.643   4.339   9.375 -0.7860 -2.7771 -1.3354
   6523SM  H16G 8458   4.716   4.265   9.240 -1.5617 -0.8914  1.0189
   6523SM  C17F 8459   4.626   4.462   9.191  0.0746 -0.4011 -0.0776
   6523SM  H17F 8460   4.694   4.472   9.104  2.5566  0.0075  1.8045
   6523SM  H17G 8461   4.596   4.566   9.214 -0.9617  0.1845 -3.5247
   6523SM  C18F 8462   4.486   4.407   9.156 -0.1981 -0.2608  1.0913
   6523SM  H18F 8463   4.495   4.296   9.148  1.2049 -0.1723  1.3133
   6523SM  H18G 8464   4.460   4.448   9.056 -1.0257  1.7342  2.0645
   6523SM  C19F 8465   4.384   4.450   9.264 -0.3516 -0.1631 -0.2463
   6523SM  H19F 8466   4.375   4.560   9.271 -0.0478 -0.0595 -1.2459
   6523SM  H19G 8467   4.427   4.410   9.358  0.2782 -0.4773 -0.6594
   6523SM  C20F 8468   4.243   4.403   9.233 -0.3574 -0.3258 -0.4013
   6523SM  H20F 8469   4.242   4.293   9.221  0.0131 -0.3642 -0.1128
   6523SM  H20G 8470   4.209   4.449   9.138  0.3856  0.3163 -0.3698
   6523SM  C21F 8471   4.136   4.438   9.337  0.4717  0.3873  0.3050
   6523SM  H21F 8472   4.125   4.548   9.346 -1.3164  0.1976  0.6604
   6523SM  H21G 8473   4.164   4.389   9.432 -0.9187  0.0238  0.5475
   6523SM  C22F 8474   4.001   4.367   9.311 -0.8421  0.8157 -0.7220
   6523SM  H22F 8475   3.923   4.371   9.390 -0.5647  0.0943 -0.4064
   6523SM  H22G 8476   4.023   4.259   9.301 -0.2320  0.9466 -0.8202
   6523SM  C23F 8477   3.940   4.410   9.176  0.6478  0.4275  0.0764
   6523SM  H23F 8478   3.841   4.359   9.179  0.6819  0.3766  0.4381
   6523SM  H23G 8479   3.992   4.372   9.086  0.7221  0.9705 -0.1158
   6523SM  H23H 8480   3.923   4.520   9.167 -0.2454  0.1724 -1.9210
   6623SM     N 8481   4.198   2.061  11.197 -0.4769 -0.0495 -0.4970
   6623SM   C15 8482   4.252   2.033  11.059  0.4484 -0.2103 -0.2188
   6623SM  H15A 8483   4.193   2.072  10.977  0.2221 -0.3290 -0.1144
   6623SM  H15B 8484   4.263   1.926  11.056 -0.1004 -0.2654 -0.3266
   6623SM  H15C 8485   4.345   2.085  11.041  0.6141  0.4801  2.2052
   6623SM   C14 8486   4.160   2.202  11.194  0.1919  0.1295  0.0526
   6623SM  H14A 8487   4.109   2.239  11.281  2.1086  2.7021  0.2086
   6623SM  H14B 8488   4.095   2.214  11.109 -0.7372  0.0036  0.7417
   6623SM  H14C 8489   4.246   2.264  11.169 -0.2505  0.1483 -1.5512
   6623SM   C13 8490   4.081   1.972  11.210 -0.2201 -0.2404 -1.0164
   6623SM  H13A 8491   3.991   1.994  11.154  0.4250 -1.1425 -2.4512
   6623SM  H13B 8492   4.063   1.964  11.316  1.0897  2.5858 -0.4990
   6623SM  H13C 8493   4.103   1.870  11.181 -3.0472 -0.9525 -0.9904
   6623SM   C12 8494   4.301   2.031  11.301 -0.1168 -0.0179 -0.5037
   6623SM  H12A 8495   4.252   2.036  11.397  2.3353 -0.0677  0.8372
   6623SM  H12B 8496   4.366   2.117  11.300  1.6490 -1.2803 -2.1827
   6623SM   C11 8497   4.388   1.905  11.287  0.0145  0.3383  0.6322
   6623SM  H11A 8498   4.474   1.927  11.353  0.0931  0.8120  0.3712
   6623SM  H11B 8499   4.430   1.894  11.185  1.9512 -0.0264  1.4303
   6623SM     P 8500   4.369   1.658  11.359  0.0727  0.1826 -0.0433
   6623SM   O13 8501   4.489   1.672  11.442 -0.0854  0.4928  0.3210
   6623SM   O14 8502   4.257   1.578  11.406 -0.5560  0.4187 -0.8366
   6623SM   O11 8503   4.404   1.605  11.207 -0.0535  0.5588 -0.4879
   6623SM   O12 8504   4.314   1.798  11.331  0.4002 -0.6637  0.1695
   6623SM   C1S 8505   4.300   1.623  11.110  0.7907 -0.4022 -0.1160
   6623SM   H1S 8506   4.284   1.732  11.100  0.0430 -0.1233  3.1380
   6623SM   H1T 8507   4.207   1.583  11.154  1.7900 -1.1018  1.4626
   6623SM    NF 8508   4.249   1.607  10.875 -0.1369  0.3776 -0.1836
   6623SM   HNF 8509   4.174   1.553  10.838 -0.2500  2.3209 -3.1183
   6623SM   C2S 8510   4.335   1.553  10.976 -0.1348  0.0134  0.2200
   6623SM   H2S 8511   4.441   1.567  10.946 -0.4002  0.4192 -0.5361
   6623SM   C3S 8512   4.315   1.397  10.987 -0.3216 -0.0653 -0.1269
   6623SM   H3S 8513   4.206   1.375  10.993  0.0716 -2.5347 -0.9243
   6623SM    O3 8514   4.368   1.345  11.110 -0.0740  0.0595 -0.0132
   6623SM   HO3 8515   4.379   1.427  11.158 -1.7258  0.3717 -0.1143
   6623SM   C4S 8516   4.366   1.323  10.872 -0.3557 -0.9255  0.2629
   6623SM   H4S 8517   4.476   1.328  10.865 -0.4967 -0.0330 -2.3148
   6623SM   C5S 8518   4.295   1.235  10.797  1.0824  0.1763 -0.3527
   6623SM   H5S 8519   4.189   1.215  10.815  1.0999 -0.4279 -0.8903
   6623SM   C6S 8520   4.351   1.150  10.686  0.2951 -0.4148 -0.1646
   6623SM   H6S 8521   4.460   1.141  10.707 -0.0346  1.7883  3.2785
   6623SM   H6T 8522   4.334   1.187  10.582  0.6817  0.4723  0.0729
   6623SM   C7S 8523   4.288   1.014  10.688  0.3399  0.0164  0.1814
   6623SM   H7S 8524   4.179   1.027  10.669  0.4251  0.3269 -0.1281
   6623SM   H7T 8525   4.297   0.958  10.783 -1.4265  0.9038  0.9309
   6623SM   C8S 8526   4.349   0.913  10.585 -0.0135 -0.4047  0.6094
   6623SM   H8S 8527   4.298   0.815  10.599 -1.2608  0.2590  0.8359
   6623SM   H8T 8528   4.451   0.887  10.619 -0.5580 -3.6677  0.0736
   6623SM   C9S 8529   4.353   0.962  10.436  0.2900  0.1408 -0.8898
   6623SM   H9S 8530   4.406   0.879  10.385  0.8224  1.7382 -3.1117
   6623SM   H9T 8531   4.402   1.061  10.424 -1.2659  1.0033 -0.4031
   6623SM  C10S 8532   4.214   0.987  10.376  0.2144  0.4831 -0.8148
   6623SM  H10S 8533   4.155   1.063  10.431 -0.5283 -0.1521 -0.7101
   6623SM  H10T 8534   4.146   0.902  10.397 -0.7900  1.9597  2.4745
   6623SM  C11S 8535   4.223   1.013  10.226 -0.2173  0.1494  0.7713
   6623SM  H11S 8536   4.258   0.926  10.166  0.2702  0.6997  0.2406
   6623SM  H11T 8537   4.303   1.088  10.210  0.4940  0.3426  4.4219
   6623SM  C12S 8538   4.090   1.065  10.180 -0.6431  0.1232  0.6197
   6623SM  H12S 8539   4.076   1.166  10.225 -0.3566  0.8456 -0.8312
   6623SM  H12T 8540   4.005   0.998  10.203 -0.4248 -0.1735  0.5658
   6623SM  C13S 8541   4.091   1.104  10.029 -0.1752 -0.8232  0.0148
   6623SM  H13S 8542   4.144   1.200  10.013 -2.4553  0.6962  1.0626
   6623SM  H13T 8543   3.990   1.143  10.006  0.4915  0.6855 -0.4807
   6623SM  C14S 8544   4.133   0.996   9.929  0.5673  0.6865  0.2629
   6623SM  H14S 8545   4.242   0.975   9.925  0.6698  1.4329 -2.1940
   6623SM  H14T 8546   4.118   1.026   9.823 -0.0676  0.9954  0.4384
   6623SM  C15S 8547   4.064   0.854   9.936  0.3956 -0.6294 -0.6715
   6623SM  H15S 8548   3.971   0.880   9.990  1.0571 -0.8579  0.6259
   6623SM  H15T 8549   4.127   0.789  10.000  0.6243  2.7507  2.9396
   6623SM  C16S 8550   4.034   0.799   9.799 -0.5792  0.0196 -0.3448
   6623SM  H16S 8551   4.118   0.791   9.727  0.4651  1.1189  0.6865
   6623SM  H16T 8552   3.959   0.867   9.752 -2.3379 -1.4651  0.1822
   6623SM  C17S 8553   3.973   0.659   9.796 -0.0193 -0.4634 -0.3400
   6623SM  H17S 8554   3.872   0.686   9.833  0.0949  1.0429 -1.0690
   6623SM  H17T 8555   4.026   0.597   9.872  0.0505  0.2393  0.1953
   6623SM  C18S 8556   3.965   0.593   9.661  0.2967 -0.2354  0.4001
   6623SM  H18S 8557   3.915   0.660   9.588  0.9861 -0.2312 -0.0766
   6623SM  H18T 8558   3.900   0.503   9.656  1.4378 -1.0300 -2.4127
   6623SM  H18U 8559   4.064   0.570   9.615  2.3224  4.3558  1.9288
   6623SM   C1F 8560   4.255   1.732  10.841 -0.1916 -0.6296  0.5558
   6623SM    OF 8561   4.344   1.809  10.879 -0.8156  0.4302 -0.0018
   6623SM   C2F 8562   4.152   1.792  10.758  0.2077 -0.1792  0.2906
   6623SM   H2F 8563   4.054   1.790  10.811  0.1655  0.9444  0.2730
   6623SM   H2G 8564   4.124   1.725  10.674  0.6583 -1.1336  0.8813
   6623SM   C3F 8565   4.183   1.939  10.702 -0.3084  0.0498  0.0404
   6623SM   H3F 8566   4.198   2.018  10.779 -2.1561  2.4144 -1.8999
   6623SM   H3G 8567   4.086   1.972  10.661 -0.7001 -0.7810  0.2833
   6623SM   C4F 8568   4.305   1.950  10.606 -0.0840 -0.6122 -0.1702
   6623SM   H4F 8569   4.397   1.933  10.667  0.0819  2.2646  0.5293
   6623SM   H4G 8570   4.326   2.050  10.561  1.5966  0.1999  2.2458
   6623SM   C5F 8571   4.314   1.831  10.502  0.1424  0.5111  0.7371
   6623SM   H5F 8572   4.221   1.834  10.442 -0.2160 -1.6008  1.1255
   6623SM   H5G 8573   4.318   1.728  10.544 -0.8180 -0.2976 -1.0464
   6623SM   C6F 8574   4.434   1.858  10.411 -0.0175 -0.9780  0.2979
   6623SM   H6F 8575   4.526   1.832  10.468  1.1283 -0.0914 -1.0627
   6623SM   H6G 8576   4.429   1.964  10.376 -2.8197 -1.2672 -0.4214
   6623SM   C7F 8577   4.444   1.757  10.293  0.3279  0.2225 -0.2045
   6623SM   H7F 8578   4.351   1.776  10.237 -1.7391 -1.9381  2.2130
   6623SM   H7G 8579   4.441   1.653  10.332 -0.2009 -0.8038 -2.7701
   6623SM   C8F 8580   4.565   1.775  10.201 -0.1222  0.0467 -0.0430
   6623SM   H8F 8581   4.659   1.752  10.256  0.2758 -0.7630 -1.0404
   6623SM   H8G 8582   4.576   1.884  10.181  1.2598 -0.2608 -1.1128
   6623SM   C9F 8583   4.560   1.700  10.062 -0.2469 -0.1919 -0.3938
   6623SM   H9F 8584   4.524   1.599  10.089  0.8682 -0.2136  1.0977
   6623SM   H9G 8585   4.660   1.693  10.014  1.0948  1.1947  2.0054
   6623SM  C10F 8586   4.460   1.761   9.958 -0.3901  0.0118 -0.6763
   6623SM  H10F 8587   4.474   1.871   9.951 -0.3451  0.3583  2.8896
   6623SM  H10G 8588   4.364   1.762  10.013  0.2440  2.6414  0.5473
   6623SM  C11F 8589   4.468   1.691   9.818 -0.4117 -0.1206  0.1877
   6623SM  H11F 8590   4.557   1.729   9.764  1.1608  0.0070  2.7069
   6623SM  H11G 8591   4.385   1.724   9.752  1.6841 -0.3505 -2.7189
   6623SM  C12F 8592   4.474   1.534   9.827 -0.0893 -0.1390 -0.0741
   6623SM  H12F 8593   4.412   1.490   9.907  2.6112  0.2307  2.3846
   6623SM  H12G 8594   4.579   1.522   9.861 -0.3365  1.1593  1.2610
   6623SM  C13F 8595   4.439   1.467   9.700 -0.2296  0.6191  0.6602
   6623SM  H13F 8596   4.333   1.478   9.670 -0.3519 -1.0686  0.3322
   6623SM  H13G 8597   4.457   1.357   9.708 -1.6176  0.1824 -1.3526
   6623SM  C14F 8598   4.518   1.511   9.573 -0.0743  0.1094  0.7796
   6623SM  H14F 8599   4.626   1.499   9.595 -0.1428 -0.5637  0.7867
   6623SM  H14G 8600   4.480   1.614   9.558 -1.3800 -0.8367 -3.7818
   6623SM  C15F 8601   4.499   1.414   9.455  0.6260  0.0667 -0.2722
   6623SM  H15F 8602   4.535   1.312   9.479  2.8411  1.1151  1.1772
   6623SM  H15G 8603   4.557   1.454   9.369  1.4415 -1.5947 -0.5279
   6623SM  C16F 8604   4.351   1.412   9.405 -0.3623  0.2205  0.6110
   6623SM  H16F 8605   4.331   1.520   9.384 -1.1562 -0.1334 -0.5418
   6623SM  H16G 8606   4.283   1.375   9.484 -0.6425  0.2321  0.3738
   6623SM  C17F 8607   4.342   1.324   9.285  0.7581 -0.2493  0.9248
   6623SM  H17F 8608   4.390   1.224   9.294  0.7003 -0.3232  0.4447
   6623SM  H17G 8609   4.402   1.370   9.204  2.1653 -2.8940  0.3458
   6623SM  C18F 8610   4.197   1.314   9.240  0.3815  0.6383 -0.0106
   6623SM  H18F 8611   4.153   1.416   9.238 -0.5838  0.2362 -1.8455
   6623SM  H18G 8612   4.138   1.256   9.315 -1.2573  0.5233 -1.3205
   6623SM  C19F 8613   4.161   1.255   9.107  0.1393  0.2693 -0.5815
   6623SM  H19F 8614   4.206   1.321   9.030 -1.9071  2.1598 -0.2434
   6623SM  H19G 8615   4.053   1.272   9.090 -0.2347 -1.5377 -0.2147
   6623SM  C20F 8616   4.212   1.112   9.101 -0.3923 -0.2346 -0.2098
   6623SM  H20F 8617   4.177   1.062   9.194 -0.4808  0.4102  0.1079
   6623SM  H20G 8618   4.323   1.112   9.100 -0.3525 -0.6242  1.1583
   6623SM  C21F 8619   4.165   1.029   8.985 -0.5306  0.0720  0.1984
   6623SM  H21F 8620   4.193   0.922   8.995 -0.1803  0.2546  1.2653
   6623SM  H21G 8621   4.229   1.066   8.903  0.5701  2.9513  2.1884
   6623SM  C22F 8622   4.020   1.034   8.947 -0.0105 -0.3727  0.4806
   6623SM  H22F 8623   4.016   0.978   8.851  0.3406  2.6580 -1.4358
   6623SM  H22G 8624   3.997   1.142   8.936 -0.1523 -0.4686 -0.2526
   6623SM  C23F 8625   3.913   0.982   9.051 -0.1414 -0.0386 -0.5761
   6623SM  H23F 8626   3.938   0.874   9.067 -1.3713 -0.1186  0.9506
   6623SM  H23G 8627   3.822   0.983   8.987 -0.1226  0.6017 -0.5939
   6623SM  H23H 8628   3.912   1.048   9.140  0.9068  2.5277 -2.3579
   6723SM     N 8629   2.694   4.938  11.367  0.2262 -0.4820  0.0710
   6723SM   C15 8630   2.602   4.974  11.253  0.7980 -0.7871  0.6576
   6723SM  H15A 8631   2.648   5.050  11.193  0.0007 -1.8767 -1.4359
   6723SM  H15B 8632   2.503   5.002  11.287  0.9751 -2.4433  2.7840
   6723SM  H15C 8633   2.598   4.885  11.191 -2.4426  1.2929 -2.4805
   6723SM   C14 8634   2.706   5.055  11.456 -0.2502 -0.1090 -0.4917
   6723SM  H14A 8635   2.611   5.091  11.492  0.2443  0.6970  0.0318
   6723SM  H14B 8636   2.757   5.141  11.415 -1.8780  1.2793  0.3111
   6723SM  H14C 8637   2.744   5.021  11.551 -0.8431 -0.9998 -0.5623
   6723SM   C13 8638   2.642   4.821  11.447 -0.5267  0.2471 -0.0044
   6723SM  H13A 8639   2.715   4.792  11.521 -0.1237 -1.0139 -0.8432
   6723SM  H13B 8640   2.633   4.730  11.389 -1.1001 -0.4212  1.1078
   6723SM  H13C 8641   2.551   4.849  11.497  0.0696  2.6962 -0.1803
   6723SM   C12 8642   2.835   4.903  11.317  0.2860 -0.1858 -0.2746
   6723SM  H12A 8643   2.838   4.803  11.275 -0.5339 -0.1083 -0.5326
   6723SM  H12B 8644   2.902   4.912  11.400  1.0549  0.3302 -0.9340
   6723SM   C11 8645   2.893   4.985  11.194 -0.0759  0.6743  0.1776
   6723SM  H11A 8646   2.859   5.090  11.198  0.4995  0.8397  2.2397
   6723SM  H11B 8647   2.853   4.936  11.103  0.2581  2.8677 -1.2074
   6723SM     P 8648   3.112   4.880  11.116 -0.0951 -0.1271 -0.0175
   6723SM   O13 8649   3.260   4.876  11.144  0.0862 -0.1198  0.5046
   6723SM   O14 8650   3.048   4.747  11.125 -0.1090  0.6217 -0.1174
   6723SM   O11 8651   3.082   4.943  10.977 -0.2478  0.1989  0.1731
   6723SM   O12 8652   3.034   4.983  11.210  0.1005 -0.6035  0.0703
   6723SM   C1S 8653   3.108   5.079  10.945  0.2998  0.4119  0.1512
   6723SM   H1S 8654   3.198   5.119  10.997 -0.1389  0.1210  1.1595
   6723SM   H1T 8655   3.017   5.143  10.957  0.9819  1.5045 -0.3563
   6723SM    NF 8656   3.188   5.244  10.766  0.1186 -0.0349 -0.4767
   6723SM   HNF 8657   3.132   5.322  10.737  0.2254 -0.0254 -0.6547
   6723SM   C2S 8658   3.140   5.109  10.791 -0.1316 -0.3700  0.1458
   6723SM   H2S 8659   3.219   5.035  10.765 -0.9019 -1.3930  0.6210
   6723SM   C3S 8660   3.018   5.064  10.706  0.2294 -0.1024  0.2989
   6723SM   H3S 8661   2.936   5.134  10.729 -1.2818 -1.7089  0.0461
   6723SM    O3 8662   2.958   4.932  10.731  0.1730 -0.4398  0.2314
   6723SM   HO3 8663   2.999   4.915  10.816  0.6278  0.7789  0.2701
   6723SM   C4S 8664   3.050   5.086  10.558 -0.1561  0.1661 -0.0755
   6723SM   H4S 8665   3.032   5.187  10.518 -1.6957  0.1700  0.5635
   6723SM   C5S 8666   3.105   5.001  10.472  0.2872  0.3824 -0.0150
   6723SM   H5S 8667   3.134   4.904  10.514  0.9976  0.9494  0.8368
   6723SM   C6S 8668   3.111   5.026  10.323 -0.3353  0.4252 -0.0376
   6723SM   H6S 8669   3.216   5.020  10.289 -0.0572 -0.7125  1.0075
   6723SM   H6T 8670   3.068   5.125  10.296  0.1483  0.7872  0.4971
   6723SM   C7S 8671   3.027   4.929  10.248 -0.1310  0.5357  0.6381
   6723SM   H7S 8672   2.920   4.947  10.272 -1.0853 -2.1320 -1.1497
   6723SM   H7T 8673   3.054   4.821  10.248  2.7085  1.1580 -0.0813
   6723SM   C8S 8674   3.021   4.958  10.093  0.3228 -0.1597  0.0446
   6723SM   H8S 8675   3.028   5.068  10.078  2.1994 -0.2096  0.2744
   6723SM   H8T 8676   2.925   4.925  10.048 -0.0338 -1.5705  1.7391
   6723SM   C9S 8677   3.131   4.879  10.022  0.2430  0.2643  0.4131
   6723SM   H9S 8678   3.089   4.778  10.040 -0.5283 -0.4084 -4.0128
   6723SM   H9T 8679   3.231   4.900  10.066 -0.2719  1.1897  1.1972
   6723SM  C10S 8680   3.134   4.915   9.873 -0.6027  0.1074 -0.0931
   6723SM  H10S 8681   3.205   5.000   9.858 -2.8559  1.9619 -0.9337
   6723SM  H10T 8682   3.033   4.940   9.833 -1.0053 -2.2161 -0.6575
   6723SM  C11S 8683   3.185   4.804   9.787  0.6303 -0.3161  0.1358
   6723SM  H11S 8684   3.122   4.715   9.811  1.7216 -1.1784 -0.0971
   6723SM  H11T 8685   3.282   4.771   9.830 -0.0220 -0.7276  1.3321
   6723SM  C12S 8686   3.185   4.828   9.639 -0.3710 -0.0544 -0.4945
   6723SM  H12S 8687   3.081   4.856   9.611 -1.8452 -3.9559  0.4014
   6723SM  H12T 8688   3.201   4.739   9.575 -0.1490  1.0738 -2.0738
   6723SM  C13S 8689   3.278   4.941   9.588  0.5141  0.0585 -0.5695
   6723SM  H13S 8690   3.380   4.901   9.603 -0.1206 -1.8624 -1.0264
   6723SM  H13T 8691   3.267   5.031   9.653  0.1274 -2.7061  3.5620
   6723SM  C14S 8692   3.253   4.974   9.439  0.9170 -0.9912 -0.2381
   6723SM  H14S 8693   3.310   5.068   9.425 -2.9698  1.5900 -0.1923
   6723SM  H14T 8694   3.145   4.995   9.432  0.8913 -0.9204  0.3265
   6723SM  C15S 8695   3.298   4.873   9.332 -0.1476  0.0089  0.4862
   6723SM  H15S 8696   3.288   4.918   9.231 -1.1382 -0.9539  0.1290
   6723SM  H15T 8697   3.225   4.789   9.335  0.5376 -0.6302 -0.6154
   6723SM  C16S 8698   3.435   4.802   9.343 -0.2583 -0.3462 -0.9638
   6723SM  H16S 8699   3.432   4.734   9.431 -0.3909 -0.4166 -1.0225
   6723SM  H16T 8700   3.508   4.884   9.363 -0.8402 -0.1704  0.6734
   6723SM  C17S 8701   3.487   4.729   9.220 -0.0983 -0.3821 -0.1033
   6723SM  H17S 8702   3.488   4.813   9.148  0.2576 -0.5360 -0.2761
   6723SM  H17T 8703   3.414   4.651   9.187 -2.5494  0.7665  2.1421
   6723SM  C18S 8704   3.626   4.664   9.240  0.1958 -0.3220 -0.2103
   6723SM  H18S 8705   3.694   4.728   9.300  0.4758  1.4852 -2.3144
   6723SM  H18T 8706   3.678   4.640   9.144 -1.8751  2.1151 -2.0854
   6723SM  H18U 8707   3.620   4.581   9.313  1.0173  0.2188  0.4917
   6723SM   C1F 8708   3.309   5.273  10.809  0.3162  0.7901 -0.2724
   6723SM    OF 8709   3.381   5.185  10.852  0.0866  0.2248  0.3282
   6723SM   C2F 8710   3.348   5.414  10.803 -0.4137 -1.3847 -0.0368
   6723SM   H2F 8711   3.383   5.450  10.902 -2.4626 -1.3396  0.7134
   6723SM   H2G 8712   3.262   5.476  10.769 -0.2181 -0.1557  1.6103
   6723SM   C3F 8713   3.465   5.434  10.698  0.4626  0.1834  0.2252
   6723SM   H3F 8714   3.549   5.367  10.724  3.1083  2.2558 -2.3737
   6723SM   H3G 8715   3.505   5.538  10.693  0.3841  0.4649  3.2741
   6723SM   C4F 8716   3.425   5.400  10.551  0.3764  0.2959  0.5810
   6723SM   H4F 8717   3.390   5.294  10.555  1.1911 -0.0328 -0.6027
   6723SM   H4G 8718   3.516   5.383  10.490 -0.6188 -2.4076 -0.3136
   6723SM   C5F 8719   3.323   5.497  10.486 -0.4029  0.1827  0.3230
   6723SM   H5F 8720   3.372   5.595  10.470  0.0491 -0.1344 -0.2566
   6723SM   H5G 8721   3.238   5.508  10.556  0.6585 -0.2646  1.7423
   6723SM   C6F 8722   3.276   5.467  10.339 -0.3700 -0.1010 -0.4743
   6723SM   H6F 8723   3.223   5.553  10.293  0.5031  1.1063  0.6870
   6723SM   H6G 8724   3.198   5.387  10.337 -1.6793  1.1376 -1.0123
   6723SM   C7F 8725   3.397   5.427  10.254  0.3060 -0.3289 -0.0158
   6723SM   H7F 8726   3.437   5.328  10.285 -2.0997 -1.3678  0.0442
   6723SM   H7G 8727   3.478   5.502  10.268 -2.5014  2.7389  1.1505
   6723SM   C8F 8728   3.372   5.417  10.096  0.3331 -1.0355  0.2722
   6723SM   H8F 8729   3.465   5.404  10.038  0.2658  0.6501 -0.2790
   6723SM   H8G 8730   3.335   5.519  10.069 -0.2657 -1.6420 -1.3256
   6723SM   C9F 8731   3.286   5.303  10.044  0.2025 -0.7600  0.3084
   6723SM   H9F 8732   3.180   5.311  10.076 -0.7839 -0.6633 -2.6077
   6723SM   H9G 8733   3.331   5.207  10.077  0.0641  0.1400  3.3977
   6723SM  C10F 8734   3.270   5.317   9.888  0.1490 -0.5252 -0.4954
   6723SM  H10F 8735   3.220   5.222   9.856 -1.3713  0.1971 -0.3542
   6723SM  H10G 8736   3.369   5.313   9.839  0.8299  1.7113  0.5809
   6723SM  C11F 8737   3.191   5.434   9.835 -0.3943  0.5572 -0.5689
   6723SM  H11F 8738   3.202   5.527   9.894 -0.1776  0.0755  0.1732
   6723SM  H11G 8739   3.082   5.411   9.829 -0.7390  0.9016  2.6166
   6723SM  C12F 8740   3.222   5.467   9.686  0.5189 -0.4272 -0.4867
   6723SM  H12F 8741   3.190   5.374   9.634 -2.0315 -0.5056  1.0255
   6723SM  H12G 8742   3.329   5.480   9.662  0.8060 -3.6049 -1.4762
   6723SM  C13F 8743   3.132   5.577   9.637  0.1267  0.2326  0.0462
   6723SM  H13F 8744   3.068   5.624   9.715 -0.8209 -0.2355 -0.4299
   6723SM  H13G 8745   3.070   5.534   9.555  2.3779  2.0965 -2.8571
   6723SM  C14F 8746   3.209   5.682   9.572 -0.1114 -0.2976  0.1533
   6723SM  H14F 8747   3.144   5.739   9.502 -2.2366 -1.7986  0.7838
   6723SM  H14G 8748   3.288   5.631   9.513 -0.3268 -2.2942  1.5084
   6723SM  C15F 8749   3.266   5.778   9.674  0.2864 -0.6052 -0.3939
   6723SM  H15F 8750   3.357   5.723   9.706  0.9331 -0.4077 -1.7867
   6723SM  H15G 8751   3.206   5.787   9.766 -0.0556 -1.0980 -0.5678
   6723SM  C16F 8752   3.305   5.925   9.614 -0.1422  0.2605 -1.1529
   6723SM  H16F 8753   3.354   5.982   9.695 -2.1093  1.7089 -0.9101
   6723SM  H16G 8754   3.216   5.984   9.586 -1.3447  0.3933  2.4627
   6723SM  C17F 8755   3.409   5.918   9.501  0.1455 -0.2287  0.2028
   6723SM  H17F 8756   3.421   6.017   9.452 -1.8295  0.2408  0.5765
   6723SM  H17G 8757   3.382   5.839   9.429  2.3770  0.3886 -1.4126
   6723SM  C18F 8758   3.543   5.882   9.562 -0.4899  1.3843 -0.1048
   6723SM  H18F 8759   3.534   5.787   9.618 -1.7356 -0.1562 -2.7015
   6723SM  H18G 8760   3.571   5.962   9.634  0.6528  1.2125 -0.3383
   6723SM  C19F 8761   3.660   5.868   9.470  0.0985  0.1816  0.0437
   6723SM  H19F 8762   3.761   5.894   9.508  0.3224  2.6988 -1.9514
   6723SM  H19G 8763   3.644   5.928   9.378  1.7427 -1.1098 -1.1602
   6723SM  C20F 8764   3.670   5.731   9.407  0.2697  0.1130  0.2211
   6723SM  H20F 8765   3.572   5.724   9.356  0.9758  2.4648 -1.6249
   6723SM  H20G 8766   3.678   5.657   9.490 -1.6693 -0.3086  0.0728
   6723SM  C21F 8767   3.794   5.708   9.317 -0.2285  0.2277  0.0628
   6723SM  H21F 8768   3.886   5.721   9.378 -0.0692  0.4509 -0.2211
   6723SM  H21G 8769   3.800   5.797   9.251  0.5849  1.8211  2.1688
   6723SM  C22F 8770   3.797   5.573   9.245  0.3186  0.5409 -0.1507
   6723SM  H22F 8771   3.712   5.577   9.173  0.0577 -0.4481  0.0922
   6723SM  H22G 8772   3.776   5.493   9.318 -0.6980 -1.3124 -2.3636
   6723SM  C23F 8773   3.933   5.550   9.177  0.2547 -0.0206  0.0937
   6723SM  H23F 8774   3.919   5.453   9.125 -1.1165  1.0224 -1.5799
   6723SM  H23G 8775   4.006   5.557   9.261 -2.1015  2.1948  2.1179
   6723SM  H23H 8776   3.938   5.636   9.107 -1.2492  0.7337  0.8608
   6823SM     N 8777   3.925   0.602  11.747  0.0095 -0.1927  0.6095
   6823SM   C15 8778   4.027   0.699  11.809  0.2217 -0.0045 -0.0608
   6823SM  H15A 8779   4.021   0.705  11.917  0.0783  0.3367 -0.0851
   6823SM  H15B 8780   4.028   0.802  11.776 -1.1423 -0.1480 -0.5913
   6823SM  H15C 8781   4.126   0.663  11.783  1.1806  1.7168  0.9825
   6823SM   C14 8782   3.942   0.464  11.782  0.2846  0.8073 -0.5907
   6823SM  H14A 8783   4.045   0.441  11.757  0.1058  0.3097 -0.8716
   6823SM  H14B 8784   3.871   0.397  11.737 -0.6708  1.2164  0.2582
   6823SM  H14C 8785   3.924   0.450  11.888 -2.2216  0.6495 -0.9881
   6823SM   C13 8786   3.787   0.652  11.782  0.4618  0.2744  0.0098
   6823SM  H13A 8787   3.767   0.754  11.751 -1.6731  0.5344  1.9523
   6823SM  H13B 8788   3.769   0.651  11.889 -1.5031  1.4324 -0.2608
   6823SM  H13C 8789   3.712   0.589  11.736  0.3450  0.6538 -0.3282
   6823SM   C12 8790   3.946   0.600  11.599  0.4411 -0.2011 -0.0396
   6823SM  H12A 8791   4.046   0.572  11.567 -0.0386 -0.1171 -1.7217
   6823SM  H12B 8792   3.937   0.702  11.564  0.1993 -0.8602 -2.0489
   6823SM   C11 8793   3.832   0.531  11.509  0.0177 -0.4067  0.4570
   6823SM  H11A 8794   3.874   0.555  11.410 -1.2479  1.5528  0.3285
   6823SM  H11B 8795   3.735   0.584  11.527  0.1059 -0.5312  1.3396
   6823SM     P 8796   3.693   0.305  11.529 -0.1280  0.2777 -0.1175
   6823SM   O13 8797   3.734   0.164  11.542  0.0279 -0.0099  0.0009
   6823SM   O14 8798   3.627   0.360  11.648  0.2725  0.3041  0.5197
   6823SM   O11 8799   3.606   0.323  11.403  0.2439 -0.2635 -0.2024
   6823SM   O12 8800   3.825   0.386  11.518  0.3835 -0.0500 -0.0335
   6823SM   C1S 8801   3.672   0.331  11.274  0.5327 -0.6499  0.4756
   6823SM   H1S 8802   3.683   0.230  11.228  0.7157 -0.8421  0.9298
   6823SM   H1T 8803   3.767   0.388  11.278  0.3216 -0.3361  1.1118
   6823SM    NF 8804   3.648   0.408  11.034  0.2408 -0.5807  0.3903
   6823SM   HNF 8805   3.724   0.471  11.027 -0.6148  0.7227  1.9608
   6823SM   C2S 8806   3.599   0.426  11.172 -0.1133 -0.3244 -0.0678
   6823SM   H2S 8807   3.492   0.398  11.161 -0.4747  0.5962  0.8933
   6823SM   C3S 8808   3.592   0.569  11.223 -0.4175 -0.2435  0.7505
   6823SM   H3S 8809   3.697   0.602  11.242 -0.1172 -1.3408  1.1345
   6823SM    O3 8810   3.520   0.596  11.342 -0.3052  0.2377  0.0003
   6823SM   HO3 8811   3.512   0.506  11.374 -2.0541  0.6907  0.9080
   6823SM   C4S 8812   3.529   0.658  11.125  0.5997 -0.3158 -0.3766
   6823SM   H4S 8813   3.420   0.666  11.132  0.4920 -1.3777 -0.6887
   6823SM   C5S 8814   3.585   0.751  11.046 -0.3996 -1.3499  0.1514
   6823SM   H5S 8815   3.694   0.770  11.050 -0.2048 -2.4721  0.5744
   6823SM   C6S 8816   3.510   0.873  10.983 -0.4026 -0.3249  0.2684
   6823SM   H6S 8817   3.536   0.969  11.034 -0.4323  0.7682 -1.6732
   6823SM   H6T 8818   3.401   0.858  11.001 -0.2703 -1.4162  0.1841
   6823SM   C7S 8819   3.543   0.907  10.829  0.0276  0.3339  0.6175
   6823SM   H7S 8820   3.651   0.933  10.831  0.0655  0.1616  1.1417
   6823SM   H7T 8821   3.497   1.001  10.791 -2.0439 -1.0951 -0.6158
   6823SM   C8S 8822   3.518   0.796  10.725 -0.0035 -0.1345  0.0097
   6823SM   H8S 8823   3.590   0.712  10.735  0.9234  0.4664 -1.3158
   6823SM   H8T 8824   3.542   0.832  10.623  2.9731  2.1015  1.3286
   6823SM   C9S 8825   3.379   0.746  10.739  0.0026  0.8210 -0.2298
   6823SM   H9S 8826   3.305   0.827  10.721 -0.8033  0.5160  1.5509
   6823SM   H9T 8827   3.369   0.695  10.837  0.6746 -1.6837 -1.3657
   6823SM  C10S 8828   3.350   0.619  10.640  0.7634 -0.1521  0.4664
   6823SM  H10S 8829   3.258   0.565  10.669 -0.5827  2.4268  1.3150
   6823SM  H10T 8830   3.440   0.554  10.654  1.5832  0.8036 -0.2132
   6823SM  C11S 8831   3.344   0.648  10.487  0.3266 -0.2499  0.1729
   6823SM  H11S 8832   3.310   0.560  10.428 -0.6980 -0.3844  0.9341
   6823SM  H11T 8833   3.443   0.679  10.447  0.1298  1.0751  0.6625
   6823SM  C12S 8834   3.225   0.738  10.452  0.1422  0.0647  0.3265
   6823SM  H12S 8835   3.229   0.839  10.498  0.9670  0.9908 -1.6395
   6823SM  H12T 8836   3.129   0.690  10.478  0.0170 -0.2918 -0.7234
   6823SM  C13S 8837   3.202   0.763  10.297  0.1074  0.1165 -0.2622
   6823SM  H13S 8838   3.203   0.673  10.232 -2.6840 -1.4185  1.5811
   6823SM  H13T 8839   3.275   0.840  10.265  1.2602  0.1960  2.2701
   6823SM  C14S 8840   3.060   0.820  10.275 -0.0702  0.8185  0.2369
   6823SM  H14S 8841   2.983   0.760  10.326 -3.0044  2.2099 -2.2228
   6823SM  H14T 8842   3.047   0.816  10.165  0.3166 -0.9020  0.2338
   6823SM  C15S 8843   3.056   0.967  10.310 -0.3031 -0.4995  0.7800
   6823SM  H15S 8844   3.128   1.022  10.246 -1.3821 -2.2897 -2.2048
   6823SM  H15T 8845   3.091   0.975  10.415  1.4874  1.6815  0.0861
   6823SM  C16S 8846   2.915   1.026  10.290 -0.0720 -0.2954  0.5127
   6823SM  H16S 8847   2.847   1.001  10.375 -0.8014  0.8627  0.2981
   6823SM  H16T 8848   2.877   0.983  10.195  2.2064  1.8751 -1.5305
   6823SM  C17S 8849   2.912   1.179  10.274 -0.8984 -0.3642 -0.0996
   6823SM  H17S 8850   2.989   1.204  10.198 -1.2466  2.0731  0.2772
   6823SM  H17T 8851   2.947   1.224  10.369 -1.4195 -0.9009  0.3627
   6823SM  C18S 8852   2.778   1.232  10.233 -0.5034  0.6125 -0.3844
   6823SM  H18S 8853   2.784   1.339  10.204  3.4012  0.0685 -2.2165
   6823SM  H18T 8854   2.706   1.214  10.316  0.3643  0.3717  0.3271
   6823SM  H18U 8855   2.753   1.186  10.135  2.6963 -0.4407 -0.8068
   6823SM   C1F 8856   3.639   0.295  10.961 -0.4184  0.2718 -0.5350
   6823SM    OF 8857   3.573   0.193  10.982 -0.3886  0.1313  0.5459
   6823SM   C2F 8858   3.735   0.298  10.841  0.2673 -0.5781 -0.3601
   6823SM   H2F 8859   3.763   0.193  10.818  0.3974 -0.7670  0.6129
   6823SM   H2G 8860   3.818   0.370  10.858  0.8379 -1.6423  1.6575
   6823SM   C3F 8861   3.649   0.344  10.712 -0.5035  0.4916 -0.3933
   6823SM   H3F 8862   3.652   0.454  10.695  1.5005  0.3395 -1.2696
   6823SM   H3G 8863   3.545   0.321  10.743  0.1966 -1.2948  0.7656
   6823SM   C4F 8864   3.692   0.272  10.588 -0.5697  0.2421  0.3188
   6823SM   H4F 8865   3.677   0.168  10.624  1.7295 -0.8879 -1.6936
   6823SM   H4G 8866   3.799   0.291  10.564 -0.5487  1.4874  1.3244
   6823SM   C5F 8867   3.599   0.306  10.471 -0.3963 -0.0488  0.1825
   6823SM   H5F 8868   3.622   0.410  10.438  1.5052 -0.1221  1.1363
   6823SM   H5G 8869   3.493   0.312  10.503 -1.1651 -0.2206 -2.1004
   6823SM   C6F 8870   3.603   0.203  10.359  0.7404  0.5379 -0.6112
   6823SM   H6F 8871   3.573   0.105  10.401  0.4881  0.3475 -1.2306
   6823SM   H6G 8872   3.708   0.211  10.323  1.4831  1.1512  1.4893
   6823SM   C7F 8873   3.508   0.236  10.243  0.2346 -0.0967  0.0494
   6823SM   H7F 8874   3.514   0.336  10.194 -2.2644  0.0396 -0.0788
   6823SM   H7G 8875   3.407   0.223  10.287  0.8597 -2.9146  0.8680
   6823SM   C8F 8876   3.525   0.121  10.137 -0.0413  0.2724 -0.3474
   6823SM   H8F 8877   3.532   0.019  10.181  0.0696 -0.4790 -2.0280
   6823SM   H8G 8878   3.614   0.148  10.076  0.2780 -0.5491 -0.2605
   6823SM   C9F 8879   3.410   0.115  10.038 -0.1731 -0.1063 -0.2662
   6823SM   H9F 8880   3.455   0.079   9.943  2.4711  0.7270  0.5643
   6823SM   H9G 8881   3.376   0.219  10.019 -0.7426 -0.5142 -1.6144
   6823SM  C10F 8882   3.281   0.036  10.083 -0.2760 -0.5914  0.2953
   6823SM  H10F 8883   3.242   0.092  10.170  0.3431 -1.0806  0.9000
   6823SM  H10G 8884   3.308  -0.066  10.119  1.1098 -0.0451  0.8884
   6823SM  C11F 8885   3.178   0.022   9.969  0.1347 -0.4964 -0.3028
   6823SM  H11F 8886   3.155   0.123   9.928 -0.5268  0.2439  1.7758
   6823SM  H11G 8887   3.082  -0.010  10.015 -0.0163  0.2709 -0.0715
   6823SM  C12F 8888   3.207  -0.072   9.854  0.4672  0.2288  0.1479
   6823SM  H12F 8889   3.237  -0.166   9.905 -0.0434 -0.1291 -0.2058
   6823SM  H12G 8890   3.298  -0.047   9.794  1.2169 -4.2238 -0.9819
   6823SM  C13F 8891   3.077  -0.088   9.774 -0.4199 -0.0545 -0.3251
   6823SM  H13F 8892   3.022   0.008   9.773 -0.4474 -0.0530  0.4055
   6823SM  H13G 8893   3.007  -0.157   9.825 -2.0640  0.9847 -1.0964
   6823SM  C14F 8894   3.093  -0.120   9.628 -0.5170  1.0499  0.7322
   6823SM  H14F 8895   3.172  -0.054   9.586 -0.1062 -0.4990 -1.0516
   6823SM  H14G 8896   3.000  -0.107   9.569  0.9130 -0.4063 -2.0260
   6823SM  C15F 8897   3.138  -0.265   9.604  0.3310  0.6147  0.2365
   6823SM  H15F 8898   3.052  -0.331   9.631  1.8075 -2.0704 -1.1647
   6823SM  H15G 8899   3.216  -0.298   9.675 -1.3372 -1.8979  1.0589
   6823SM  C16F 8900   3.193  -0.288   9.464  0.0802 -0.3140  0.1164
   6823SM  H16F 8901   3.225  -0.395   9.461 -0.5287 -0.4980  0.0799
   6823SM  H16G 8902   3.283  -0.227   9.440 -0.4611 -0.0314 -1.2852
   6823SM  C17F 8903   3.097  -0.261   9.349  0.4148  0.3295 -1.1064
   6823SM  H17F 8904   3.067  -0.155   9.335 -1.7967  0.1587  1.5720
   6823SM  H17G 8905   3.003  -0.316   9.371  0.7720 -0.1092 -0.6844
   6823SM  C18F 8906   3.153  -0.315   9.214 -0.6500 -0.4630 -0.0022
   6823SM  H18F 8907   3.180  -0.423   9.214 -1.3743 -0.6571 -0.3531
   6823SM  H18G 8908   3.248  -0.260   9.203 -0.6440  0.6153  3.8381
   6823SM  C19F 8909   3.069  -0.280   9.083 -0.8324 -0.9382 -0.0105
   6823SM  H19F 8910   3.126  -0.275   8.987  2.0880  1.1839  1.6803
   6823SM  H19G 8911   3.029  -0.177   9.089 -0.1558 -0.6441 -0.4325
   6823SM  C20F 8912   2.949  -0.378   9.053 -0.1265 -0.2648 -0.1991
   6823SM  H20F 8913   2.884  -0.390   9.143  1.1183 -1.2741  0.6005
   6823SM  H20G 8914   2.991  -0.473   9.014 -0.1389 -0.8852  1.2300
   6823SM  C21F 8915   2.852  -0.327   8.943 -0.1287 -0.2246 -0.3391
   6823SM  H21F 8916   2.891  -0.348   8.841  1.2690  0.9793 -0.0958
   6823SM  H21G 8917   2.835  -0.218   8.945  0.1017 -0.1732 -0.8820
   6823SM  C22F 8918   2.716  -0.408   8.946 -0.0243 -0.1244 -0.3464
   6823SM  H22F 8919   2.670  -0.385   8.848 -0.7438 -1.6019 -0.3788
   6823SM  H22G 8920   2.653  -0.370   9.029  1.2397  0.9210  0.1659
   6823SM  C23F 8921   2.727  -0.560   8.960 -0.1720 -0.1581  0.5913
   6823SM  H23F 8922   2.624  -0.600   8.954 -0.1814 -0.4004  2.0220
   6823SM  H23G 8923   2.756  -0.594   9.062 -0.0424 -0.7931  0.3474
   6823SM  H23H 8924   2.799  -0.613   8.894 -0.0122  0.2791  0.4156
   6923SM     N 8925   5.368   2.759  11.433  0.2650  0.4010 -0.2824
   6923SM   C15 8926   5.427   2.892  11.467 -0.1622 -0.3878 -0.0813
   6923SM  H15A 8927   5.445   2.955  11.381  0.2855 -1.5703 -0.8776
   6923SM  H15B 8928   5.520   2.883  11.522  0.8667  0.4266 -1.6033
   6923SM  H15C 8929   5.356   2.946  11.529  2.2078 -0.7245  3.2276
   6923SM   C14 8930   5.350   2.683  11.563  0.2519 -0.1585 -0.4617
   6923SM  H14A 8931   5.442   2.685  11.620 -0.3576 -0.7920  0.5555
   6923SM  H14B 8932   5.328   2.582  11.534 -2.0394 -0.1992  1.1450
   6923SM  H14C 8933   5.262   2.722  11.612  0.0505 -2.7665  1.4309
   6923SM   C13 8934   5.243   2.780  11.369 -0.0011  0.2086  0.3800
   6923SM  H13A 8935   5.259   2.851  11.289  0.9314  0.5173  0.8294
   6923SM  H13B 8936   5.165   2.818  11.434 -1.6516 -2.1176 -0.1083
   6923SM  H13C 8937   5.192   2.693  11.331 -1.4662  0.5527  1.4770
   6923SM   C12 8938   5.467   2.678  11.341  0.3171  0.2741 -0.5642
   6923SM  H12A 8939   5.559   2.659  11.395 -0.5682  1.8802  1.6870
   6923SM  H12B 8940   5.495   2.744  11.261 -1.7013  0.7269 -0.9284
   6923SM   C11 8941   5.406   2.546  11.281  0.3612  0.9993  0.2059
   6923SM  H11A 8942   5.480   2.486  11.224  0.5772 -0.9493  2.3542
   6923SM  H11B 8943   5.336   2.587  11.206 -0.5157 -0.6325  0.1014
   6923SM     P 8944   5.396   2.335  11.427  0.1470 -0.1271 -0.3486
   6923SM   O13 8945   5.518   2.360  11.507 -0.4609 -0.6445 -0.7992
   6923SM   O14 8946   5.284   2.274  11.499  0.0651 -0.4028 -0.5743
   6923SM   O11 8947   5.428   2.253  11.294 -0.1041  0.0392 -0.0922
   6923SM   O12 8948   5.337   2.467  11.379 -0.4986  0.3545  0.0431
   6923SM   C1S 8949   5.318   2.203  11.219 -0.5758 -0.0316  0.6221
   6923SM   H1S 8950   5.218   2.235  11.256 -1.5010 -0.4932 -1.3041
   6923SM   H1T 8951   5.317   2.092  11.231 -3.6329 -0.0493  0.9347
   6923SM    NF 8952   5.206   2.203  10.993 -0.3362 -0.1484  0.2102
   6923SM   HNF 8953   5.214   2.124  10.933  0.7777 -0.1671  0.3691
   6923SM   C2S 8954   5.323   2.242  11.067 -0.3199 -0.5089  0.3386
   6923SM   H2S 8955   5.334   2.351  11.051 -1.1885 -0.3369  0.8591
   6923SM   C3S 8956   5.446   2.187  11.002 -0.4190  1.2342  0.2247
   6923SM   H3S 8957   5.432   2.079  11.025 -0.5438  1.6013  2.0416
   6923SM    O3 8958   5.572   2.229  11.064 -0.2071  0.3452  0.1638
   6923SM   HO3 8959   5.554   2.268  11.149  1.1256  0.7319  0.3046
   6923SM   C4S 8960   5.454   2.201  10.857 -0.3657 -0.1771  0.2636
   6923SM   H4S 8961   5.443   2.301  10.812 -1.9222 -0.5740 -0.2895
   6923SM   C5S 8962   5.478   2.097  10.775  0.7054 -0.1639  0.2750
   6923SM   H5S 8963   5.510   2.001  10.818 -1.7398 -1.0116  0.3464
   6923SM   C6S 8964   5.472   2.114  10.628 -0.3879  0.0147 -0.5648
   6923SM   H6S 8965   5.407   2.203  10.614 -2.5763 -1.7315 -2.2175
   6923SM   H6T 8966   5.423   2.025  10.583  1.1109 -1.4555  0.5563
   6923SM   C7S 8967   5.602   2.141  10.547 -0.0244  0.2984 -0.7192
   6923SM   H7S 8968   5.688   2.095  10.602 -0.2536  1.9476  1.1351
   6923SM   H7T 8969   5.616   2.250  10.557  2.1147  0.0658 -0.7143
   6923SM   C8S 8970   5.585   2.111  10.396  0.3985 -0.2246 -0.2689
   6923SM   H8S 8971   5.574   2.001  10.383  1.4976 -0.1758 -1.8140
   6923SM   H8T 8972   5.681   2.141  10.348 -0.2529 -0.8685 -2.0542
   6923SM   C9S 8973   5.459   2.173  10.331 -0.6579  0.2930  0.3160
   6923SM   H9S 8974   5.431   2.279  10.351 -2.8610 -0.1998  0.0858
   6923SM   H9T 8975   5.373   2.113  10.367 -1.0460  0.2727 -0.6281
   6923SM  C10S 8976   5.462   2.150  10.180  0.2038 -0.0053 -0.7974
   6923SM  H10S 8977   5.494   2.048  10.151  0.5238  0.3053 -1.5782
   6923SM  H10T 8978   5.545   2.219  10.153  0.0104  0.0861 -1.1768
   6923SM  C11S 8979   5.323   2.168  10.120  0.5457  0.1626 -0.4969
   6923SM  H11S 8980   5.280   2.266  10.151  1.1728  0.3666 -0.2595
   6923SM  H11T 8981   5.255   2.085  10.149  1.4093 -0.6098 -0.6320
   6923SM  C12S 8982   5.323   2.164   9.966 -0.3826 -0.0811 -0.0601
   6923SM  H12S 8983   5.408   2.099   9.937 -0.3988 -0.4230  0.6244
   6923SM  H12T 8984   5.343   2.268   9.931 -0.8218 -0.5027 -1.6246
   6923SM  C13S 8985   5.189   2.134   9.902  0.8398 -0.2495 -0.2538
   6923SM  H13S 8986   5.118   2.210   9.939 -0.5256 -1.2400 -0.7690
   6923SM  H13T 8987   5.148   2.036   9.936  1.4071  0.3859  2.4881
   6923SM  C14S 8988   5.201   2.143   9.749  0.0475  0.4741  0.4371
   6923SM  H14S 8989   5.280   2.076   9.709  1.3475 -0.0869  3.6339
   6923SM  H14T 8990   5.241   2.245   9.728 -0.4957  0.7208  0.5914
   6923SM  C15S 8991   5.058   2.132   9.689 -0.7510 -0.1372  0.1912
   6923SM  H15S 8992   4.982   2.185   9.750 -0.9232 -1.4704  1.1777
   6923SM  H15T 8993   5.023   2.027   9.698  2.5932 -1.6198 -1.9942
   6923SM  C16S 8994   5.041   2.143   9.534  0.9342  0.6216  0.9525
   6923SM  H16S 8995   4.943   2.094   9.516  0.4027  1.2597  2.0159
   6923SM  H16T 8996   5.117   2.080   9.483 -1.5232 -2.6346  0.9478
   6923SM  C17S 8997   5.048   2.286   9.478  0.2237  0.3332  0.5050
   6923SM  H17S 8998   5.153   2.323   9.478 -0.0321  1.0823 -0.0526
   6923SM  H17T 8999   4.996   2.368   9.531  0.3971  3.5849 -3.7554
   6923SM  C18S 9000   4.992   2.292   9.336 -0.1621  0.4498  0.3606
   6923SM  H18S 9001   4.882   2.273   9.332 -0.5922  2.6603  0.1532
   6923SM  H18T 9002   5.045   2.226   9.264 -0.8895  0.8920 -0.6094
   6923SM  H18U 9003   5.014   2.394   9.298  0.6564 -0.2659 -1.2151
   6923SM   C1F 9004   5.096   2.270  11.005  0.1443  0.5162 -0.3669
   6923SM    OF 9005   5.090   2.378  11.066  0.1772  0.9029 -0.2625
   6923SM   C2F 9006   4.974   2.200  10.960 -0.4026 -0.1090 -0.0363
   6923SM   H2F 9007   4.881   2.251  10.994  0.3174  3.1703 -2.5129
   6923SM   H2G 9008   4.970   2.090  10.974  0.3490 -0.2574 -0.9206
   6923SM   C3F 9009   4.954   2.234  10.809 -0.1676 -0.2257 -0.2979
   6923SM   H3F 9010   5.038   2.202  10.744 -1.2093  0.0638 -1.8341
   6923SM   H3G 9011   4.940   2.344  10.798 -2.7228 -0.5221 -0.5569
   6923SM   C4F 9012   4.823   2.171  10.747  0.3583 -0.0571 -0.6298
   6923SM   H4F 9013   4.740   2.209  10.811  1.2514  2.0983 -0.6398
   6923SM   H4G 9014   4.825   2.060  10.750  1.9714 -0.0423  1.7114
   6923SM   C5F 9015   4.787   2.223  10.609  0.9766 -0.6022  0.6426
   6923SM   H5F 9016   4.863   2.220  10.528 -0.3291 -0.4261 -0.6252
   6923SM   H5G 9017   4.771   2.332  10.625  0.0206 -0.6669  0.2098
   6923SM   C6F 9018   4.656   2.166  10.559 -0.1072 -0.1016 -0.2030
   6923SM   H6F 9019   4.578   2.171  10.637 -0.4661  2.8589 -0.6096
   6923SM   H6G 9020   4.673   2.059  10.537  1.5225  0.2933 -1.0707
   6923SM   C7F 9021   4.605   2.233  10.433 -0.5980  0.0427 -0.1729
   6923SM   H7F 9022   4.627   2.341  10.449 -0.4750 -0.2213  1.6916
   6923SM   H7G 9023   4.495   2.218  10.437 -0.6255 -0.1085 -1.2635
   6923SM   C8F 9024   4.667   2.173  10.309  1.0747 -0.3790  0.7108
   6923SM   H8F 9025   4.647   2.063  10.310 -0.2937 -0.1727 -0.6046
   6923SM   H8G 9026   4.774   2.201  10.299  0.5366  2.2402  1.6316
   6923SM   C9F 9027   4.587   2.213  10.187 -0.5109  0.2538  0.2701
   6923SM   H9F 9028   4.561   2.321  10.195  1.6696  0.7160  2.9116
   6923SM   H9G 9029   4.490   2.160  10.177  0.2564 -0.8705 -1.6972
   6923SM  C10F 9030   4.664   2.184  10.053 -0.1447  0.1398  0.0171
   6923SM  H10F 9031   4.695   2.077  10.046 -0.5432 -0.1669  2.2400
   6923SM  H10G 9032   4.755   2.247  10.054 -0.5273  0.6907  0.5297
   6923SM  C11F 9033   4.573   2.225   9.940  0.8165  0.6998  0.2000
   6923SM  H11F 9034   4.501   2.304   9.971 -1.6283 -1.4127  0.2250
   6923SM  H11G 9035   4.513   2.135   9.916  1.0102  0.7849 -0.6231
   6923SM  C12F 9036   4.645   2.258   9.807  0.1973 -0.1942 -0.6196
   6923SM  H12F 9037   4.708   2.175   9.768  0.4644 -0.0208 -0.5549
   6923SM  H12G 9038   4.705   2.350   9.821  1.6309 -1.0310 -1.1143
   6923SM  C13F 9039   4.548   2.300   9.687  0.1482 -0.3016  0.2856
   6923SM  H13F 9040   4.612   2.333   9.603  0.0729 -1.4280 -0.2338
   6923SM  H13G 9041   4.479   2.376   9.731  0.2629  0.6051 -1.0494
   6923SM  C14F 9042   4.461   2.190   9.625  0.3576  1.0207  0.0113
   6923SM  H14F 9043   4.411   2.232   9.535  0.0502  1.1595  0.2446
   6923SM  H14G 9044   4.384   2.162   9.699  1.5837 -1.1914  0.5441
   6923SM  C15F 9045   4.533   2.056   9.582  0.1518  0.1804 -0.6324
   6923SM  H15F 9046   4.617   2.038   9.652 -1.4675 -0.7544  1.1305
   6923SM  H15G 9047   4.590   2.075   9.488  1.0222 -0.3530 -0.2202
   6923SM  C16F 9048   4.444   1.937   9.577  0.4155 -0.6296 -0.0599
   6923SM  H16F 9049   4.395   1.930   9.676 -1.4145  2.2544 -0.6276
   6923SM  H16G 9050   4.508   1.846   9.575  0.6061 -0.4856 -0.9882
   6923SM  C17F 9051   4.332   1.941   9.471 -0.3562  0.1677  0.0460
   6923SM  H17F 9052   4.372   1.979   9.375 -0.0946 -1.0459 -0.3476
   6923SM  H17G 9053   4.246   2.004   9.501 -0.2686 -0.1868  1.0673
   6923SM  C18F 9054   4.277   1.803   9.447 -0.4656 -0.0021 -0.5222
   6923SM  H18F 9055   4.256   1.741   9.537  1.0127  1.3682  0.8193
   6923SM  H18G 9056   4.358   1.756   9.386 -1.2286 -0.0151 -1.5572
   6923SM  C19F 9057   4.147   1.823   9.359  0.0548  0.6577 -0.4720
   6923SM  H19F 9058   4.177   1.895   9.280  1.5897  0.2886 -0.2660
   6923SM  H19G 9059   4.065   1.869   9.418 -0.3746 -1.1915  0.4723
   6923SM  C20F 9060   4.115   1.692   9.284  1.1133 -0.0334 -0.1754
   6923SM  H20F 9061   4.068   1.621   9.355 -1.0319 -1.1664 -2.5642
   6923SM  H20G 9062   4.208   1.645   9.245  1.2365  0.7368 -0.8399
   6923SM  C21F 9063   4.012   1.712   9.175  0.1264  0.1114  0.5968
   6923SM  H21F 9064   4.038   1.794   9.105 -1.2902 -0.3746 -0.5627
   6923SM  H21G 9065   3.910   1.737   9.209 -0.1825 -2.0421  1.3959
   6923SM  C22F 9066   3.997   1.592   9.085 -0.5291  0.5063  0.1016
   6923SM  H22F 9067   3.986   1.504   9.152 -0.9095  1.0562  0.7821
   6923SM  H22G 9068   4.088   1.576   9.024 -0.6144 -1.0510  0.3476
   6923SM  C23F 9069   3.881   1.598   8.981  0.2828 -0.1083  0.1854
   6923SM  H23F 9070   3.898   1.679   8.906  1.3923 -1.5374 -1.1856
   6923SM  H23G 9071   3.781   1.609   9.028  1.2949  3.3332  1.8319
   6923SM  H23H 9072   3.884   1.504   8.922 -3.2517 -1.0784  1.2848
   7023SM     N 9073   4.342   1.248  11.650 -0.4947  0.4421  0.1347
   7023SM   C15 9074   4.255   1.170  11.555  0.4882 -0.0506 -0.1020
   7023SM  H15A 9075   4.320   1.106  11.498  0.4159  1.2730 -1.7498
   7023SM  H15B 9076   4.198   1.237  11.492  1.2385  0.0809 -0.6571
   7023SM  H15C 9077   4.182   1.119  11.616 -0.0739 -0.7291 -1.3119
   7023SM   C14 9078   4.267   1.336  11.746 -0.3125  0.2755 -0.0589
   7023SM  H14A 9079   4.193   1.389  11.688  0.8724  0.2922 -1.6113
   7023SM  H14B 9080   4.333   1.410  11.789 -0.9856  0.2624  1.0377
   7023SM  H14C 9081   4.222   1.273  11.822  2.4685  0.1511  1.6462
   7023SM   C13 9082   4.430   1.160  11.719  0.5414  0.0453  0.0997
   7023SM  H13A 9083   4.508   1.118  11.658  0.8949 -1.4988  1.5195
   7023SM  H13B 9084   4.380   1.069  11.750  0.3116 -0.1775 -0.8866
   7023SM  H13C 9085   4.477   1.207  11.804 -2.1087  1.7749  0.7214
   7023SM   C12 9086   4.422   1.351  11.572 -0.6665 -0.7793  0.0401
   7023SM  H12A 9087   4.493   1.389  11.644  0.0400 -1.8125 -0.0787
   7023SM  H12B 9088   4.350   1.417  11.528  0.3559 -0.0221 -0.5338
   7023SM   C11 9089   4.509   1.295  11.453  0.1678  0.0417 -0.1185
   7023SM  H11A 9090   4.556   1.383  11.405  1.4400 -1.0985 -1.0708
   7023SM  H11B 9091   4.446   1.250  11.373 -0.8254  0.5957  0.3406
   7023SM     P 9092   4.695   1.115  11.416  0.1288  0.0853 -0.1174
   7023SM   O13 9093   4.820   1.094  11.491 -0.3837 -0.2123 -0.0222
   7023SM   O14 9094   4.624   0.995  11.366 -0.1506  0.3862 -0.1620
   7023SM   O11 9095   4.722   1.215  11.293  0.2000 -0.5069  0.6745
   7023SM   O12 9096   4.603   1.201  11.505 -0.4213 -0.1382 -0.2109
   7023SM   C1S 9097   4.779   1.188  11.162 -0.3994 -0.4960  0.2885
   7023SM   H1S 9098   4.746   1.087  11.129  0.6297  0.2115 -3.2536
   7023SM   H1T 9099   4.889   1.182  11.170  0.0745  2.1336 -2.3173
   7023SM    NF 9100   4.799   1.272  10.926 -0.6940  0.1870  0.5002
   7023SM   HNF 9101   4.881   1.321  10.900 -0.9080  0.5706  0.5360
   7023SM   C2S 9102   4.753   1.305  11.059  0.2177 -0.3534 -0.4072
   7023SM   H2S 9103   4.643   1.312  11.047  0.0819  1.3920  1.3218
   7023SM   C3S 9104   4.797   1.443  11.125 -0.2450  1.0573  0.6911
   7023SM   H3S 9105   4.907   1.444  11.137 -0.2344  0.7323  0.6399
   7023SM    O3 9106   4.729   1.475  11.246  0.5537 -0.0517  0.4959
   7023SM   HO3 9107   4.688   1.397  11.286  0.2530  0.2414  0.7670
   7023SM   C4S 9108   4.751   1.548  11.027 -0.2106  0.2181 -0.3982
   7023SM   H4S 9109   4.643   1.546  11.006  0.3234  0.2827 -3.5926
   7023SM   C5S 9110   4.821   1.646  10.973 -0.1788 -0.5177  0.9279
   7023SM   H5S 9111   4.930   1.644  10.985  0.1282 -2.7181 -1.2824
   7023SM   C6S 9112   4.770   1.748  10.874  0.5054  0.3082  0.1390
   7023SM   H6S 9113   4.832   1.840  10.882  1.7787 -0.4456 -0.7568
   7023SM   H6T 9114   4.665   1.764  10.905 -1.6631 -2.3836 -4.7476
   7023SM   C7S 9115   4.761   1.687  10.736  0.2164 -0.6982  0.4200
   7023SM   H7S 9116   4.848   1.622  10.712  0.6399  0.5010 -1.5048
   7023SM   H7T 9117   4.755   1.771  10.663 -1.5437 -1.2681 -0.1360
   7023SM   C8S 9118   4.635   1.608  10.708  0.1506  0.5157  0.1491
   7023SM   H8S 9119   4.552   1.672  10.744  1.3467  1.4829  1.3174
   7023SM   H8T 9120   4.628   1.510  10.761  0.1063  0.1868 -0.4558
   7023SM   C9S 9121   4.633   1.577  10.557  0.6714  0.1653  0.1522
   7023SM   H9S 9122   4.703   1.638  10.496  0.6071  1.7001  1.5367
   7023SM   H9T 9123   4.535   1.606  10.514  1.4769  2.0371 -0.5160
   7023SM  C10S 9124   4.669   1.427  10.527  0.8292  0.3800 -0.5135
   7023SM  H10S 9125   4.587   1.363  10.567  0.9958  0.0124 -0.7470
   7023SM  H10T 9126   4.761   1.386  10.574  0.2787 -0.4006 -0.0811
   7023SM  C11S 9127   4.691   1.402  10.375  0.4491 -0.4930 -0.5234
   7023SM  H11S 9128   4.612   1.442  10.308 -0.8831 -1.2428  0.5670
   7023SM  H11T 9129   4.693   1.293  10.355  2.8015 -0.4318 -0.9258
   7023SM  C12S 9130   4.831   1.461  10.333 -0.1033 -0.5019  0.8909
   7023SM  H12S 9131   4.897   1.457  10.422  0.2672 -0.3527  0.6238
   7023SM  H12T 9132   4.816   1.567  10.300  0.7830 -0.4159  0.7559
   7023SM  C13S 9133   4.907   1.395  10.210 -0.4264  0.0995 -0.2039
   7023SM  H13S 9134   4.937   1.292  10.238  0.7779  0.1562 -1.2365
   7023SM  H13T 9135   5.005   1.444  10.195 -0.7446  0.6847 -0.4067
   7023SM  C14S 9136   4.824   1.396  10.085  0.5801  0.4413  0.4670
   7023SM  H14S 9137   4.808   1.504  10.064 -0.2544  0.6178  1.8710
   7023SM  H14T 9138   4.727   1.351  10.112  1.6692 -0.9754  2.2399
   7023SM  C15S 9139   4.889   1.315   9.971  0.0979  0.5295 -0.0605
   7023SM  H15S 9140   4.885   1.208  10.001 -1.5677  0.9099  1.1807
   7023SM  H15T 9141   4.994   1.352   9.969  0.1350  0.4073 -1.4310
   7023SM  C16S 9142   4.830   1.355   9.829 -0.2382  0.1546 -0.6759
   7023SM  H16S 9143   4.851   1.463   9.817  0.4185  0.0572 -0.4609
   7023SM  H16T 9144   4.719   1.352   9.837 -0.1525  0.9346  1.1298
   7023SM  C17S 9145   4.884   1.259   9.720  0.0425  0.4049  0.3596
   7023SM  H17S 9146   4.877   1.154   9.756  1.1906  0.0226 -0.4484
   7023SM  H17T 9147   4.992   1.274   9.698 -0.1420 -0.4698 -1.3016
   7023SM  C18S 9148   4.793   1.266   9.590  0.1412  0.6740 -0.1476
   7023SM  H18S 9149   4.840   1.197   9.517 -1.3239  0.8036 -1.2637
   7023SM  H18T 9150   4.803   1.365   9.541 -2.8500 -0.1346 -2.8223
   7023SM  H18U 9151   4.691   1.240   9.626 -0.0061  0.3689 -0.7603
   7023SM   C1F 9152   4.746   1.169  10.859  0.0384 -0.9252 -1.2203
   7023SM    OF 9153   4.649   1.116  10.908 -0.2737 -0.1885 -0.5734
   7023SM   C2F 9154   4.811   1.127  10.733  0.0677  0.4221  0.5613
   7023SM   H2F 9155   4.922   1.127  10.734  0.1296  0.2817 -1.4570
   7023SM   H2G 9156   4.785   1.196  10.650  2.2829  0.7545  0.0795
   7023SM   C3F 9157   4.772   0.979  10.705  0.6134 -0.0791  0.4287
   7023SM   H3F 9158   4.664   0.951  10.700  1.2344 -2.5911 -3.6202
   7023SM   H3G 9159   4.814   0.926  10.793 -0.0758 -0.3061  0.6311
   7023SM   C4F 9160   4.812   0.914  10.572 -0.0378  0.0965 -0.1055
   7023SM   H4F 9161   4.786   0.806  10.581  1.6343 -0.4349 -1.1376
   7023SM   H4G 9162   4.921   0.925  10.551 -0.3717 -0.0019 -2.1818
   7023SM   C5F 9163   4.731   0.980  10.457  0.2167  0.4101 -0.3607
   7023SM   H5F 9164   4.767   1.083  10.438 -0.3852  0.6187 -0.3696
   7023SM   H5G 9165   4.624   0.986  10.485 -0.1666  4.0592 -2.0899
   7023SM   C6F 9166   4.753   0.894  10.322 -0.0452  0.7462 -0.0006
   7023SM   H6F 9167   4.698   0.798  10.335  1.2966 -0.0551 -0.0195
   7023SM   H6G 9168   4.861   0.876  10.308 -0.2994  0.7162 -2.3555
   7023SM   C7F 9169   4.694   0.974  10.204  0.1466 -0.1138  0.2929
   7023SM   H7F 9170   4.745   1.073  10.194  0.1631 -0.2661 -1.5151
   7023SM   H7G 9171   4.587   0.999  10.221  1.0651  3.0294  2.3986
   7023SM   C8F 9172   4.720   0.887  10.081 -0.1835 -0.1170  0.4029
   7023SM   H8F 9173   4.653   0.798  10.084  0.8425 -0.8848  2.5054
   7023SM   H8G 9174   4.828   0.859  10.080 -0.3383 -0.7467  0.5625
   7023SM   C9F 9175   4.681   0.957   9.949 -0.0940 -0.1360  0.1174
   7023SM   H9F 9176   4.699   0.889   9.863  2.2268 -0.3706  0.7199
   7023SM   H9G 9177   4.749   1.044   9.943 -1.8210  1.2256 -0.5271
   7023SM  C10F 9178   4.527   0.997   9.939  0.7507  0.7236 -0.5664
   7023SM  H10F 9179   4.496   1.064  10.022  3.8124  3.3107 -1.3209
   7023SM  H10G 9180   4.463   0.910   9.966  1.6279  0.2783  0.1052
   7023SM  C11F 9181   4.482   1.054   9.797 -0.0335 -0.1954  0.2289
   7023SM  H11F 9182   4.557   1.128   9.761  0.0341 -1.3624 -2.2665
   7023SM  H11G 9183   4.381   1.100   9.804  0.0508 -0.1933  1.6597
   7023SM  C12F 9184   4.455   0.943   9.687  0.5306 -0.2634  0.5058
   7023SM  H12F 9185   4.381   0.869   9.727 -0.4682  0.0190 -0.7490
   7023SM  H12G 9186   4.546   0.881   9.679 -0.5333 -2.0316  1.3812
   7023SM  C13F 9187   4.409   1.007   9.561 -0.2345  1.6569 -0.2763
   7023SM  H13F 9188   4.487   1.082   9.535  1.3357 -0.1782 -1.1461
   7023SM  H13G 9189   4.310   1.057   9.571 -1.7454 -0.8960 -1.2723
   7023SM  C14F 9190   4.398   0.904   9.448 -0.7251  0.1199 -0.0653
   7023SM  H14F 9191   4.483   0.833   9.457 -0.4365  0.1969 -1.8440
   7023SM  H14G 9192   4.396   0.956   9.349 -3.6243 -2.6134 -1.6300
   7023SM  C15F 9193   4.267   0.821   9.441  0.1917  0.8324 -0.2987
   7023SM  H15F 9194   4.181   0.886   9.466 -1.4720 -1.2964 -0.1962
   7023SM  H15G 9195   4.269   0.735   9.511 -2.1435 -0.5426 -1.7934
   7023SM  C16F 9196   4.243   0.774   9.299  0.4563 -0.1464 -0.0818
   7023SM  H16F 9197   4.327   0.714   9.258 -0.8574 -0.6504 -2.1371
   7023SM  H16G 9198   4.233   0.862   9.232 -3.8885  0.1233  0.6661
   7023SM  C17F 9199   4.112   0.706   9.284 -0.2913 -0.0007 -0.7046
   7023SM  H17F 9200   4.032   0.783   9.287  2.6007  3.2635 -0.6234
   7023SM  H17G 9201   4.103   0.639   9.373 -0.1914 -0.5740 -1.1186
   7023SM  C18F 9202   4.105   0.616   9.163 -0.1317 -0.3350  0.4054
   7023SM  H18F 9203   4.177   0.533   9.178  0.1363 -0.2171 -0.2053
   7023SM  H18G 9204   4.137   0.672   9.072 -0.5731 -0.8398 -0.0655
   7023SM  C19F 9205   3.964   0.554   9.145  0.3845 -0.0524 -0.4927
   7023SM  H19F 9206   3.894   0.638   9.123  1.1489  0.8483  0.3850
   7023SM  H19G 9207   3.927   0.505   9.237 -1.7818  0.9581 -0.7635
   7023SM  C20F 9208   3.948   0.444   9.025  0.0547  0.2637 -0.0829
   7023SM  H20F 9209   4.019   0.366   9.061 -1.2299 -0.0588  1.9496
   7023SM  H20G 9210   3.981   0.489   8.929 -0.2474  0.0154 -0.3064
   7023SM  C21F 9211   3.805   0.401   9.029  0.1503 -0.2172  0.3153
   7023SM  H21F 9212   3.747   0.496   9.023 -0.5896 -0.4116  2.9701
   7023SM  H21G 9213   3.771   0.345   9.119  0.9332  0.5915  1.1348
   7023SM  C22F 9214   3.769   0.324   8.896  0.0808  0.2447 -0.1443
   7023SM  H22F 9215   3.826   0.229   8.892  0.9298  0.7112  0.5829
   7023SM  H22G 9216   3.795   0.380   8.803  0.7612  1.5357  0.7940
   7023SM  C23F 9217   3.626   0.273   8.894  0.4661 -0.2263  0.2501
   7023SM  H23F 9218   3.596   0.233   8.993  0.3181  1.5999  0.9886
   7023SM  H23G 9219   3.630   0.191   8.820  2.7380 -2.0137  2.1835
   7023SM  H23H 9220   3.559   0.355   8.862 -1.0588 -1.4835  0.1323
   7123SM     N 9221   3.905   5.848  11.329  0.3209 -0.3699  0.7967
   7123SM   C15 9222   3.831   5.723  11.354 -0.8928  0.8648  0.3489
   7123SM  H15A 9223   3.899   5.642  11.335 -2.3108 -0.4027  0.4645
   7123SM  H15B 9224   3.743   5.702  11.295 -0.3502 -1.8383  0.3761
   7123SM  H15C 9225   3.799   5.718  11.458  1.4240 -1.7969  1.0496
   7123SM   C14 9226   4.015   5.855  11.430  0.1548  0.5122  0.5736
   7123SM  H14A 9227   4.080   5.769  11.424  0.6368  0.9100 -3.7417
   7123SM  H14B 9228   3.978   5.861  11.531 -2.7964 -1.0777 -0.3140
   7123SM  H14C 9229   4.073   5.946  11.424 -1.3088  1.4589  0.1916
   7123SM   C13 9230   3.967   5.847  11.200  0.1124  0.5051  0.0327
   7123SM  H13A 9231   3.900   5.816  11.121  0.2776  0.8461 -0.2448
   7123SM  H13B 9232   4.053   5.781  11.189 -0.4900 -0.1854 -0.6693
   7123SM  H13C 9233   3.996   5.947  11.172  0.0588  0.5574  0.1654
   7123SM   C12 9234   3.821   5.970  11.351  0.3737 -0.5274 -0.0782
   7123SM  H12A 9235   3.777   5.974  11.450 -0.1221 -2.8224 -0.1520
   7123SM  H12B 9236   3.740   5.962  11.280  0.6866 -0.0320 -0.5027
   7123SM   C11 9237   3.885   6.113  11.320 -0.0735 -0.1132  0.1615
   7123SM  H11A 9238   3.978   6.123  11.378 -0.2374 -1.2113  0.6540
   7123SM  H11B 9239   3.820   6.193  11.362  2.9085  1.0250  2.9824
   7123SM     P 9240   3.795   6.157  11.087 -0.0955 -0.4127  0.0124
   7123SM   O13 9241   3.689   6.056  11.113 -0.0392  0.5541 -0.0197
   7123SM   O14 9242   3.747   6.293  11.103  0.0698 -0.5547  0.1287
   7123SM   O11 9243   3.866   6.144  10.945 -0.6710 -0.1753  0.4986
   7123SM   O12 9244   3.919   6.127  11.184  0.7410  0.1215  0.2407
   7123SM   C1S 9245   3.997   6.095  10.924 -0.7907  0.4471  0.9095
   7123SM   H1S 9246   4.031   6.017  10.995  1.0326  0.5401  0.2029
   7123SM   H1T 9247   4.059   6.184  10.948 -1.2231  0.6840  1.1675
   7123SM    NF 9248   4.112   5.938  10.766 -0.2437  0.4228  0.0076
   7123SM   HNF 9249   4.187   5.958  10.704 -0.5824  1.0316 -0.2225
   7123SM   C2S 9250   4.020   6.051  10.773 -1.1399 -0.3129  0.1024
   7123SM   H2S 9251   3.914   6.029  10.749 -1.9367  2.1203  1.0761
   7123SM   C3S 9252   4.068   6.168  10.685 -0.2103 -0.8446  0.5515
   7123SM   H3S 9253   4.172   6.194  10.711 -0.2130  0.7927 -0.9032
   7123SM    O3 9254   3.990   6.276  10.720 -0.2298 -0.6489 -0.1670
   7123SM   HO3 9255   3.934   6.257  10.797  0.7767 -1.1269  0.4622
   7123SM   C4S 9256   4.071   6.140  10.531  0.3831  0.0972 -0.2917
   7123SM   H4S 9257   4.124   6.047  10.505 -0.4407 -0.7621  0.9530
   7123SM   C5S 9258   4.004   6.197  10.432 -0.3387  0.0499  0.2570
   7123SM   H5S 9259   3.942   6.287  10.438  0.5909  0.8763 -1.7257
   7123SM   C6S 9260   4.004   6.157  10.288 -0.8543  0.0217  0.5954
   7123SM   H6S 9261   3.902   6.152  10.245 -1.2727 -0.7266  1.6549
   7123SM   H6T 9262   4.058   6.060  10.283  0.7853  0.7423  2.6835
   7123SM   C7S 9263   4.082   6.265  10.211 -0.2681 -0.2109 -0.2024
   7123SM   H7S 9264   4.183   6.278  10.255 -0.0016 -1.2848 -0.4720
   7123SM   H7T 9265   4.029   6.362  10.216  0.2135  0.0129  1.0219
   7123SM   C8S 9266   4.101   6.236  10.060 -0.1808  0.1703  0.2015
   7123SM   H8S 9267   4.003   6.196  10.026  0.5818 -0.8703 -0.8784
   7123SM   H8T 9268   4.178   6.161  10.034 -1.1802 -0.1367 -2.1287
   7123SM   C9S 9269   4.122   6.364   9.974 -0.0868 -0.1959  0.2701
   7123SM   H9S 9270   4.211   6.416  10.017 -0.9022  0.5805  1.0632
   7123SM   H9T 9271   4.038   6.436   9.991  0.9616  1.1820 -0.1817
   7123SM  C10S 9272   4.134   6.330   9.822 -0.4839  0.3272  0.2149
   7123SM  H10S 9273   4.046   6.276   9.782 -0.0609 -1.2424  1.3332
   7123SM  H10T 9274   4.219   6.259   9.823 -0.0911  0.7792  1.6067
   7123SM  C11S 9275   4.161   6.442   9.731 -0.6856 -0.6087  0.5378
   7123SM  H11S 9276   4.213   6.420   9.635  0.3540  1.5885  0.5467
   7123SM  H11T 9277   4.236   6.514   9.771 -0.4888  0.9871 -2.4010
   7123SM  C12S 9278   4.042   6.531   9.686  0.1810  0.0408 -0.0843
   7123SM  H12S 9279   3.994   6.582   9.772 -1.0740  2.1099 -1.9253
   7123SM  H12T 9280   3.960   6.467   9.646  0.1311  1.1025 -1.7118
   7123SM  C13S 9281   4.077   6.621   9.567 -0.1922  0.0155 -0.7718
   7123SM  H13S 9282   3.986   6.661   9.518 -0.6224 -0.7915 -0.6520
   7123SM  H13T 9283   4.131   6.561   9.491 -2.5585 -1.4601 -1.4002
   7123SM  C14S 9284   4.158   6.744   9.610  0.0961 -0.3869  0.1566
   7123SM  H14S 9285   4.243   6.704   9.669  0.2329 -0.2237  0.0676
   7123SM  H14T 9286   4.089   6.805   9.673 -2.0278 -1.8658 -0.6025
   7123SM  C15S 9287   4.221   6.820   9.491  0.1035 -0.4260  0.1801
   7123SM  H15S 9288   4.135   6.854   9.429  0.9655 -2.3048 -2.1828
   7123SM  H15T 9289   4.284   6.745   9.439  1.1335  0.1021  0.6328
   7123SM  C16S 9290   4.326   6.933   9.529  0.5011  0.2937 -0.1276
   7123SM  H16S 9291   4.374   6.897   9.623  1.3727 -0.0199 -0.6741
   7123SM  H16T 9292   4.279   7.032   9.547 -0.6083  0.5197 -3.5150
   7123SM  C17S 9293   4.426   6.943   9.411  0.3290  0.2953 -0.8766
   7123SM  H17S 9294   4.379   6.973   9.315 -0.2040  0.9135 -0.4266
   7123SM  H17T 9295   4.468   6.842   9.391 -1.9160 -0.2788 -3.3700
   7123SM  C18S 9296   4.539   7.044   9.435  0.1155  0.7806 -0.1553
   7123SM  H18S 9297   4.619   7.043   9.358 -0.9103  0.2103 -1.2441
   7123SM  H18T 9298   4.591   7.016   9.529 -1.1592  1.5370  0.8197
   7123SM  H18U 9299   4.497   7.147   9.440 -0.4179  0.5739 -0.3191
   7123SM   C1F 9300   4.080   5.815  10.798  0.0042 -0.1036 -0.1729
   7123SM    OF 9301   3.966   5.782  10.827 -0.4496  0.9192 -0.2643
   7123SM   C2F 9302   4.181   5.712  10.789 -0.5276  0.2320  0.5985
   7123SM   H2F 9303   4.136   5.610  10.795 -1.9803  0.6103 -2.2947
   7123SM   H2G 9304   4.263   5.723  10.863  0.7066 -0.9686 -0.5352
   7123SM   C3F 9305   4.262   5.711  10.649  0.8684  0.2362 -0.3515
   7123SM   H3F 9306   4.349   5.647  10.674 -1.5844 -2.5187  1.8581
   7123SM   H3G 9307   4.298   5.814  10.630 -1.4634  0.9147 -1.4924
   7123SM   C4F 9308   4.180   5.685  10.526 -0.3751  0.4788  0.3421
   7123SM   H4F 9309   4.088   5.747  10.528 -0.1852  0.7578  0.3861
   7123SM   H4G 9310   4.145   5.581  10.542 -0.4766  0.4121 -0.2717
   7123SM   C5F 9311   4.250   5.698  10.391 -0.0307  0.6034 -0.1714
   7123SM   H5F 9312   4.177   5.670  10.312 -0.6207  0.0779  0.5356
   7123SM   H5G 9313   4.330   5.621  10.387 -0.5654  0.0553 -0.4508
   7123SM   C6F 9314   4.304   5.837  10.349  0.2065 -0.1731 -0.7317
   7123SM   H6F 9315   4.392   5.871  10.409 -1.8716  1.4135  1.6681
   7123SM   H6G 9316   4.226   5.915  10.366  1.5379  1.1419 -0.3779
   7123SM   C7F 9317   4.340   5.847  10.206  0.0565 -0.0569  0.2588
   7123SM   H7F 9318   4.418   5.771  10.181  0.4780  0.5673 -0.3785
   7123SM   H7G 9319   4.398   5.939  10.180  0.5931  0.4747  3.0471
   7123SM   C8F 9320   4.219   5.849  10.107  0.1759  0.0943 -0.0860
   7123SM   H8F 9321   4.155   5.938  10.126 -0.1723 -0.1521 -0.0994
   7123SM   H8G 9322   4.150   5.763  10.115 -0.0619  0.3676  0.8436
   7123SM   C9F 9323   4.270   5.860   9.959 -0.6737 -0.7682  0.6099
   7123SM   H9F 9324   4.342   5.779   9.933  0.3787  0.2781  0.1489
   7123SM   H9G 9325   4.328   5.954   9.948  1.0468 -2.0208 -2.2633
   7123SM  C10F 9326   4.157   5.873   9.849  0.0729 -0.7179 -0.4857
   7123SM  H10F 9327   4.083   5.954   9.867  0.4629 -0.3367 -0.5905
   7123SM  H10G 9328   4.102   5.777   9.857  3.0548 -2.4548  0.9291
   7123SM  C11F 9329   4.210   5.892   9.711  0.8644 -0.7756 -0.0333
   7123SM  H11F 9330   4.253   5.793   9.685  4.0405  0.1426  1.2836
   7123SM  H11G 9331   4.298   5.961   9.709  0.3838 -0.1666 -1.1650
   7123SM  C12F 9332   4.116   5.965   9.617  0.2392 -0.6928 -0.1625
   7123SM  H12F 9333   4.111   6.075   9.634  2.3582 -0.3675 -1.3522
   7123SM  H12G 9334   4.010   5.930   9.624 -0.7124  2.2160  2.3590
   7123SM  C13F 9335   4.164   5.945   9.465 -0.1827 -0.5960 -0.4105
   7123SM  H13F 9336   4.185   5.838   9.446  0.6092 -0.4007 -0.6527
   7123SM  H13G 9337   4.264   5.992   9.468 -1.3752  2.3150 -1.7030
   7123SM  C14F 9338   4.072   6.002   9.355 -0.2505 -0.0764 -0.5892
   7123SM  H14F 9339   4.108   6.102   9.323  0.2243 -0.2846 -0.7186
   7123SM  H14G 9340   3.963   6.006   9.376  0.1294  1.9766  1.3361
   7123SM  C15F 9341   4.075   5.920   9.227 -0.3476  0.0342 -0.1087
   7123SM  H15F 9342   3.993   5.962   9.164 -0.4781 -0.5222 -0.3078
   7123SM  H15G 9343   4.050   5.815   9.254  0.1124 -0.3947 -1.3084
   7123SM  C16F 9344   4.200   5.930   9.135 -0.1322 -0.3725  0.1492
   7123SM  H16F 9345   4.275   5.859   9.177 -1.0076 -1.9636 -0.8650
   7123SM  H16G 9346   4.235   6.035   9.145 -1.2574 -0.2448  4.4073
   7123SM  C17F 9347   4.175   5.898   8.990  0.0699  0.5854 -0.4771
   7123SM  H17F 9348   4.100   5.965   8.942 -0.3620  0.5776  0.1709
   7123SM  H17G 9349   4.133   5.796   8.975 -0.8699  0.4860  2.2470
   7123SM  C18F 9350   4.293   5.916   8.897 -0.4611 -0.5968  0.4448
   7123SM  H18F 9351   4.378   5.910   8.969  1.5603  0.6306 -1.7001
   7123SM  H18G 9352   4.292   6.015   8.848 -0.5267 -0.7882  0.0586
   7123SM  C19F 9353   4.295   5.812   8.779 -0.5866 -0.0129 -0.3708
   7123SM  H19F 9354   4.205   5.835   8.718 -1.8831  0.7264  1.6775
   7123SM  H19G 9355   4.280   5.708   8.815 -0.0134 -0.5960 -1.7858
   7123SM  C20F 9356   4.421   5.824   8.690  0.0381 -0.3337 -0.4418
   7123SM  H20F 9357   4.512   5.776   8.731 -0.3387  0.2013  1.0590
   7123SM  H20G 9358   4.434   5.932   8.668 -0.7123  0.0556  0.9011
   7123SM  C21F 9359   4.397   5.741   8.565 -0.2857 -0.3582 -0.3553
   7123SM  H21F 9360   4.309   5.779   8.509 -0.3041 -1.2147 -0.9178
   7123SM  H21G 9361   4.388   5.633   8.587 -0.2730 -0.4451 -0.7739
   7123SM  C22F 9362   4.523   5.750   8.477  0.1322 -0.0171 -0.1462
   7123SM  H22F 9363   4.608   5.702   8.530  0.9316  1.3568 -0.1228
   7123SM  H22G 9364   4.545   5.859   8.467 -0.5613  0.3036  1.6519
   7123SM  C23F 9365   4.502   5.690   8.335  0.5369  0.2980  0.2473
   7123SM  H23F 9366   4.406   5.728   8.294  0.0251  0.2452  1.3460
   7123SM  H23G 9367   4.507   5.579   8.332 -0.0932  0.2910 -1.8181
   7123SM  H23H 9368   4.587   5.719   8.270  1.5661 -0.3527  1.2560
   7223SM     N 9369   6.686   1.633  10.932 -0.0430  0.4617 -0.3635
   7223SM   C15 9370   6.813   1.617  10.998 -0.2279  0.0553  0.0043
   7223SM  H15A 9371   6.886   1.661  10.932 -0.1415 -0.2467 -0.1035
   7223SM  H15B 9372   6.844   1.515  11.012  1.8127  0.8092  1.3709
   7223SM  H15C 9373   6.808   1.680  11.086 -2.0412 -0.5947  0.4121
   7223SM   C14 9374   6.690   1.571  10.799  0.0830 -0.8057 -0.0107
   7223SM  H14A 9375   6.599   1.599  10.747  1.3544  0.5390 -1.6182
   7223SM  H14B 9376   6.693   1.463  10.800 -0.1825 -0.8313 -1.1730
   7223SM  H14C 9377   6.763   1.607  10.728 -0.8318 -0.8212 -0.9848
   7223SM   C13 9378   6.582   1.565  11.013  0.6291 -0.7915 -0.4226
   7223SM  H13A 9379   6.609   1.461  11.025  0.0804 -0.7800  1.0017
   7223SM  H13B 9380   6.485   1.574  10.966  1.4671 -1.1617 -2.3393
   7223SM  H13C 9381   6.580   1.618  11.107 -1.3486  1.2742 -1.5346
   7223SM   C12 9382   6.645   1.779  10.908  0.1069  0.2214 -0.5314
   7223SM  H12A 9383   6.545   1.787  10.870 -0.5596 -0.9825  0.8758
   7223SM  H12B 9384   6.712   1.823  10.836 -0.0286  0.4692 -0.5074
   7223SM   C11 9385   6.648   1.877  11.034  0.1153 -0.7645 -0.1405
   7223SM  H11A 9386   6.564   1.852  11.102 -1.9947  3.5459 -0.8615
   7223SM  H11B 9387   6.618   1.978  10.999 -1.7269 -0.5732  1.7970
   7223SM     P 9388   6.845   2.007  11.146  0.1687  0.1483 -0.3349
   7223SM   O13 9389   6.765   2.053  11.262  0.2207 -0.2895  0.2783
   7223SM   O14 9390   6.988   1.985  11.171  0.6156 -0.4939  0.2898
   7223SM   O11 9391   6.828   2.120  11.035 -0.2673 -0.1920  0.3209
   7223SM   O12 9392   6.772   1.876  11.107  0.3264 -0.0309 -0.0115
   7223SM   C1S 9393   6.904   2.092  10.912  0.7923 -0.1475 -0.3816
   7223SM   H1S 9394   6.906   1.985  10.885 -0.8944 -0.1007 -0.7896
   7223SM   H1T 9395   7.009   2.129  10.912  1.0130 -0.7637 -0.0748
   7223SM    NF 9396   6.889   2.109  10.668 -0.0055 -0.1636 -0.3972
   7223SM   HNF 9397   6.948   2.170  10.616  0.0223 -1.1729 -1.6027
   7223SM   C2S 9398   6.830   2.163  10.788  0.2831 -0.5775 -0.1481
   7223SM   H2S 9399   6.721   2.141  10.790  0.2087 -0.2022 -0.1027
   7223SM   C3S 9400   6.844   2.322  10.816 -0.2091  0.6630  0.2635
   7223SM   H3S 9401   6.954   2.335  10.825  0.2028 -0.9403 -1.7175
   7223SM    O3 9402   6.786   2.356  10.941  0.0585 -0.2326  0.5688
   7223SM   HO3 9403   6.795   2.278  10.997  1.5170  0.6850  1.6870
   7223SM   C4S 9404   6.798   2.401  10.702  0.4910 -0.5524  0.4397
   7223SM   H4S 9405   6.870   2.473  10.662 -1.7088  2.1139  0.9593
   7223SM   C5S 9406   6.671   2.406  10.659 -0.0544 -0.2010 -0.1198
   7223SM   H5S 9407   6.590   2.365  10.722 -0.4010  0.6645  0.0049
   7223SM   C6S 9408   6.623   2.500  10.552  0.3994 -0.5761 -0.4134
   7223SM   H6S 9409   6.699   2.576  10.524  1.2735 -1.2405  0.1110
   7223SM   H6T 9410   6.542   2.561  10.598  0.2950  0.2178 -1.6132
   7223SM   C7S 9411   6.564   2.433  10.424  0.0140 -0.7675 -0.6395
   7223SM   H7S 9412   6.531   2.513  10.355  1.2826 -0.3866 -0.8406
   7223SM   H7T 9413   6.476   2.371  10.452  0.2102 -1.0340 -0.6093
   7223SM   C8S 9414   6.674   2.361  10.342 -0.3650 -0.1052  0.0815
   7223SM   H8S 9415   6.726   2.280  10.397  0.3180 -1.8684 -2.9179
   7223SM   H8T 9416   6.760   2.428  10.321  0.8081 -1.2063  1.2394
   7223SM   C9S 9417   6.615   2.317  10.206  0.1480 -0.0940 -0.0632
   7223SM   H9S 9418   6.577   2.410  10.159 -0.9660 -0.8994 -0.8290
   7223SM   H9T 9419   6.529   2.246  10.214  0.3690 -0.6088 -1.8505
   7223SM  C10S 9420   6.724   2.247  10.116  0.1263  0.1254  0.2265
   7223SM  H10S 9421   6.736   2.143  10.153 -1.6188  0.3330  1.4866
   7223SM  H10T 9422   6.820   2.299  10.129 -0.0404  0.9115 -1.3812
   7223SM  C11S 9423   6.691   2.261   9.964 -0.2576  0.0527  0.3555
   7223SM  H11S 9424   6.695   2.365   9.923 -0.5639 -0.5305 -1.2246
   7223SM  H11T 9425   6.592   2.213   9.956  0.4337 -1.2978 -0.4032
   7223SM  C12S 9426   6.784   2.180   9.866  0.2499  0.4873  0.4371
   7223SM  H12S 9427   6.886   2.219   9.885  0.4559  2.1231 -3.1318
   7223SM  H12T 9428   6.756   2.205   9.761  0.7633 -1.6070 -0.2323
   7223SM  C13S 9429   6.762   2.029   9.891 -0.4853  0.0759 -0.1266
   7223SM  H13S 9430   6.666   2.003   9.841 -0.7955  1.5169 -0.3175
   7223SM  H13T 9431   6.763   2.003   9.999  2.6200  0.0764 -0.0612
   7223SM  C14S 9432   6.879   1.948   9.824 -0.3401  0.8706 -0.4851
   7223SM  H14S 9433   6.890   1.849   9.872 -3.4357  0.2659 -0.8504
   7223SM  H14T 9434   6.979   1.996   9.830  0.5747 -1.1117  1.9120
   7223SM  C15S 9435   6.858   1.922   9.679  0.7734 -0.3758 -0.2027
   7223SM  H15S 9436   6.891   2.012   9.623  0.7392 -0.3393 -0.1641
   7223SM  H15T 9437   6.754   1.891   9.654  1.3505 -2.2949 -0.4194
   7223SM  C16S 9438   6.945   1.804   9.627  0.6391  0.1927 -0.4774
   7223SM  H16S 9439   6.940   1.711   9.687  0.4165 -0.2215 -1.1237
   7223SM  H16T 9440   7.047   1.847   9.641  0.3299  0.1351  2.6492
   7223SM  C17S 9441   6.925   1.773   9.480  0.7193  0.1612 -0.4435
   7223SM  H17S 9442   6.821   1.738   9.461  1.8228 -2.3919 -2.2951
   7223SM  H17T 9443   6.993   1.686   9.465 -0.1610 -0.6174 -0.0450
   7223SM  C18S 9444   6.961   1.889   9.387 -0.7172 -0.3854 -0.2280
   7223SM  H18S 9445   6.994   1.850   9.289  0.7382 -0.1158  0.1364
   7223SM  H18T 9446   7.046   1.946   9.430 -0.8622 -0.6350  0.4025
   7223SM  H18U 9447   6.882   1.966   9.372  0.2841  1.6764  3.6825
   7223SM   C1F 9448   6.867   1.989  10.626 -0.7826  0.4615 -0.6423
   7223SM    OF 9449   6.783   1.917  10.679 -0.6184  0.2874 -0.6229
   7223SM   C2F 9450   6.954   1.930  10.522 -0.2900  0.4271  0.1706
   7223SM   H2F 9451   6.911   1.829  10.506  0.0662  0.0723  1.3610
   7223SM   H2G 9452   7.056   1.913  10.562 -0.3809 -0.0221  0.2139
   7223SM   C3F 9453   6.958   2.013  10.386 -0.6037  0.0250  0.5004
   7223SM   H3F 9454   6.984   2.117  10.416  1.0526 -0.1635 -0.1910
   7223SM   H3G 9455   6.855   2.028  10.348 -0.2064  1.5578 -0.0403
   7223SM   C4F 9456   7.047   1.960  10.271 -0.0075 -0.0589 -0.1470
   7223SM   H4F 9457   7.152   1.958  10.307  0.0779  0.8245 -0.3173
   7223SM   H4G 9458   7.050   2.026  10.182  2.0062  1.5015  0.9792
   7223SM   C5F 9459   7.014   1.818  10.230 -0.0735 -0.2639 -0.1808
   7223SM   H5F 9460   6.909   1.815  10.195  0.7986  2.2528 -3.4622
   7223SM   H5G 9461   7.024   1.749  10.317 -2.2108  0.7787  0.9720
   7223SM   C6F 9462   7.120   1.776  10.122 -0.0706 -0.2090  0.4565
   7223SM   H6F 9463   7.224   1.790  10.158  0.1241 -0.0266 -0.1689
   7223SM   H6G 9464   7.114   1.859  10.048 -0.5498  1.0214  1.8396
   7223SM   C7F 9465   7.089   1.647  10.044  0.5637  0.0042 -0.1834
   7223SM   H7F 9466   6.980   1.636  10.025  0.6321  0.3560 -0.8178
   7223SM   H7G 9467   7.121   1.563  10.109 -1.4563  0.7926  1.9657
   7223SM   C8F 9468   7.162   1.630   9.911  0.5804 -0.5378  0.0965
   7223SM   H8F 9469   7.111   1.698   9.841 -1.8390 -2.0310  0.3062
   7223SM   H8G 9470   7.149   1.525   9.877  1.7771 -0.8936  0.6669
   7223SM   C9F 9471   7.313   1.656   9.931 -0.4696 -0.5045  0.8384
   7223SM   H9F 9472   7.344   1.600  10.022  0.3442  0.3444  1.1076
   7223SM   H9G 9473   7.329   1.763   9.960  0.8857 -0.5619  0.3799
   7223SM  C10F 9474   7.378   1.629   9.795  0.8595 -0.0532 -0.0890
   7223SM  H10F 9475   7.356   1.526   9.759  2.7036 -0.7775  0.6814
   7223SM  H10G 9476   7.487   1.646   9.808  0.8025 -0.8077  1.6318
   7223SM  C11F 9477   7.338   1.722   9.678 -0.3866  1.1676 -0.5337
   7223SM  H11F 9478   7.317   1.820   9.726  0.7040  1.4485 -0.5954
   7223SM  H11G 9479   7.241   1.681   9.643 -1.1864 -0.9374  3.5453
   7223SM  C12F 9480   7.443   1.743   9.571  0.1418 -1.1836  0.6738
   7223SM  H12F 9481   7.467   1.645   9.523  0.0176 -0.7091 -0.3923
   7223SM  H12G 9482   7.539   1.779   9.613  1.5460 -1.9844 -1.6258
   7223SM  C13F 9483   7.386   1.839   9.462 -0.1739  0.0727  0.0835
   7223SM  H13F 9484   7.320   1.923   9.496  0.3949  0.9182 -0.8404
   7223SM  H13G 9485   7.334   1.774   9.388 -0.3545 -0.6198  0.8014
   7223SM  C14F 9486   7.492   1.897   9.366  0.3254 -0.1270 -1.1085
   7223SM  H14F 9487   7.544   1.816   9.310  2.6782 -1.3901  2.5317
   7223SM  H14G 9488   7.567   1.960   9.419  0.5394  0.0529 -1.6276
   7223SM  C15F 9489   7.440   2.001   9.262 -0.2735 -0.0915  0.0658
   7223SM  H15F 9490   7.520   2.049   9.201 -1.2294  3.0564  1.0609
   7223SM  H15G 9491   7.395   2.086   9.318 -1.4365 -1.0178  0.5660
   7223SM  C16F 9492   7.324   1.934   9.182  0.2997  0.6680 -0.2737
   7223SM  H16F 9493   7.286   2.012   9.113 -0.1986  0.0462 -0.7079
   7223SM  H16G 9494   7.250   1.898   9.257  0.8216 -2.0088 -0.9600
   7223SM  C17F 9495   7.367   1.811   9.103  0.1263 -0.1016 -0.6798
   7223SM  H17F 9496   7.380   1.723   9.170  2.5053  1.0371  0.4744
   7223SM  H17G 9497   7.461   1.820   9.044  0.6698  1.2514  0.3216
   7223SM  C18F 9498   7.252   1.790   9.008 -0.1590 -0.3326  0.3372
   7223SM  H18F 9499   7.231   1.872   8.937  2.6601  1.2552  1.1918
   7223SM  H18G 9500   7.158   1.776   9.066 -0.1481  0.6267  0.5968
   7223SM  C19F 9501   7.285   1.671   8.919  0.0510  0.3785 -0.1259
   7223SM  H19F 9502   7.309   1.584   8.983  0.8413 -0.5035 -1.5525
   7223SM  H19G 9503   7.383   1.695   8.874 -0.0775  0.0435 -0.5930
   7223SM  C20F 9504   7.182   1.635   8.810  0.4975 -0.0017  0.4922
   7223SM  H20F 9505   7.192   1.709   8.728  0.7600 -0.9060 -0.3089
   7223SM  H20G 9506   7.082   1.653   8.855 -0.0078 -0.9070 -0.2467
   7223SM  C21F 9507   7.194   1.495   8.757  0.0233 -1.1175 -1.2126
   7223SM  H21F 9508   7.175   1.419   8.837 -1.4085  1.1470  0.7302
   7223SM  H21G 9509   7.295   1.464   8.725  1.0363  0.7513  0.0240
   7223SM  C22F 9510   7.106   1.476   8.636 -1.1327  0.4425  0.2723
   7223SM  H22F 9511   7.144   1.535   8.550 -1.7378  0.0283 -0.2854
   7223SM  H22G 9512   7.004   1.503   8.672 -0.6322 -0.8934  2.9493
   7223SM  C23F 9513   7.105   1.330   8.587 -0.0834  0.3855 -0.3917
   7223SM  H23F 9514   7.210   1.304   8.563 -0.1660  1.1425 -1.6541
   7223SM  H23G 9515   7.044   1.319   8.494  1.2432  2.0218 -1.5281
   7223SM  H23H 9516   7.081   1.263   8.672  2.9662 -0.1546  0.1483
   7323SM     N 9517   5.015   1.940  11.445 -0.6693 -0.4057 -0.2676
   7323SM   C15 9518   5.014   1.809  11.518  0.1349  0.0571 -0.4500
   7323SM  H15A 9519   5.076   1.735  11.471 -0.9554 -0.2801 -1.3888
   7323SM  H15B 9520   4.914   1.768  11.512 -0.4082  1.3878 -0.9440
   7323SM  H15C 9521   5.048   1.813  11.620 -0.9734  1.8398 -0.0916
   7323SM   C14 9522   4.938   2.037  11.521 -0.5218  1.0528 -0.2145
   7323SM  H14A 9523   4.913   2.124  11.463 -0.5579 -0.4275 -2.5399
   7323SM  H14B 9524   4.999   2.073  11.603  1.6260  0.2518 -1.3632
   7323SM  H14C 9525   4.852   1.979  11.552 -1.5949  2.4514 -0.4738
   7323SM   C13 9526   5.155   1.991  11.442  0.4815  0.4559 -0.5749
   7323SM  H13A 9527   5.219   1.994  11.528  1.4164  0.6000 -1.2572
   7323SM  H13B 9528   5.156   2.094  11.409  1.7972  0.0396 -1.9384
   7323SM  H13C 9529   5.211   1.933  11.370 -0.7738  0.7467 -1.8259
   7323SM   C12 9530   4.959   1.929  11.307 -0.5352 -0.1241  0.0952
   7323SM  H12A 9531   4.926   2.031  11.292  2.0869  1.3775  3.1699
   7323SM  H12B 9532   4.865   1.876  11.310 -2.2010  2.3898 -2.1564
   7323SM   C11 9533   5.054   1.875  11.190  0.5952 -0.2342 -0.5344
   7323SM  H11A 9534   5.123   1.957  11.163  0.2869 -0.4202 -1.9614
   7323SM  H11B 9535   4.994   1.842  11.103 -1.7613 -1.4503  1.4123
   7323SM     P 9536   5.254   1.715  11.141 -0.1185 -0.4550  0.1978
   7323SM   O13 9537   5.372   1.795  11.187  0.0181 -0.3359 -0.7001
   7323SM   O14 9538   5.271   1.566  11.140 -0.0045 -0.0215 -0.6246
   7323SM   O11 9539   5.221   1.759  10.996  0.8422  0.4301  0.5303
   7323SM   O12 9540   5.128   1.759  11.228 -0.2187 -0.2468 -0.0253
   7323SM   C1S 9541   5.233   1.672  10.885 -0.0091 -0.0226 -0.6597
   7323SM   H1S 9542   5.211   1.570  10.922  0.5803 -0.1933 -0.7747
   7323SM   H1T 9543   5.338   1.676  10.849 -0.0775  0.6640 -0.7982
   7323SM    NF 9544   5.150   1.589  10.681 -0.5440  0.2172  0.4613
   7323SM   HNF 9545   5.204   1.598  10.598  1.9561 -0.5878  1.9075
   7323SM   C2S 9546   5.135   1.699  10.772  0.9974 -0.1217  0.3996
   7323SM   H2S 9547   5.029   1.694  10.805  0.8422  0.1647 -0.0558
   7323SM   C3S 9548   5.160   1.839  10.713  0.2290  0.0416 -1.1494
   7323SM   H3S 9549   5.259   1.832  10.663  0.4860 -3.6155 -0.4433
   7323SM    O3 9550   5.175   1.938  10.811 -0.1251  0.2019 -0.0567
   7323SM   HO3 9551   5.171   1.878  10.885 -3.2034  0.0643 -0.1892
   7323SM   C4S 9552   5.058   1.884  10.612  0.0475 -0.0145 -0.1328
   7323SM   H4S 9553   4.953   1.890  10.644  0.2097  0.2143  0.3651
   7323SM   C5S 9554   5.092   1.928  10.481 -0.8406 -0.8052 -0.3191
   7323SM   H5S 9555   5.198   1.942  10.454 -1.0166 -2.2022 -1.9405
   7323SM   C6S 9556   4.994   1.971  10.375  0.1140 -0.2467  0.2801
   7323SM   H6S 9557   5.033   2.069  10.339  2.6775 -1.1833  0.2693
   7323SM   H6T 9558   4.890   1.972  10.415 -0.0415  0.0303 -0.1224
   7323SM   C7S 9559   4.999   1.881  10.247 -0.1968 -0.5521  0.1384
   7323SM   H7S 9560   4.959   1.782  10.278 -1.0086 -0.2368  0.1421
   7323SM   H7T 9561   5.100   1.877  10.203 -0.2061  1.4514 -0.1480
   7323SM   C8S 9562   4.924   1.943  10.130 -0.1248  0.7420 -0.5796
   7323SM   H8S 9563   4.976   2.037  10.101  0.3570 -0.5627 -4.4774
   7323SM   H8T 9564   4.818   1.959  10.158  0.3348  3.2347 -0.0330
   7323SM   C9S 9565   4.933   1.840  10.013 -0.4225 -0.5079  0.0530
   7323SM   H9S 9566   4.878   1.749  10.044 -0.2825 -0.5359  0.2183
   7323SM   H9T 9567   5.038   1.811   9.993  0.4219  1.7985  0.8534
   7323SM  C10S 9568   4.863   1.882   9.880 -0.7589 -0.1982  0.1936
   7323SM  H10S 9569   4.891   1.988   9.863 -1.0181 -0.0232  0.8306
   7323SM  H10T 9570   4.755   1.882   9.908 -0.7188  0.4362  0.3485
   7323SM  C11S 9571   4.900   1.795   9.759  0.3591  0.0261 -0.2814
   7323SM  H11S 9572   4.885   1.688   9.783  0.5468 -0.4269 -2.0048
   7323SM  H11T 9573   5.008   1.821   9.746  0.7951 -1.9916 -1.0627
   7323SM  C12S 9574   4.827   1.834   9.634  0.3372  0.5926 -0.3723
   7323SM  H12S 9575   4.811   1.944   9.622 -2.5624  0.0606 -2.7072
   7323SM  H12T 9576   4.721   1.801   9.635  0.5138  0.0373  0.1778
   7323SM  C13S 9577   4.900   1.782   9.510  0.6415 -0.2055  0.1276
   7323SM  H13S 9578   4.913   1.671   9.507  1.5177 -0.0923 -1.4599
   7323SM  H13T 9579   5.002   1.826   9.516  0.3398  0.3453  1.4813
   7323SM  C14S 9580   4.841   1.842   9.382  0.0334  0.3434 -0.1594
   7323SM  H14S 9581   4.920   1.860   9.307  0.2801  2.8414  0.6217
   7323SM  H14T 9582   4.778   1.931   9.400 -0.9164 -0.4635  0.6658
   7323SM  C15S 9583   4.745   1.735   9.320 -0.7395 -0.3528  0.8639
   7323SM  H15S 9584   4.674   1.703   9.400  1.3181 -1.7663  2.2160
   7323SM  H15T 9585   4.803   1.643   9.295 -0.3789 -0.1040  0.7892
   7323SM  C16S 9586   4.654   1.790   9.206 -0.3083  0.3568  0.1421
   7323SM  H16S 9587   4.715   1.827   9.120 -1.2227  0.9724 -0.2490
   7323SM  H16T 9588   4.593   1.877   9.239 -1.2416 -0.4910  0.7116
   7323SM  C17S 9589   4.559   1.685   9.145  1.2535  0.6349  0.0793
   7323SM  H17S 9590   4.503   1.639   9.229 -1.4815 -1.1913 -2.5018
   7323SM  H17T 9591   4.620   1.609   9.093  0.8967  0.1919  0.3003
   7323SM  C18S 9592   4.464   1.735   9.049  0.0443 -0.6087 -0.2658
   7323SM  H18S 9593   4.386   1.660   9.023 -0.3372 -1.0685  1.9497
   7323SM  H18T 9594   4.509   1.774   8.956 -0.7239  0.4627 -0.2107
   7323SM  H18U 9595   4.408   1.821   9.092  0.8949  0.7136 -1.7077
   7323SM   C1F 9596   5.102   1.467  10.697  0.5072 -0.2593  0.1008
   7323SM    OF 9597   5.048   1.430  10.805  0.7700 -0.2577  0.5615
   7323SM   C2F 9598   5.123   1.374  10.584 -0.2016  0.4102  0.4779
   7323SM   H2F 9599   5.188   1.425  10.509  1.3889  0.7597  2.0120
   7323SM   H2G 9600   5.029   1.350  10.531 -1.3263 -1.0844  3.0080
   7323SM   C3F 9601   5.189   1.237  10.618  0.4888 -0.0048  0.0601
   7323SM   H3F 9602   5.158   1.198  10.717 -1.6560  2.3867  0.4247
   7323SM   H3G 9603   5.300   1.241  10.621  0.5926 -2.2345  1.5437
   7323SM   C4F 9604   5.158   1.130  10.516  0.6002 -0.1421  0.0799
   7323SM   H4F 9605   5.188   1.175  10.419 -2.2535  1.8855  0.0308
   7323SM   H4G 9606   5.048   1.127  10.505  0.6704  0.1092 -0.7460
   7323SM   C5F 9607   5.221   0.989  10.533  0.1250 -0.6191 -0.2430
   7323SM   H5F 9608   5.171   0.957  10.626  1.1244  1.5910  1.1616
   7323SM   H5G 9609   5.332   0.993  10.541  0.4341 -2.3362 -2.6357
   7323SM   C6F 9610   5.187   0.900  10.418  0.3077 -0.4097 -0.2907
   7323SM   H6F 9611   5.079   0.895  10.392  0.3170  0.4823 -0.5141
   7323SM   H6G 9612   5.212   0.795  10.445  0.1672 -0.5389 -0.6521
   7323SM   C7F 9613   5.251   0.941  10.282 -0.0750  0.2475 -0.2031
   7323SM   H7F 9614   5.362   0.932  10.287  0.0607  1.0061 -1.4705
   7323SM   H7G 9615   5.230   1.048  10.262  1.8296  1.0800  1.8075
   7323SM   C8F 9616   5.213   0.836  10.175 -0.2579 -0.3683 -0.5383
   7323SM   H8F 9617   5.130   0.785  10.230 -0.8491  3.3740  2.4808
   7323SM   H8G 9618   5.301   0.774  10.148 -0.5736 -2.0640  1.9231
   7323SM   C9F 9619   5.153   0.898  10.048  0.9463 -0.3349 -0.1724
   7323SM   H9F 9620   5.232   0.937   9.980 -0.1686  0.5077 -1.0260
   7323SM   H9G 9621   5.086   0.985  10.067 -0.6302 -1.3530 -0.8828
   7323SM  C10F 9622   5.078   0.794   9.960  0.1493 -0.0994  0.2597
   7323SM  H10F 9623   4.996   0.758  10.026 -0.3847  1.1371  0.2836
   7323SM  H10G 9624   5.150   0.717   9.925 -0.3884 -0.3666 -0.2828
   7323SM  C11F 9625   5.019   0.859   9.835 -0.6355  0.1163 -0.3201
   7323SM  H11F 9626   5.103   0.914   9.788  0.5535 -1.3425  0.0395
   7323SM  H11G 9627   4.941   0.923   9.881  1.3601 -1.1433  5.6899
   7323SM  C12F 9628   4.961   0.766   9.728 -0.0805 -0.2324 -0.2230
   7323SM  H12F 9629   4.885   0.704   9.780  1.3603 -0.8148  1.2778
   7323SM  H12G 9630   5.046   0.709   9.685 -1.0283 -0.9560 -1.1982
   7323SM  C13F 9631   4.882   0.846   9.619 -0.2185 -0.6969  0.1960
   7323SM  H13F 9632   4.943   0.930   9.579 -0.4745 -0.9295 -0.6856
   7323SM  H13G 9633   4.786   0.878   9.665  0.7591  0.0407  1.8071
   7323SM  C14F 9634   4.843   0.741   9.517  0.5051  0.7286  0.2410
   7323SM  H14F 9635   4.765   0.671   9.552  0.2086  0.2169 -1.3776
   7323SM  H14G 9636   4.925   0.670   9.494 -0.9727 -0.7778 -0.5763
   7323SM  C15F 9637   4.795   0.803   9.379  0.8852  0.1228  0.1502
   7323SM  H15F 9638   4.886   0.832   9.323 -0.1344  0.3090 -1.4805
   7323SM  H15G 9639   4.725   0.882   9.411  0.2350 -1.1820  2.1687
   7323SM  C16F 9640   4.732   0.701   9.285 -0.3938 -1.0710  0.4008
   7323SM  H16F 9641   4.754   0.736   9.182 -3.8554 -0.1573 -0.1735
   7323SM  H16G 9642   4.623   0.690   9.304 -1.0908  0.3333 -2.1971
   7323SM  C17F 9643   4.803   0.564   9.283  0.1072 -0.9246  0.3135
   7323SM  H17F 9644   4.766   0.510   9.373 -1.2576  1.9066  1.5588
   7323SM  H17G 9645   4.909   0.577   9.315 -0.4066 -1.8166  2.6007
   7323SM  C18F 9646   4.781   0.481   9.158  0.2648 -0.0894  0.5016
   7323SM  H18F 9647   4.810   0.537   9.066 -1.3807  1.1366  0.6717
   7323SM  H18G 9648   4.672   0.462   9.146  0.3979 -0.4027 -0.2339
   7323SM  C19F 9649   4.847   0.338   9.162 -0.1290 -0.0253 -0.3798
   7323SM  H19F 9650   4.812   0.291   9.257 -0.0999 -0.2233 -0.4660
   7323SM  H19G 9651   4.956   0.349   9.176 -0.1094 -1.1685  0.5488
   7323SM  C20F 9652   4.804   0.250   9.047  0.8590 -0.2165  1.1404
   7323SM  H20F 9653   4.801   0.312   8.955  0.1746  2.0885  2.6169
   7323SM  H20G 9654   4.700   0.221   9.072  0.6972 -0.6917 -0.0601
   7323SM  C21F 9655   4.889   0.126   9.025 -0.5165  0.6037 -0.4196
   7323SM  H21F 9656   4.878   0.057   9.112  0.9474 -0.2502 -0.8818
   7323SM  H21G 9657   4.996   0.154   9.018 -0.4829  0.5081 -0.2996
   7323SM  C22F 9658   4.853   0.050   8.898  0.0478 -0.0170 -0.6179
   7323SM  H22F 9659   4.935  -0.017   8.867 -0.3349 -0.1743 -1.3196
   7323SM  H22G 9660   4.848   0.125   8.816  0.1281  1.7383  0.9237
   7323SM  C23F 9661   4.729  -0.027   8.914 -0.2337 -0.8205 -0.3218
   7323SM  H23F 9662   4.741  -0.085   9.008  0.6226  1.4824  1.0991
   7323SM  H23G 9663   4.702  -0.083   8.822 -1.0426 -0.3348 -0.3885
   7323SM  H23H 9664   4.647   0.045   8.931 -0.1012 -0.7443  0.0080
   7423SM     N 9665   0.241   3.603  11.595  0.0086  0.2845 -0.0567
   7423SM   C15 9666   0.131   3.514  11.645  0.2998  0.1391 -0.4175
   7423SM  H15A 9667   0.029   3.551  11.645 -1.0472 -3.2382  0.0420
   7423SM  H15B 9668   0.157   3.485  11.746  1.6945  1.5691 -0.3256
   7423SM  H15C 9669   0.139   3.431  11.577  2.2548  0.4509 -0.6138
   7423SM   C14 9670   0.224   3.740  11.639 -0.6833 -0.0692  0.1605
   7423SM  H14A 9671   0.313   3.794  11.611  0.3162 -0.5411  2.2442
   7423SM  H14B 9672   0.239   3.743  11.746  0.5456  2.5163  0.0049
   7423SM  H14C 9673   0.129   3.785  11.614  0.0405  0.3501 -2.0506
   7423SM   C13 9674   0.380   3.556  11.626  0.1326 -0.3672  0.4038
   7423SM  H13A 9675   0.393   3.571  11.732 -1.3325 -0.0105  0.5613
   7423SM  H13B 9676   0.453   3.621  11.582 -1.0280  1.2375  0.7541
   7423SM  H13C 9677   0.394   3.456  11.586  0.0260  0.5072 -1.9837
   7423SM   C12 9678   0.235   3.609  11.443  0.0851  0.1241  0.2803
   7423SM  H12A 9679   0.307   3.683  11.410 -1.0458  1.0146 -0.2539
   7423SM  H12B 9680   0.141   3.656  11.419 -0.2010  0.6737  2.2659
   7423SM   C11 9681   0.263   3.481  11.366 -0.3763 -0.0849 -0.2918
   7423SM  H11A 9682   0.352   3.423  11.396 -0.4652 -1.0219 -1.7321
   7423SM  H11B 9683   0.283   3.509  11.260  3.4109 -0.7016  0.1149
   7423SM     P 9684   0.040   3.372  11.283  0.1278  0.0450  0.1819
   7423SM   O13 9685  -0.033   3.238  11.299  0.2161  0.4909  0.1009
   7423SM   O14 9686  -0.045   3.493  11.295 -0.0432  0.1946 -0.3529
   7423SM   O11 9687   0.117   3.376  11.147  0.4505 -0.1036  0.0626
   7423SM   O12 9688   0.156   3.382  11.384 -0.2831  0.1646 -0.3970
   7423SM   C1S 9689   0.032   3.369  11.030 -0.2557  0.1582 -0.3725
   7423SM   H1S 9690  -0.041   3.454  11.027 -1.6960 -1.0612 -2.4923
   7423SM   H1T 9691  -0.017   3.272  11.011 -2.6861  1.3757 -0.7337
   7423SM    NF 9692   0.027   3.396  10.789  0.4599 -0.0468  0.0531
   7423SM   HNF 9693   0.001   3.311  10.744 -2.1049  0.7335 -0.0745
   7423SM   C2S 9694   0.121   3.385  10.900  0.2531  0.1252  0.2218
   7423SM   H2S 9695   0.175   3.483  10.902 -2.4879  1.7474 -0.6720
   7423SM   C3S 9696   0.226   3.271  10.900 -1.1676 -0.1633  0.3764
   7423SM   H3S 9697   0.173   3.175  10.912  3.4290 -2.7747  2.6972
   7423SM    O3 9698   0.309   3.263  11.016 -0.2247 -0.0917  0.3460
   7423SM   HO3 9699   0.257   3.308  11.083 -2.3996 -0.0104 -1.3055
   7423SM   C4S 9700   0.301   3.259  10.767  0.2189 -0.0608  0.0190
   7423SM   H4S 9701   0.224   3.227  10.695  1.3608  0.2072 -1.3681
   7423SM   C5S 9702   0.432   3.256  10.734  0.1145 -0.2431 -0.3508
   7423SM   H5S 9703   0.510   3.266  10.811  0.7698  1.2705 -1.1768
   7423SM   C6S 9704   0.494   3.218  10.602 -0.0750  0.8032  0.4544
   7423SM   H6S 9705   0.528   3.113  10.612 -1.2046  0.3840 -0.0095
   7423SM   H6T 9706   0.580   3.289  10.591  0.0298  0.3919 -1.8403
   7423SM   C7S 9707   0.404   3.229  10.482 -0.2620  0.0745  0.9062
   7423SM   H7S 9708   0.345   3.323  10.483 -2.2401 -0.8850 -3.2347
   7423SM   H7T 9709   0.334   3.143  10.473  1.9181 -1.9544  2.1206
   7423SM   C8S 9710   0.479   3.229  10.349  0.4205  0.0776 -0.1219
   7423SM   H8S 9711   0.537   3.136  10.365 -2.3051 -1.7310 -0.1355
   7423SM   H8T 9712   0.548   3.316  10.353 -1.4372  1.7224 -1.3459
   7423SM   C9S 9713   0.391   3.232  10.233  0.0060 -0.0075  0.3212
   7423SM   H9S 9714   0.326   3.321  10.247 -3.0025 -2.2676  1.7729
   7423SM   H9T 9715   0.325   3.143  10.227  0.5206 -0.3447 -0.6480
   7423SM  C10S 9716   0.470   3.248  10.104 -0.5361 -0.3776  0.2430
   7423SM  H10S 9717   0.533   3.160  10.081 -0.9490 -0.0755 -2.3180
   7423SM  H10T 9718   0.540   3.334  10.107 -2.3049  1.1127  2.0111
   7423SM  C11S 9719   0.379   3.266   9.977 -0.4021  0.3623  0.2032
   7423SM  H11S 9720   0.350   3.373   9.974 -2.4507 -0.1793 -2.2135
   7423SM  H11T 9721   0.293   3.195   9.976 -1.1722  1.2767 -0.3268
   7423SM  C12S 9722   0.455   3.236   9.849 -0.2974 -0.5884 -0.3268
   7423SM  H12S 9723   0.483   3.129   9.841 -1.4479 -0.9848  0.6086
   7423SM  H12T 9724   0.548   3.296   9.841 -1.3536  1.3661  0.9850
   7423SM  C13S 9725   0.370   3.267   9.727 -0.5684  0.0500  0.6602
   7423SM  H13S 9726   0.359   3.377   9.735 -1.4779 -0.0236  0.5318
   7423SM  H13T 9727   0.264   3.235   9.738  0.2780 -2.5098  2.3017
   7423SM  C14S 9728   0.416   3.227   9.585  0.9437  0.1256 -0.3868
   7423SM  H14S 9729   0.478   3.138   9.608  0.2789  0.3336  2.6668
   7423SM  H14T 9730   0.487   3.295   9.533  0.1732  1.1970 -0.0867
   7423SM  C15S 9731   0.296   3.211   9.494  0.2317  0.0043 -0.4679
   7423SM  H15S 9732   0.225   3.294   9.512  1.3529  1.5615 -2.7975
   7423SM  H15T 9733   0.240   3.121   9.526  0.5517  0.5361  1.8159
   7423SM  C16S 9734   0.330   3.203   9.343  0.5870  0.3186  0.3115
   7423SM  H16S 9735   0.410   3.128   9.324 -0.8709 -1.6754  1.6914
   7423SM  H16T 9736   0.361   3.308   9.326  1.8231 -0.0131  0.4251
   7423SM  C17S 9737   0.211   3.165   9.252  0.7035  0.2982  0.0872
   7423SM  H17S 9738   0.246   3.171   9.147  3.3592 -0.2640  0.8811
   7423SM  H17T 9739   0.135   3.247   9.254 -1.0363 -1.2083 -0.7493
   7423SM  C18S 9740   0.139   3.033   9.287 -0.5379  0.5573 -0.2544
   7423SM  H18S 9741   0.210   2.948   9.300 -0.1600  1.1214  1.7713
   7423SM  H18T 9742   0.068   2.996   9.210 -1.4857 -0.0329  0.8846
   7423SM  H18U 9743   0.075   3.048   9.376  0.1118  2.2691 -0.0401
   7423SM   C1F 9744  -0.043   3.505  10.766  0.1465  0.4831  0.3127
   7423SM    OF 9745  -0.017   3.602  10.836 -0.3466  0.1986 -0.1763
   7423SM   C2F 9746  -0.151   3.512  10.666  0.7842 -0.0101  0.5098
   7423SM   H2F 9747  -0.228   3.443  10.705 -0.5535  0.6810 -0.8141
   7423SM   H2G 9748  -0.110   3.479  10.568 -2.1698 -1.0978 -0.4595
   7423SM   C3F 9749  -0.213   3.652  10.654 -0.1585 -0.0625 -0.0315
   7423SM   H3F 9750  -0.127   3.719  10.631 -0.0992  0.1523  0.8059
   7423SM   H3G 9751  -0.255   3.689  10.749 -0.4630  0.6393 -0.4306
   7423SM   C4F 9752  -0.338   3.673  10.570 -0.2308 -0.2822  0.1816
   7423SM   H4F 9753  -0.379   3.776  10.576 -2.0185 -0.9463 -0.0042
   7423SM   H4G 9754  -0.426   3.626  10.620 -1.5575  1.1980 -0.6498
   7423SM   C5F 9755  -0.329   3.637  10.419 -0.4430 -0.4042  0.0259
   7423SM   H5F 9756  -0.406   3.689  10.358  0.0705 -1.0153 -1.1730
   7423SM   H5G 9757  -0.357   3.530  10.409 -0.4007 -0.4725  0.5909
   7423SM   C6F 9758  -0.185   3.670  10.365  0.3377  0.1647 -0.5246
   7423SM   H6F 9759  -0.116   3.588  10.394 -0.6642  0.1221  1.9623
   7423SM   H6G 9760  -0.149   3.770  10.397  2.3263 -0.1036 -1.7455
   7423SM   C7F 9761  -0.159   3.685  10.215 -0.3271 -0.6971  0.2062
   7423SM   H7F 9762  -0.169   3.583  10.172 -1.4157 -0.1451 -0.8801
   7423SM   H7G 9763  -0.060   3.732  10.192 -0.8208  0.3030  0.0676
   7423SM   C8F 9764  -0.267   3.767  10.142 -0.0241 -0.2824  0.1028
   7423SM   H8F 9765  -0.271   3.874  10.171  2.3313 -0.2819  0.5713
   7423SM   H8G 9766  -0.369   3.732  10.170 -0.4916  1.3580  0.5473
   7423SM   C9F 9767  -0.238   3.761   9.993 -0.1597  0.1362 -0.7510
   7423SM   H9F 9768  -0.300   3.676   9.959  0.4082 -0.5915 -0.0127
   7423SM   H9G 9769  -0.134   3.757   9.954 -0.5506  0.6822 -1.9051
   7423SM  C10F 9770  -0.292   3.886   9.929 -0.2621 -1.1566  0.2612
   7423SM  H10F 9771  -0.229   3.977   9.941  0.3184 -1.7610  2.2745
   7423SM  H10G 9772  -0.391   3.912   9.972 -0.8167  0.2202 -1.6998
   7423SM  C11F 9773  -0.322   3.864   9.776 -0.1550  0.1102  0.0388
   7423SM  H11F 9774  -0.375   3.768   9.759  2.5201 -1.4465 -0.1818
   7423SM  H11G 9775  -0.222   3.843   9.730 -0.5248  0.1947 -0.8336
   7423SM  C12F 9776  -0.404   3.966   9.707  0.6609  0.7801  0.2582
   7423SM  H12F 9777  -0.350   4.063   9.712  2.3879 -0.1225  0.1552
   7423SM  H12G 9778  -0.501   3.972   9.760  0.2363 -0.9473 -0.2404
   7423SM  C13F 9779  -0.421   3.926   9.560  0.0625 -0.0142 -0.3412
   7423SM  H13F 9780  -0.447   3.819   9.544  0.3989 -0.1366 -0.0909
   7423SM  H13G 9781  -0.322   3.939   9.513 -0.0840 -0.8960 -0.9265
   7423SM  C14F 9782  -0.532   3.993   9.478  0.0297  0.0867  0.3704
   7423SM  H14F 9783  -0.528   4.104   9.486  2.8264  0.0565  0.5652
   7423SM  H14G 9784  -0.628   3.968   9.528  0.8715  1.3969  2.8466
   7423SM  C15F 9785  -0.532   3.952   9.332 -0.2058 -0.1120  0.6860
   7423SM  H15F 9786  -0.499   3.847   9.321  1.0575  0.1866  1.4369
   7423SM  H15G 9787  -0.463   4.019   9.276  0.1900 -0.2197  1.0447
   7423SM  C16F 9788  -0.668   3.961   9.261  0.2286 -0.1624  0.1824
   7423SM  H16F 9789  -0.722   4.058   9.259 -0.7530 -0.6891 -2.2334
   7423SM  H16G 9790  -0.741   3.899   9.316 -1.2300 -0.5199 -2.0772
   7423SM  C17F 9791  -0.651   3.913   9.120 -0.1067 -0.2871 -0.5235
   7423SM  H17F 9792  -0.632   3.804   9.116  0.1234 -0.2493 -0.4608
   7423SM  H17G 9793  -0.567   3.972   9.078 -1.4627  2.4454  0.3156
   7423SM  C18F 9794  -0.772   3.933   9.027  0.3695  0.3376  0.7217
   7423SM  H18F 9795  -0.862   3.900   9.083  0.2633 -0.8077 -0.0984
   7423SM  H18G 9796  -0.770   3.846   8.957 -2.0930  0.6805  0.1167
   7423SM  C19F 9797  -0.782   4.072   8.948 -0.0829  0.2626  0.2349
   7423SM  H19F 9798  -0.736   4.058   8.848 -0.7703 -2.6058  0.2370
   7423SM  H19G 9799  -0.715   4.138   9.007 -0.9088  0.1722  1.3009
   7423SM  C20F 9800  -0.924   4.132   8.950 -0.6507 -0.5783 -0.1388
   7423SM  H20F 9801  -0.936   4.235   8.910 -0.0490 -0.6812 -0.5856
   7423SM  H20G 9802  -0.948   4.128   9.058  0.7754  0.2102  0.2279
   7423SM  C21F 9803  -1.018   4.047   8.861  0.1004 -0.6003 -0.5489
   7423SM  H21F 9804  -1.020   3.951   8.918  1.1441  0.8232  2.0710
   7423SM  H21G 9805  -0.982   4.029   8.758  1.5439 -1.4922  0.0706
   7423SM  C22F 9806  -1.167   4.104   8.868 -0.3559  0.1949 -0.1078
   7423SM  H22F 9807  -1.230   4.013   8.867  2.4898 -1.9625 -2.2304
   7423SM  H22G 9808  -1.189   4.151   8.769  0.7139 -1.5435 -1.2322
   7423SM  C23F 9809  -1.212   4.208   8.978  0.9519  0.4055 -0.0071
   7423SM  H23F 9810  -1.147   4.298   8.987  0.8726  0.6029 -1.2319
   7423SM  H23G 9811  -1.221   4.162   9.079  1.0304  0.2111 -0.0897
   7423SM  H23H 9812  -1.317   4.238   8.961  0.7809 -1.2453 -2.4214
   7523SM     N 9813   7.561   5.268  11.137  0.2624 -0.4049 -0.6350
   7523SM   C15 9814   7.418   5.240  11.158 -0.1384 -0.2308  0.0437
   7523SM  H15A 9815   7.368   5.326  11.199  0.7395 -0.3323  1.4105
   7523SM  H15B 9816   7.399   5.152  11.218  0.1036 -0.0279  0.4243
   7523SM  H15C 9817   7.374   5.212  11.063  0.3013  0.2267 -0.2992
   7523SM   C14 9818   7.624   5.254  11.273 -0.1607  0.4443 -0.2929
   7523SM  H14A 9819   7.730   5.260  11.254 -0.1566 -0.5434 -0.5829
   7523SM  H14B 9820   7.610   5.155  11.313 -0.2458  0.2223 -0.8718
   7523SM  H14C 9821   7.599   5.329  11.348 -0.7231 -0.8470  0.8606
   7523SM   C13 9822   7.617   5.158  11.045  0.5822  0.3806  0.2703
   7523SM  H13A 9823   7.553   5.157  10.958 -1.3847 -1.8931  1.6082
   7523SM  H13B 9824   7.615   5.061  11.094  1.4925 -0.6012 -1.5199
   7523SM  H13C 9825   7.718   5.178  11.014 -0.8133  1.6294 -4.1550
   7523SM   C12 9826   7.591   5.406  11.073  0.7960  0.0156 -0.1910
   7523SM  H12A 9827   7.695   5.416  11.045  0.5363  1.3867 -0.7213
   7523SM  H12B 9828   7.560   5.488  11.136 -2.1385 -0.8255 -0.3867
   7523SM   C11 9829   7.506   5.443  10.943  0.0683  0.0759  0.4206
   7523SM  H11A 9830   7.516   5.353  10.878 -0.9924 -0.8480  1.4789
   7523SM  H11B 9831   7.548   5.532  10.892 -0.2783 -0.6010 -1.1117
   7523SM     P 9832   7.286   5.525  10.872  0.4395  0.4982 -0.0160
   7523SM   O13 9833   7.145   5.481  10.912  0.0838 -0.4417  0.1585
   7523SM   O14 9834   7.319   5.669  10.852  0.2214  0.3675  0.1233
   7523SM   O11 9835   7.338   5.435  10.744 -0.4938  0.0305  0.7110
   7523SM   O12 9836   7.379   5.474  10.992  0.4990 -0.0802 -0.4675
   7523SM   C1S 9837   7.260   5.449  10.626  0.8853 -0.4170 -0.4215
   7523SM   H1S 9838   7.218   5.551  10.617  1.5241  0.4162  3.7290
   7523SM   H1T 9839   7.172   5.383  10.646  1.1573 -0.3904  0.9366
   7523SM    NF 9840   7.233   5.428  10.387 -0.2806  0.0317 -0.6502
   7523SM   HNF 9841   7.186   5.347  10.352  1.2107 -2.2994  2.3121
   7523SM   C2S 9842   7.327   5.407  10.495  0.5932  0.4201  0.1966
   7523SM   H2S 9843   7.420   5.467  10.488  0.2799  0.8399 -0.4327
   7523SM   C3S 9844   7.370   5.255  10.513  0.2552  0.0336  0.4446
   7523SM   H3S 9845   7.273   5.209  10.544 -0.3369 -0.6169 -2.1690
   7523SM    O3 9846   7.471   5.231  10.615  0.2410  0.1801  0.0467
   7523SM   HO3 9847   7.476   5.313  10.665 -0.4303  1.0022 -1.1693
   7523SM   C4S 9848   7.422   5.196  10.388 -0.0801  0.3237 -0.1425
   7523SM   H4S 9849   7.475   5.266  10.321 -0.8644  0.8032 -0.2745
   7523SM   C5S 9850   7.414   5.066  10.362 -0.0338  0.4450 -0.1362
   7523SM   H5S 9851   7.368   4.996  10.434 -1.1857 -0.3100 -1.5473
   7523SM   C6S 9852   7.480   4.987  10.247 -0.3728  0.3761 -1.0132
   7523SM   H6S 9853   7.580   4.956  10.286 -1.6819  0.0127  2.4106
   7523SM   H6T 9854   7.500   5.053  10.160 -0.0682  1.8818  0.1421
   7523SM   C7S 9855   7.392   4.870  10.215 -0.3903 -0.1276  0.3740
   7523SM   H7S 9856   7.390   4.806  10.306  0.8029  2.1558  2.1157
   7523SM   H7T 9857   7.437   4.812  10.132 -1.5100 -1.3323  0.5790
   7523SM   C8S 9858   7.243   4.907  10.183 -0.4852  0.2204 -0.0063
   7523SM   H8S 9859   7.242   4.990  10.109  0.5552 -0.2608 -0.5903
   7523SM   H8T 9860   7.202   4.951  10.276  0.5225  0.4279  0.3523
   7523SM   C9S 9861   7.184   4.778  10.124  0.8425  0.5069 -0.1538
   7523SM   H9S 9862   7.206   4.693  10.192  0.5461  1.1744  0.8135
   7523SM   H9T 9863   7.216   4.752  10.021  0.5962 -1.9203  0.3312
   7523SM  C10S 9864   7.030   4.795  10.127  0.8855  0.6322  0.1502
   7523SM  H10S 9865   6.991   4.875  10.061  2.0028  2.0964  1.1913
   7523SM  H10T 9866   7.010   4.837  10.228 -1.4834  0.0125 -0.0104
   7523SM  C11S 9867   6.944   4.668  10.108 -0.4659 -0.3111 -0.8850
   7523SM  H11S 9868   6.853   4.677  10.171 -0.3548  0.3621 -0.8148
   7523SM  H11T 9869   7.011   4.591  10.153  1.5095  0.8834 -1.6176
   7523SM  C12S 9870   6.893   4.627   9.972  0.1948 -0.6310 -0.0149
   7523SM  H12S 9871   6.852   4.524   9.978 -1.0720 -0.1613 -0.2164
   7523SM  H12T 9872   6.976   4.632   9.898 -1.1195  3.5439 -1.5389
   7523SM  C13S 9873   6.781   4.716   9.924 -0.5275  0.0462  0.0066
   7523SM  H13S 9874   6.820   4.814   9.889 -1.0167  1.5560  3.3034
   7523SM  H13T 9875   6.722   4.730  10.017  0.9002 -1.0678  1.1411
   7523SM  C14S 9876   6.694   4.653   9.827  0.3733  0.6797 -0.1507
   7523SM  H14S 9877   6.603   4.713   9.806 -1.1346 -2.2277 -2.7566
   7523SM  H14T 9878   6.669   4.551   9.865 -4.2284  1.6920  0.0719
   7523SM  C15S 9879   6.763   4.642   9.691  0.2077 -0.0423  0.7139
   7523SM  H15S 9880   6.857   4.586   9.710  1.4420  2.1804  1.5193
   7523SM  H15T 9881   6.801   4.743   9.664  1.2626 -0.4694  0.5302
   7523SM  C16S 9882   6.684   4.584   9.572  0.2214  0.3860  0.1570
   7523SM  H16S 9883   6.605   4.514   9.606  0.6346  0.5082  1.4401
   7523SM  H16T 9884   6.754   4.533   9.502  0.1190 -1.2746  1.2102
   7523SM  C17S 9885   6.612   4.680   9.484  0.1184  0.4762  0.2078
   7523SM  H17S 9886   6.553   4.745   9.553  4.1311  3.1978  1.5055
   7523SM  H17T 9887   6.529   4.631   9.429  0.1972  0.5651  0.0096
   7523SM  C18S 9888   6.693   4.751   9.375  0.3587  0.7349  0.1590
   7523SM  H18S 9889   6.622   4.816   9.320 -1.1362 -1.4745 -0.6708
   7523SM  H18T 9890   6.752   4.687   9.306  0.1090  0.4247  0.2331
   7523SM  H18U 9891   6.767   4.814   9.428  0.4787  2.1392 -1.5925
   7523SM   C1F 9892   7.195   5.551  10.345  0.1112  0.1617 -0.4094
   7523SM    OF 9893   7.255   5.650  10.380  0.0645  0.5696 -0.1888
   7523SM   C2F 9894   7.077   5.563  10.255 -0.0762  0.7546  0.0411
   7523SM   H2F 9895   7.021   5.467  10.267  2.1346 -0.4400  1.6381
   7523SM   H2G 9896   7.117   5.569  10.152 -2.8871  2.2995 -1.0693
   7523SM   C3F 9897   6.984   5.676  10.275 -0.2414  0.2972  0.5715
   7523SM   H3F 9898   7.042   5.767  10.248  1.7962 -1.5059 -1.5176
   7523SM   H3G 9899   6.952   5.698  10.379 -0.9951  0.1380  0.3822
   7523SM   C4F 9900   6.866   5.661  10.181  0.9460  0.0523 -0.1958
   7523SM   H4F 9901   6.788   5.738  10.199  0.9257  0.2751 -1.1913
   7523SM   H4G 9902   6.811   5.567  10.204 -1.8278  1.3193 -1.1208
   7523SM   C5F 9903   6.908   5.650  10.030  0.8565  0.3478 -0.1272
   7523SM   H5F 9904   6.812   5.657   9.975  1.4001 -0.2232 -1.1667
   7523SM   H5G 9905   6.950   5.549  10.008  1.8316  1.3352 -3.3688
   7523SM   C6F 9906   7.001   5.761   9.982  0.0998  0.8878  0.2909
   7523SM   H6F 9907   7.093   5.759  10.044  0.0608  3.0729  0.5070
   7523SM   H6G 9908   6.956   5.862   9.992  0.2952  1.0007  0.0438
   7523SM   C7F 9909   7.040   5.733   9.835 -0.1672  0.3075  0.1900
   7523SM   H7F 9910   6.945   5.717   9.779  0.5691  0.1227 -1.0380
   7523SM   H7G 9911   7.103   5.642   9.823  1.2444  1.4923 -2.2629
   7523SM   C8F 9912   7.109   5.861   9.780 -0.1739 -0.1656 -0.0627
   7523SM   H8F 9913   7.206   5.882   9.829  0.3880  0.5980 -1.4325
   7523SM   H8G 9914   7.038   5.945   9.796  0.0605  0.2554 -1.1246
   7523SM   C9F 9915   7.142   5.864   9.627 -0.1732  0.1833  0.4945
   7523SM   H9F 9916   7.138   5.968   9.587  2.2672  0.4471  0.7837
   7523SM   H9G 9917   7.058   5.814   9.574  1.4237 -1.8919 -0.2127
   7523SM  C10F 9918   7.272   5.800   9.588 -1.0761  0.1044  0.3758
   7523SM  H10F 9919   7.259   5.739   9.496 -3.0187  0.7004  0.2170
   7523SM  H10G 9920   7.306   5.731   9.669  1.6741  1.2555  0.3163
   7523SM  C11F 9921   7.384   5.907   9.546 -0.0790  0.5786  0.4955
   7523SM  H11F 9922   7.381   5.972   9.636 -1.5150  0.7586  0.3416
   7523SM  H11G 9923   7.353   5.976   9.465 -0.5169 -0.2500 -0.0546
   7523SM  C12F 9924   7.524   5.851   9.517 -0.4139 -0.5590 -0.0959
   7523SM  H12F 9925   7.528   5.811   9.413  1.2775 -0.8926  0.0647
   7523SM  H12G 9926   7.548   5.765   9.583  1.9842 -0.8400 -1.2256
   7523SM  C13F 9927   7.641   5.948   9.540 -0.4752 -0.0239  0.3669
   7523SM  H13F 9928   7.611   6.045   9.495  0.8725  1.3369  2.2660
   7523SM  H13G 9929   7.734   5.915   9.489 -1.1199  0.6334 -1.2712
   7523SM  C14F 9930   7.679   5.956   9.687 -0.2346  0.0821  0.9654
   7523SM  H14F 9931   7.705   5.855   9.726 -1.3020 -0.8176 -0.5480
   7523SM  H14G 9932   7.600   6.007   9.746 -0.7190 -0.3508  0.7068
   7523SM  C15F 9933   7.806   6.051   9.698 -0.2158 -0.0164  0.5989
   7523SM  H15F 9934   7.785   6.154   9.663 -0.4458 -0.5603 -0.9165
   7523SM  H15G 9935   7.882   6.009   9.629 -0.9844 -1.3921  0.5487
   7523SM  C16F 9936   7.864   6.063   9.839 -0.3075  0.3545  0.0945
   7523SM  H16F 9937   7.886   5.958   9.867  1.2776  0.7288  0.3382
   7523SM  H16G 9938   7.773   6.091   9.895 -2.0639 -1.3598 -1.7337
   7523SM  C17F 9939   7.977   6.160   9.858 -0.3614 -0.2880 -0.2153
   7523SM  H17F 9940   7.954   6.256   9.808  0.7885 -0.3373 -0.8886
   7523SM  H17G 9941   8.064   6.133   9.793 -0.7114  3.1320 -2.3793
   7523SM  C18F 9942   8.015   6.170  10.003 -0.4643 -0.5059 -0.1689
   7523SM  H18F 9943   8.006   6.065  10.040 -0.3067 -0.1611  0.8807
   7523SM  H18G 9944   7.945   6.232  10.062 -0.7895  0.7130 -1.7744
   7523SM  C19F 9945   8.161   6.229  10.016  0.2035  0.4039  0.5853
   7523SM  H19F 9946   8.146   6.339  10.015 -1.2265  0.2537  1.8292
   7523SM  H19G 9947   8.223   6.201   9.928 -2.0165 -1.4123 -0.5357
   7523SM  C20F 9948   8.226   6.182  10.146 -0.3022 -0.1928 -0.4465
   7523SM  H20F 9949   8.237   6.071  10.145  2.4382 -0.0213 -2.6012
   7523SM  H20G 9950   8.161   6.221  10.227  0.2288  1.8451 -0.9418
   7523SM  C21F 9951   8.373   6.226  10.167 -0.3314  0.7981 -0.2916
   7523SM  H21F 9952   8.391   6.335  10.150  1.8481  0.6204  0.6799
   7523SM  H21G 9953   8.430   6.172  10.089 -2.4435 -0.5436 -0.9872
   7523SM  C22F 9954   8.418   6.193  10.309  0.4346  0.0958  0.5426
   7523SM  H22F 9955   8.380   6.090  10.326  1.1684 -0.2412  0.1839
   7523SM  H22G 9956   8.366   6.264  10.378  1.3016  1.3430 -0.0459
   7523SM  C23F 9957   8.568   6.214  10.320 -0.0884 -0.3865 -1.1207
   7523SM  H23F 9958   8.628   6.150  10.252  3.6915  2.1252 -0.4015
   7523SM  H23G 9959   8.609   6.210  10.423 -0.6136  5.5329 -0.3614
   7523SM  H23H 9960   8.594   6.321  10.310 -0.4086 -0.1858  0.0680
   7623SM     N 9961   0.489   4.209  11.302  0.5465  0.1429 -0.3794
   7623SM   C15 9962   0.557   4.314  11.228  0.4163 -0.3333  0.5786
   7623SM  H15A 9963   0.629   4.367  11.288  0.5406 -0.7450  0.7948
   7623SM  H15B 9964   0.481   4.384  11.195  1.0228 -0.0002 -0.1378
   7623SM  H15C 9965   0.607   4.269  11.143 -2.1257 -3.6586  0.6117
   7623SM   C14 9966   0.590   4.121  11.364  0.6097  0.4437 -0.3303
   7623SM  H14A 9967   0.640   4.065  11.286  2.9696  2.2723 -0.2225
   7623SM  H14B 9968   0.548   4.052  11.436  2.0857 -2.2336 -1.8370
   7623SM  H14C 9969   0.662   4.180  11.417 -0.5968  1.2515  0.4470
   7623SM   C13 9970   0.409   4.286  11.409 -0.4136  0.8363  0.0951
   7623SM  H13A 9971   0.362   4.211  11.470  0.1503 -0.0870 -0.5698
   7623SM  H13B 9972   0.328   4.347  11.369 -1.9600 -0.8974  0.4271
   7623SM  H13C 9973   0.470   4.349  11.471  0.6641  0.5449 -0.6439
   7623SM   C12 9974   0.389   4.139  11.209 -0.2369  0.5752 -0.9605
   7623SM  H12A 9975   0.308   4.204  11.177  0.2085  1.8442  0.3672
   7623SM  H12B 9976   0.334   4.064  11.264  1.0381 -1.2442 -2.0635
   7623SM   C11 9977   0.448   4.051  11.095 -0.3092 -0.2396  0.0304
   7623SM  H11A 9978   0.504   4.124  11.032  1.0513 -0.3257  1.0872
   7623SM  H11B 9979   0.362   4.020  11.033 -0.2565  3.3810 -2.1111
   7623SM     P 9980   0.488   3.821  11.202 -0.0603  0.1363  0.3172
   7623SM   O13 9981   0.602   3.742  11.244 -0.9525 -0.0018  0.7422
   7623SM   O14 9982   0.390   3.851  11.306 -0.0235  0.1802 -0.2912
   7623SM   O11 9983   0.413   3.729  11.093  0.2370 -0.2547  0.2993
   7623SM   O12 9984   0.539   3.946  11.126 -0.4629  0.2606  0.1839
   7623SM   C1S 9985   0.296   3.773  11.015 -0.0291  0.0980 -0.5174
   7623SM   H1S 9986   0.236   3.856  11.059 -2.0172 -2.2803  1.6660
   7623SM   H1T 9987   0.230   3.683  11.021  0.9730 -0.5779  1.5735
   7623SM    NF 9988   0.201   3.834  10.793  0.2854 -0.1975 -0.3611
   7623SM   HNF 9989   0.133   3.763  10.776  1.3285 -1.2594 -0.2034
   7623SM   C2S 9990   0.323   3.800  10.863 -0.7814  0.0367  0.2355
   7623SM   H2S 9991   0.386   3.891  10.855 -0.9751  0.0612 -1.3458
   7623SM   C3S 9992   0.409   3.686  10.800  0.0759  0.0778 -0.5288
   7623SM   H3S 9993   0.360   3.594  10.838 -0.8861  0.3850 -1.0138
   7623SM    O3 9994   0.544   3.693  10.838  0.4102  0.2909  0.0298
   7623SM   HO3 9995   0.546   3.773  10.891 -0.5919 -0.9341  2.0609
   7623SM   C4S 9996   0.402   3.687  10.646 -0.4247  0.7770 -0.4514
   7623SM   H4S 9997   0.456   3.770  10.599 -0.2272  1.7614  1.4131
   7623SM   C5S 9998   0.328   3.600  10.568 -0.5076 -0.6917  0.2926
   7623SM   H5S 9999   0.273   3.519  10.619  2.6102 -3.0037  0.3324
   7623SM   C6S10000   0.315   3.612  10.415  0.0851 -0.4392  0.6482
   7623SM   H6S10001   0.207   3.618  10.390  0.2811  0.5267 -0.0035
   7623SM   H6T10002   0.367   3.526  10.367 -0.5289  0.1744 -1.1977
   7623SM   C7S10003   0.370   3.731  10.338 -0.6223 -0.2517  0.2491
   7623SM   H7S10004   0.474   3.744  10.374 -1.0150 -0.7663  1.6314
   7623SM   H7T10005   0.307   3.822  10.336  1.2135  1.0723 -1.3385
   7623SM   C8S10006   0.377   3.694  10.188 -0.7920 -0.2255  0.3393
   7623SM   H8S10007   0.440   3.605  10.168 -3.4032 -2.2111  0.4996
   7623SM   H8T10008   0.422   3.781  10.135 -2.0025 -0.5000 -1.2058
   7623SM   C9S10009   0.250   3.652  10.120  0.7856  0.6031 -0.7726
   7623SM   H9S10010   0.166   3.714  10.158 -1.1610 -2.5930  0.6247
   7623SM   H9T10011   0.225   3.550  10.155 -0.4841  0.6333 -1.5497
   7623SM  C10S10012   0.249   3.648   9.968 -0.1671 -0.0863  0.7386
   7623SM  H10S10013   0.325   3.573   9.937 -1.7325 -0.6654 -2.1210
   7623SM  H10T10014   0.264   3.751   9.930  0.3722 -0.3859  0.1020
   7623SM  C11S10015   0.110   3.609   9.920  0.4698  0.1695  0.8171
   7623SM  H11S10016   0.040   3.679   9.970  1.1272 -0.6570  3.0063
   7623SM  H11T10017   0.088   3.507   9.957  1.1007  0.1879  1.2561
   7623SM  C12S10018   0.096   3.617   9.770  0.4914  0.0400  0.1433
   7623SM  H12S10019   0.170   3.551   9.720  0.4274  0.2304 -0.2065
   7623SM  H12T10020   0.120   3.721   9.741  0.8931 -0.1215 -0.1132
   7623SM  C13S10021  -0.039   3.565   9.724  0.2920 -0.1056  0.2403
   7623SM  H13S10022  -0.125   3.596   9.786  1.2400 -1.7581  2.5345
   7623SM  H13T10023  -0.026   3.455   9.721  1.6526 -0.0515  2.3415
   7623SM  C14S10024  -0.062   3.603   9.582 -0.4275 -0.0266  0.0799
   7623SM  H14S10025   0.020   3.574   9.513 -0.4136  3.0932 -1.4257
   7623SM  H14T10026  -0.069   3.714   9.571  0.4941  0.0704  0.3762
   7623SM  C15S10027  -0.191   3.543   9.519  0.0318 -1.2554 -0.5875
   7623SM  H15S10028  -0.279   3.599   9.556 -1.4320 -2.4670 -2.0912
   7623SM  H15T10029  -0.211   3.443   9.564 -1.5641 -0.9171 -0.5049
   7623SM  C16S10030  -0.199   3.548   9.365  0.2786 -0.3354  0.4375
   7623SM  H16S10031  -0.279   3.478   9.334 -0.3442  0.7015 -0.3780
   7623SM  H16T10032  -0.107   3.514   9.313 -1.0055 -0.0159 -2.2090
   7623SM  C17S10033  -0.227   3.691   9.317  0.2700 -0.5103 -0.9578
   7623SM  H17S10034  -0.153   3.769   9.345 -0.5372  1.3294 -3.5664
   7623SM  H17T10035  -0.316   3.733   9.368  2.2031  1.8647  0.6871
   7623SM  C18S10036  -0.237   3.706   9.164 -0.1456  0.0444  0.2086
   7623SM  H18S10037  -0.217   3.814   9.147  2.3772 -0.4085 -0.1153
   7623SM  H18T10038  -0.344   3.694   9.137 -0.6726  1.0956  1.7174
   7623SM  H18U10039  -0.164   3.649   9.103  1.1304  2.0361 -0.2060
   7623SM   C1F10040   0.150   3.957  10.799  0.2890 -0.4419  0.6999
   7623SM    OF10041   0.224   4.053  10.821 -0.2880  0.2193  0.6719
   7623SM   C2F10042   0.001   3.973  10.778  0.2288 -0.3688  0.3496
   7623SM   H2F10043  -0.047   4.016  10.869  0.2740  0.3399  0.0513
   7623SM   H2G10044  -0.049   3.875  10.773  1.5023 -1.1695  2.0618
   7623SM   C3F10045  -0.041   4.045  10.648 -0.5049 -0.3099 -0.5547
   7623SM   H3F10046  -0.013   4.152  10.656  1.5614 -0.8895  1.4424
   7623SM   H3G10047  -0.146   4.015  10.632 -0.7564 -1.8650  2.9893
   7623SM   C4F10048   0.032   4.000  10.513 -0.0915 -0.0363  0.1823
   7623SM   H4F10049   0.001   3.894  10.501 -2.2896  0.7307 -1.5385
   7623SM   H4G10050   0.142   4.014  10.523 -0.2971  1.4951  0.7318
   7623SM   C5F10051  -0.022   4.083  10.393  0.1815  0.7660 -0.6542
   7623SM   H5F10052   0.010   4.189  10.404 -1.4957  1.4286 -1.7684
   7623SM   H5G10053  -0.132   4.072  10.384  0.1335 -1.1544  1.3584
   7623SM   C6F10054   0.030   4.036  10.261  0.4498 -0.0377 -0.0442
   7623SM   H6F10055   0.011   3.926  10.255 -0.9167  0.1097  0.9559
   7623SM   H6G10056   0.141   4.037  10.268  0.4353 -1.4660  0.8799
   7623SM   C7F10057  -0.013   4.117  10.140  0.1222 -0.4447 -0.3616
   7623SM   H7F10058   0.026   4.221  10.144 -1.3998  0.1380  3.2366
   7623SM   H7G10059  -0.123   4.129  10.128  0.4303  1.9420 -1.2081
   7623SM   C8F10060   0.039   4.054  10.012 -0.5055 -0.3966  0.1150
   7623SM   H8F10061   0.005   3.950   9.991  0.1329 -0.6029  0.1035
   7623SM   H8G10062   0.149   4.049  10.004 -0.2246  0.0246  2.7199
   7623SM   C9F10063  -0.013   4.130   9.884 -0.1459  0.5033 -0.2211
   7623SM   H9F10064   0.045   4.224   9.889  1.6496 -0.3507 -2.9491
   7623SM   H9G10065  -0.122   4.146   9.900  0.1256  0.5830  1.9298
   7623SM  C10F10066   0.016   4.049   9.764 -0.4020 -0.2703  0.5298
   7623SM  H10F10067  -0.039   3.952   9.770 -0.7121 -0.0989  0.5092
   7623SM  H10G10068   0.123   4.026   9.749 -0.8619 -1.3187 -1.6178
   7623SM  C11F10069  -0.032   4.122   9.637 -0.5329  0.0561  0.4447
   7623SM  H11F10070   0.022   4.218   9.629  0.4049 -0.4802  0.1744
   7623SM  H11G10071  -0.140   4.146   9.648 -0.5411  0.7964 -1.0020
   7623SM  C12F10072  -0.007   4.046   9.508 -0.1625  0.9264  0.2094
   7623SM  H12F10073  -0.054   3.946   9.524  1.6147  0.1019  0.5090
   7623SM  H12G10074   0.097   4.022   9.478 -0.7843 -1.2130 -0.4529
   7623SM  C13F10075  -0.083   4.123   9.398  0.3942  0.8736 -0.2588
   7623SM  H13F10076  -0.035   4.222   9.382  0.7672  0.5464 -1.2245
   7623SM  H13G10077  -0.188   4.139   9.430  0.7853  3.2059  0.0516
   7623SM  C14F10078  -0.075   4.053   9.260 -0.5886  0.3758 -0.6521
   7623SM  H14F10079  -0.094   3.945   9.279 -1.1022  0.4546 -0.7061
   7623SM  H14G10080   0.030   4.065   9.225 -0.0246 -0.2721  0.7193
   7623SM  C15F10081  -0.181   4.094   9.151 -0.7535 -0.2123 -0.1011
   7623SM  H15F10082  -0.182   4.205   9.151 -0.5111 -0.1880  1.6007
   7623SM  H15G10083  -0.278   4.045   9.174 -0.3360 -0.0898  2.2234
   7623SM  C16F10084  -0.143   4.060   9.005  0.1353 -0.1489 -0.1039
   7623SM  H16F10085  -0.083   3.966   9.007 -0.2792 -0.4384 -0.7890
   7623SM  H16G10086  -0.095   4.148   8.957 -0.8833  0.2957 -0.3251
   7623SM  C17F10087  -0.258   4.049   8.901  0.1286  0.2516  0.1018
   7623SM  H17F10088  -0.330   3.969   8.929  0.1101  0.0264 -0.5751
   7623SM  H17G10089  -0.225   4.008   8.803 -0.0841 -1.6593  0.7946
   7623SM  C18F10090  -0.333   4.177   8.875  0.9416  0.6422  0.0155
   7623SM  H18F10091  -0.267   4.264   8.857  0.6671  0.6619 -0.9501
   7623SM  H18G10092  -0.396   4.211   8.960  0.8571 -1.8733  1.0655
   7623SM  C19F10093  -0.424   4.178   8.750 -0.7694  0.4158  0.0265
   7623SM  H19F10094  -0.502   4.100   8.757 -0.0614 -0.2071  1.3793
   7623SM  H19G10095  -0.364   4.154   8.660 -0.1357  0.8829  0.3098
   7623SM  C20F10096  -0.493   4.311   8.719  0.2558  0.0349  0.0157
   7623SM  H20F10097  -0.416   4.389   8.738  1.2610 -0.3752 -2.1181
   7623SM  H20G10098  -0.581   4.327   8.786 -1.1198 -0.5470 -1.5815
   7623SM  C21F10099  -0.524   4.306   8.566  0.3845 -0.5538  0.0419
   7623SM  H21F10100  -0.598   4.230   8.533  1.5808 -1.4550 -0.6515
   7623SM  H21G10101  -0.432   4.277   8.511  0.9559 -0.1088  0.7541
   7623SM  C22F10102  -0.561   4.448   8.510  0.1074  0.6609  0.6679
   7623SM  H22F10103  -0.584   4.439   8.401  1.3033  1.0877  0.3665
   7623SM  H22G10104  -0.478   4.521   8.513  1.1271 -0.4962  1.4108
   7623SM  C23F10105  -0.684   4.524   8.571  0.9227 -0.1591 -0.2799
   7623SM  H23F10106  -0.778   4.465   8.577  0.3817  0.8114  1.9254
   7623SM  H23G10107  -0.700   4.614   8.507 -1.2910 -1.0120 -1.0157
   7623SM  H23H10108  -0.666   4.555   8.676 -3.8235  0.0375  0.7012
   7723SM     N10109   0.327   0.966  11.301 -0.0830  0.7199 -0.5846
   7723SM   C1510110   0.338   0.860  11.411 -0.0939 -0.2556 -0.3369
   7723SM  H15A10111   0.383   0.770  11.373  0.1268 -0.3745  0.2000
   7723SM  H15B10112   0.241   0.837  11.451 -1.1236 -0.4034 -2.7380
   7723SM  H15C10113   0.399   0.886  11.496  0.1979 -1.3447 -0.2013
   7723SM   C1410114   0.263   1.073  11.369 -0.3476 -0.1312 -0.3573
   7723SM  H14A10115   0.171   1.030  11.408 -0.5429  0.8617  0.2982
   7723SM  H14B10116   0.240   1.162  11.313  0.0476  0.3169  0.1726
   7723SM  H14C10117   0.327   1.114  11.446 -1.0364  0.2133  0.0391
   7723SM   C1310118   0.464   1.005  11.254 -0.5559  0.0004  0.1960
   7723SM  H13A10119   0.450   1.085  11.183 -0.7079  1.0965  1.4195
   7723SM  H13B10120   0.510   0.918  11.209 -2.1376 -1.3565  1.1043
   7723SM  H13C10121   0.516   1.046  11.340 -1.0049 -1.0399  0.9788
   7723SM   C1210122   0.227   0.921  11.192 -0.6971  0.4414 -0.1281
   7723SM  H12A10123   0.123   0.927  11.221 -1.0328  1.3461 -1.3911
   7723SM  H12B10124   0.258   0.819  11.174  0.5179  0.8749 -0.6284
   7723SM   C1110125   0.227   1.004  11.064  0.1370 -0.3626 -0.1998
   7723SM  H11A10126   0.173   0.934  10.996  0.4497  1.5809 -2.6036
   7723SM  H11B10127   0.329   1.026  11.028  0.5595 -1.3064  0.3930
   7723SM     P10128   0.179   1.269  11.079 -0.4521 -0.1463 -0.1554
   7723SM   O1310129   0.073   1.345  11.019 -0.1849 -0.5085  0.3664
   7723SM   O1410130   0.232   1.314  11.204  0.0531 -0.0556  0.2513
   7723SM   O1110131   0.312   1.266  10.983  0.2502  0.6306 -0.0368
   7723SM   O1210132   0.142   1.121  11.089 -0.1418  0.2238 -0.3263
   7723SM   C1S10133   0.302   1.259  10.838 -0.0354  0.8599 -0.1432
   7723SM   H1S10134   0.229   1.333  10.798 -1.0604 -0.7954 -1.4687
   7723SM   H1T10135   0.262   1.158  10.815  0.1644  1.0324 -1.2622
   7723SM    NF10136   0.428   1.229  10.624  0.3998 -0.4865  0.6038
   7723SM   HNF10137   0.450   1.135  10.599 -0.3811 -0.6466  0.4848
   7723SM   C2S10138   0.437   1.272  10.764 -0.5906  0.2398  0.5316
   7723SM   H2S10139   0.452   1.382  10.756  2.7893 -0.1617 -0.2963
   7723SM   C3S10140   0.567   1.219  10.832  0.3485  0.1255  0.3502
   7723SM   H3S10141   0.564   1.108  10.823 -2.5505  0.1832 -0.6833
   7723SM    O310142   0.576   1.247  10.973 -0.3501 -0.6565 -0.2652
   7723SM   HO310143   0.488   1.277  10.999  0.6765  0.3301  2.4245
   7723SM   C4S10144   0.691   1.279  10.761 -0.5205  0.4136 -0.0233
   7723SM   H4S10145   0.699   1.229  10.663 -2.2364 -0.6477  0.3252
   7723SM   C5S10146   0.776   1.368  10.803 -0.0931 -0.3834  0.0073
   7723SM   H5S10147   0.778   1.406  10.906  0.9294 -0.2681 -0.0459
   7723SM   C6S10148   0.892   1.421  10.730 -0.0281 -0.3986  0.0181
   7723SM   H6S10149   0.882   1.395  10.622  1.1150 -1.9031  0.2443
   7723SM   H6T10150   0.987   1.374  10.762  1.2845  1.4325 -1.0522
   7723SM   C7S10151   0.914   1.574  10.737  0.3552  0.4531  0.3566
   7723SM   H7S10152   0.958   1.586  10.839  0.1291 -0.3482  0.5589
   7723SM   H7T10153   0.821   1.633  10.722  0.0161  0.1298  1.0898
   7723SM   C8S10154   1.019   1.612  10.633  0.8601 -0.0059  0.7391
   7723SM   H8S10155   1.103   1.538  10.634  1.5497  0.6335 -1.6891
   7723SM   H8T10156   1.068   1.705  10.669 -0.6571  1.0378  0.1747
   7723SM   C9S10157   0.947   1.645  10.504 -0.2061 -0.0462  0.3837
   7723SM   H9S10158   0.869   1.723  10.520 -0.0630  0.1234  0.2707
   7723SM   H9T10159   0.906   1.551  10.463  1.4103 -0.7203  0.2393
   7723SM  C10S10160   1.047   1.693  10.398  0.0082  0.4170  0.5041
   7723SM  H10S10161   1.123   1.619  10.366  0.6267 -0.0793  2.9019
   7723SM  H10T10162   1.109   1.779  10.430  1.7436 -0.2074 -1.0413
   7723SM  C11S10163   0.961   1.739  10.272 -0.2656 -0.6016 -0.7096
   7723SM  H11S10164   0.879   1.806  10.306  0.7066 -0.4722  1.5635
   7723SM  H11T10165   0.923   1.647  10.224  0.8555 -2.2933  1.4447
   7723SM  C12S10166   1.044   1.828  10.177 -0.2532 -0.3686  1.0416
   7723SM  H12S10167   1.132   1.763  10.153  0.3955  1.1153 -0.8958
   7723SM  H12T10168   1.084   1.919  10.226 -1.2434 -0.0138  1.2126
   7723SM  C13S10169   0.977   1.858  10.041 -0.6763  0.3145  0.1659
   7723SM  H13S10170   1.042   1.924   9.979 -0.2875  0.7896  1.0618
   7723SM  H13T10171   0.888   1.916  10.074 -1.2075 -0.2966 -0.1874
   7723SM  C14S10172   0.960   1.739   9.947  0.0275 -0.0057  0.3081
   7723SM  H14S10173   0.883   1.681  10.001  0.2091  0.8070  1.4668
   7723SM  H14T10174   1.049   1.673   9.937 -1.3946 -2.6478  3.3255
   7723SM  C15S10175   0.902   1.766   9.805 -0.3478 -0.1616  0.5965
   7723SM  H15S10176   0.819   1.838   9.825 -0.8174 -0.3929 -0.4887
   7723SM  H15T10177   0.865   1.668   9.770 -3.1294  1.0683 -0.1924
   7723SM  C16S10178   1.011   1.805   9.710  0.3787  0.4955 -0.1660
   7723SM  H16S10179   1.086   1.725   9.696 -1.4659 -1.3115 -0.1697
   7723SM  H16T10180   1.066   1.895   9.747  2.5879 -0.4695 -0.9357
   7723SM  C17S10181   0.949   1.842   9.570  0.3673  0.2667 -0.3838
   7723SM  H17S10182   1.018   1.899   9.505  1.0775  0.8131  0.8336
   7723SM  H17T10183   0.864   1.910   9.591  0.3796  0.6417 -1.4560
   7723SM  C18S10184   0.892   1.721   9.495 -0.0218  0.2763  0.6454
   7723SM  H18S10185   0.971   1.657   9.450  0.5120  0.2106  1.6411
   7723SM  H18T10186   0.834   1.761   9.409 -0.2309  1.5103  1.3348
   7723SM  H18U10187   0.821   1.659   9.554 -0.8026  0.9097  0.3947
   7723SM   C1F10188   0.338   1.296  10.546 -0.0751 -0.3921  0.3278
   7723SM    OF10189   0.315   1.414  10.570  0.7549 -0.2758  0.3480
   7723SM   C2F10190   0.266   1.223  10.427 -0.8447 -0.4539  0.2106
   7723SM   H2F10191   0.182   1.159  10.463 -1.6118  0.4434  0.0564
   7723SM   H2G10192   0.333   1.145  10.385  0.5867  0.4198  0.7813
   7723SM   C3F10193   0.222   1.326  10.328  0.0425 -0.7847 -0.3505
   7723SM   H3F10194   0.314   1.381  10.298 -0.0191  0.2404  1.2174
   7723SM   H3G10195   0.171   1.415  10.370 -1.4240 -1.3124 -0.9608
   7723SM   C4F10196   0.143   1.262  10.216  0.6922 -0.5583 -0.4075
   7723SM   H4F10197   0.042   1.216  10.231  0.4842 -0.2322 -0.7966
   7723SM   H4G10198   0.206   1.175  10.189  1.4462 -0.1888  0.1334
   7723SM   C5F10199   0.137   1.354  10.097 -0.0499  0.1921 -0.4390
   7723SM   H5F10200   0.238   1.372  10.053 -0.2698  0.0731 -1.0013
   7723SM   H5G10201   0.091   1.452  10.125  1.3917 -0.1370  3.8824
   7723SM   C6F10202   0.062   1.285   9.975 -0.0686  0.5619  0.1073
   7723SM   H6F10203  -0.043   1.271  10.008 -0.3254  1.7058 -0.2212
   7723SM   H6G10204   0.110   1.185   9.963  0.4684  0.8443 -0.1069
   7723SM   C7F10205   0.074   1.366   9.848  0.0803  0.3973  0.5409
   7723SM   H7F10206   0.180   1.387   9.821 -0.0747 -0.7917 -1.2095
   7723SM   H7G10207   0.031   1.464   9.875 -3.4719 -0.5900 -0.8929
   7723SM   C8F10208  -0.008   1.309   9.732  0.3697  0.4701  0.3402
   7723SM   H8F10209  -0.112   1.291   9.765  0.3653  0.9565  0.5981
   7723SM   H8G10210   0.035   1.209   9.709 -2.5790 -0.4877 -1.6043
   7723SM   C9F10211  -0.018   1.405   9.607  0.3071 -0.9245  0.1533
   7723SM   H9F10212   0.078   1.395   9.552 -0.7975  0.3364 -2.1331
   7723SM   H9G10213  -0.043   1.508   9.641 -1.5969 -1.1930 -0.3537
   7723SM  C10F10214  -0.125   1.343   9.511 -0.2715  0.0652 -0.5938
   7723SM  H10F10215  -0.179   1.430   9.470 -1.0026 -0.4489 -0.7432
   7723SM  H10G10216  -0.189   1.280   9.577 -0.0816  0.2916 -0.1884
   7723SM  C11F10217  -0.076   1.261   9.392 -0.0542 -0.1432 -0.0066
   7723SM  H11F10218  -0.171   1.231   9.341  0.6832 -1.4158 -0.6899
   7723SM  H11G10219  -0.030   1.169   9.433  0.4465  0.8767  1.8171
   7723SM  C12F10220   0.029   1.319   9.297 -0.1060  0.4231 -0.0997
   7723SM  H12F10221   0.043   1.240   9.221  2.7988  0.1776  0.5804
   7723SM  H12G10222   0.128   1.341   9.343 -0.3111 -0.3947  0.7738
   7723SM  C13F10223  -0.027   1.448   9.230 -0.0361 -0.1843  0.0147
   7723SM  H13F10224  -0.044   1.526   9.307 -0.3737 -0.5215  0.2859
   7723SM  H13G10225  -0.123   1.429   9.178 -1.0044  0.1937  1.5905
   7723SM  C14F10226   0.057   1.504   9.110 -0.0776 -0.6665 -0.0610
   7723SM  H14F10227   0.071   1.418   9.041 -1.0150 -1.0750  0.2377
   7723SM  H14G10228   0.159   1.528   9.145 -0.4929  0.9237  0.1384
   7723SM  C15F10229   0.001   1.632   9.048  0.5758 -0.5317 -0.0534
   7723SM  H15F10230  -0.023   1.705   9.128  1.1862 -0.4396  0.0503
   7723SM  H15G10231  -0.091   1.595   9.000 -0.8941  0.8719  1.5501
   7723SM  C16F10232   0.088   1.682   8.927  0.1298  0.3992 -0.1962
   7723SM  H16F10233   0.024   1.753   8.870 -0.9194  1.5383  2.2772
   7723SM  H16G10234   0.121   1.600   8.859  0.4519  0.9813 -0.7537
   7723SM  C17F10235   0.211   1.766   8.965 -0.4293  0.4573  0.2884
   7723SM  H17F10236   0.297   1.697   8.976 -2.0602 -2.0913 -1.7258
   7723SM  H17G10237   0.193   1.834   9.051  0.0036  0.7027  0.1844
   7723SM  C18F10238   0.254   1.852   8.847 -0.2032 -0.1854 -0.5141
   7723SM  H18F10239   0.356   1.893   8.864 -0.1796 -0.9734  1.5065
   7723SM  H18G10240   0.191   1.943   8.841 -1.0447 -0.8202 -1.8318
   7723SM  C19F10241   0.256   1.782   8.714 -0.4962  1.3109  0.8658
   7723SM  H19F10242   0.154   1.770   8.673  0.3017  3.1652 -2.0094
   7723SM  H19G10243   0.311   1.686   8.723 -1.6006  0.1775 -2.7927
   7723SM  C20F10244   0.329   1.857   8.604 -0.0799 -0.0567 -0.1243
   7723SM  H20F10245   0.437   1.851   8.629  0.2804  0.8663 -1.3482
   7723SM  H20G10246   0.299   1.963   8.608 -1.6027 -0.4905  3.0654
   7723SM  C21F10247   0.296   1.796   8.473 -0.3983  0.7451 -0.0327
   7723SM  H21F10248   0.191   1.818   8.443 -0.5276 -0.1930 -0.2993
   7723SM  H21G10249   0.312   1.688   8.490 -3.7878  0.5244  2.8287
   7723SM  C22F10250   0.387   1.850   8.363 -0.7844 -0.0851  0.9286
   7723SM  H22F10251   0.495   1.826   8.378 -0.6377 -0.1243 -0.0874
   7723SM  H22G10252   0.382   1.961   8.366 -1.1570 -0.1062  1.1572
   7723SM  C23F10253   0.330   1.794   8.228 -0.3854 -0.2853  0.1747
   7723SM  H23F10254   0.230   1.840   8.218 -0.3373 -0.6094 -2.8155
   7723SM  H23G10255   0.316   1.684   8.237 -2.2140 -0.1270 -0.3612
   7723SM  H23H10256   0.390   1.819   8.138 -0.8916  0.9907  0.1630
   7823SM     N10257   1.403   6.993  11.473  0.4395  0.2708  0.0135
   7823SM   C1510258   1.400   6.955  11.616  0.0178  0.5307 -0.3553
   7823SM  H15A10259   1.328   7.009  11.676 -0.5477  0.6284 -1.1112
   7823SM  H15B10260   1.499   6.969  11.658  0.0839  0.4491 -0.4838
   7823SM  H15C10261   1.374   6.851  11.623 -0.6241  0.6246 -1.2096
   7823SM   C1410262   1.545   6.983  11.422 -0.2726  0.7129 -0.2454
   7823SM  H14A10263   1.610   7.054  11.472 -0.5797  0.5047  0.4600
   7823SM  H14B10264   1.557   6.991  11.315 -0.3839 -1.3667 -0.4368
   7823SM  H14C10265   1.590   6.888  11.447  1.0683  0.4566 -3.1868
   7823SM   C1310266   1.328   6.895  11.393  0.1883  0.1673 -0.0942
   7823SM  H13A10267   1.273   6.944  11.314 -0.3051  0.6756  0.5548
   7823SM  H13B10268   1.270   6.837  11.463  0.7393  0.6890  0.8092
   7823SM  H13C10269   1.400   6.831  11.343 -1.4218 -0.7217 -1.3718
   7823SM   C1210270   1.352   7.131  11.438  1.0186  0.3076  0.3060
   7823SM  H12A10271   1.409   7.214  11.477  1.1677 -0.1987  1.1741
   7823SM  H12B10272   1.250   7.146  11.470  0.1184  2.1181 -2.8783
   7823SM   C1110273   1.353   7.172  11.282  0.4436  0.5030 -0.3067
   7823SM  H11A10274   1.459   7.174  11.251  1.0226 -0.6803  1.4376
   7823SM  H11B10275   1.315   7.276  11.274  1.9669  1.1267  0.1717
   7823SM     P10276   1.127   7.112  11.167 -0.7347  0.1391  0.5711
   7823SM   O1310277   1.084   6.987  11.097  0.5697 -0.2659 -0.1585
   7823SM   O1410278   1.054   7.149  11.290 -0.5298  0.1015 -0.3247
   7823SM   O1110279   1.129   7.239  11.073  0.2267 -0.1602 -0.3276
   7823SM   O1210280   1.277   7.083  11.203  0.0480  0.4665  0.2323
   7823SM   C1S10281   1.192   7.227  10.940  0.0256  0.2034 -0.6896
   7823SM   H1S10282   1.247   7.131  10.924  0.7077  0.5433 -0.4362
   7823SM   H1T10283   1.274   7.300  10.926  0.0053  0.6371  1.2084
   7823SM    NF10284   1.153   7.198  10.693  0.0138 -0.7413  0.1873
   7823SM   HNF10285   1.197   7.275  10.647 -2.6626  0.0294 -1.2710
   7823SM   C2S10286   1.091   7.240  10.822 -0.0085 -0.2127 -0.1451
   7823SM   H2S10287   1.011   7.167  10.847 -0.0446 -0.7386 -1.7098
   7823SM   C3S10288   1.034   7.385  10.805  0.3797 -0.4781 -0.3522
   7823SM   H3S10289   1.120   7.455  10.809  0.0314 -0.0785  0.2096
   7823SM    O310290   0.948   7.412  10.920 -0.9655  0.6066  0.4207
   7823SM   HO310291   0.964   7.340  10.982 -0.9002 -0.1092 -0.3998
   7823SM   C4S10292   0.949   7.405  10.683 -1.2323 -0.0659  0.9006
   7823SM   H4S10293   0.849   7.363  10.696 -1.5074  0.2811 -0.0099
   7823SM   C5S10294   1.003   7.468  10.570  0.0402 -0.3135  0.3296
   7823SM   H5S10295   1.104   7.513  10.570 -1.4100  3.4760 -2.4633
   7823SM   C6S10296   0.924   7.480  10.443 -0.4366 -0.3612  0.0148
   7823SM   H6S10297   0.943   7.577  10.394  0.9868  1.0654  3.1347
   7823SM   H6T10298   0.815   7.476  10.462 -0.7343  0.0425 -1.4422
   7823SM   C7S10299   0.958   7.369  10.343  0.2915  0.5387  0.4578
   7823SM   H7S10300   0.935   7.271  10.391  0.7631  0.5272  0.6679
   7823SM   H7T10301   1.065   7.361  10.312  0.3098  1.0477  0.3956
   7823SM   C8S10302   0.881   7.368  10.212  0.2701  0.1130 -0.0018
   7823SM   H8S10303   0.908   7.463  10.162  0.1545  0.3350  0.3545
   7823SM   H8T10304   0.773   7.392  10.224  0.5170  1.4606 -0.3221
   7823SM   C9S10305   0.904   7.233  10.134 -0.1179 -0.1011 -0.2026
   7823SM   H9S10306   0.868   7.148  10.195 -2.7756  1.3026  0.3373
   7823SM   H9T10307   1.014   7.224  10.123 -0.0317 -0.3152  0.8137
   7823SM  C10S10308   0.830   7.218  10.000 -0.2084  0.5409  0.3366
   7823SM  H10S10309   0.872   7.127   9.950 -2.3642 -0.1359 -0.3497
   7823SM  H10T10310   0.859   7.310   9.946 -0.3366  3.5621  4.8969
   7823SM  C11S10311   0.681   7.229  10.004 -0.3603  0.5122  0.7400
   7823SM  H11S10312   0.646   7.316  10.064 -2.9954  0.6259 -0.8131
   7823SM  H11T10313   0.638   7.138  10.051  0.9590  0.1898  1.3894
   7823SM  C12S10314   0.612   7.234   9.866  0.2216 -0.2067 -0.0495
   7823SM  H12S10315   0.630   7.336   9.825 -0.0772  0.5778  1.7144
   7823SM  H12T10316   0.502   7.218   9.873  0.2304 -0.2836 -0.0865
   7823SM  C13S10317   0.673   7.130   9.770  0.1670 -0.2320 -0.0880
   7823SM  H13S10318   0.660   7.027   9.808 -2.0635 -0.7742 -2.0963
   7823SM  H13T10319   0.781   7.155   9.766 -0.0420  0.6429 -0.6709
   7823SM  C14S10320   0.601   7.131   9.636  0.2368  0.4637 -0.0726
   7823SM  H14S10321   0.494   7.135   9.665  0.1768  1.9188 -0.4008
   7823SM  H14T10322   0.619   7.034   9.585 -1.5995 -0.0144  0.1133
   7823SM  C15S10323   0.629   7.250   9.544  0.5223  0.3380 -0.6130
   7823SM  H15S10324   0.737   7.262   9.518  0.4751  2.0037 -0.1516
   7823SM  H15T10325   0.598   7.340   9.601 -0.2356 -1.2264  1.5557
   7823SM  C16S10326   0.555   7.246   9.407 -0.0481  0.0879 -0.1902
   7823SM  H16S10327   0.567   7.350   9.368  1.0815  1.0529  2.4593
   7823SM  H16T10328   0.446   7.239   9.426 -0.2013  2.1998 -0.0596
   7823SM  C17S10329   0.600   7.140   9.311 -0.2857 -0.5403 -0.9898
   7823SM  H17S10330   0.574   7.044   9.360  0.6737  0.5705  1.8591
   7823SM  H17T10331   0.711   7.136   9.314 -0.2753  0.2400 -0.2399
   7823SM  C18S10332   0.540   7.171   9.174 -0.1768 -0.3280 -0.2250
   7823SM  H18S10333   0.429   7.163   9.182 -0.1119 -0.4611  0.6016
   7823SM  H18T10334   0.579   7.104   9.095 -0.3772 -0.4375 -0.2344
   7823SM  H18U10335   0.572   7.271   9.140  1.8973 -1.0292 -0.4298
   7823SM   C1F10336   1.187   7.068  10.666 -0.1624 -0.0157 -0.6799
   7823SM    OF10337   1.147   6.977  10.739 -0.1826  0.0211  0.0115
   7823SM   C2F10338   1.272   7.040  10.540  0.6101  0.3413 -0.1421
   7823SM   H2F10339   1.227   6.947  10.502 -1.2856  1.4575 -0.7411
   7823SM   H2G10340   1.370   7.007  10.583  0.4785  0.9697  0.6726
   7823SM   C3F10341   1.274   7.138  10.427  0.0768  0.1904  0.2233
   7823SM   H3F10342   1.335   7.221  10.468 -2.9586  2.4781  0.5157
   7823SM   H3G10343   1.171   7.177  10.409  0.4173  0.1400 -2.1223
   7823SM   C4F10344   1.330   7.070  10.301 -0.3525 -0.2065  0.1356
   7823SM   H4F10345   1.269   6.981  10.275  1.6852 -1.5373 -0.2257
   7823SM   H4G10346   1.431   7.030  10.323  0.1243 -0.5198 -2.3960
   7823SM   C5F10347   1.333   7.170  10.190 -0.5886 -0.3049  0.2925
   7823SM   H5F10348   1.319   7.275  10.223 -2.5617 -0.2013 -0.7536
   7823SM   H5G10349   1.250   7.151  10.118 -0.9193  1.4159  0.1669
   7823SM   C6F10350   1.464   7.163  10.112 -0.0106 -0.1645 -0.2054
   7823SM   H6F10351   1.540   7.205  10.181 -1.9833  0.8121  1.4991
   7823SM   H6G10352   1.458   7.241  10.033 -0.6169 -0.4013 -0.4012
   7823SM   C7F10353   1.508   7.029  10.049  0.2701 -0.2421 -0.5080
   7823SM   H7F10354   1.415   6.992  10.001 -1.2098 -0.1785  2.1265
   7823SM   H7G10355   1.530   6.964  10.137  1.2830 -0.5718 -0.9900
   7823SM   C8F10356   1.630   7.038   9.960  0.2709 -0.5883  0.1186
   7823SM   H8F10357   1.718   7.048  10.028  0.9930 -3.3359 -0.2652
   7823SM   H8G10358   1.623   7.130   9.898  1.7133 -1.0467 -0.7901
   7823SM   C9F10359   1.644   6.917   9.879 -0.8447 -0.7518 -0.3194
   7823SM   H9F10360   1.557   6.913   9.810 -0.4543 -2.6189 -0.7705
   7823SM   H9G10361   1.655   6.821   9.933  2.9787 -0.2246  0.1433
   7823SM  C10F10362   1.770   6.917   9.784 -0.3675 -0.3230  0.0671
   7823SM  H10F10363   1.863   6.930   9.843 -0.0998  2.7899 -0.8760
   7823SM  H10G10364   1.761   7.001   9.711 -2.2602 -0.1504  0.4476
   7823SM  C11F10365   1.781   6.783   9.710 -0.0048 -0.8244 -0.3729
   7823SM  H11F10366   1.694   6.765   9.642  0.7856 -0.1945 -1.5754
   7823SM  H11G10367   1.785   6.698   9.781  0.4363 -0.3295  0.2068
   7823SM  C12F10368   1.910   6.778   9.630 -0.6933  0.2361 -0.0285
   7823SM  H12F10369   1.924   6.876   9.580  2.0178 -0.3957 -0.7049
   7823SM  H12G10370   1.905   6.698   9.553 -3.4745 -0.4584  0.7657
   7823SM  C13F10371   2.041   6.749   9.714  0.1726 -0.1631  0.1276
   7823SM  H13F10372   2.036   6.641   9.741  0.9329 -0.9248 -2.5021
   7823SM  H13G10373   2.046   6.818   9.801  1.5173  3.2247 -2.4009
   7823SM  C14F10374   2.166   6.773   9.631 -0.0083 -0.5288  0.0126
   7823SM  H14F10375   2.152   6.875   9.589 -0.4866  0.3688  2.2170
   7823SM  H14G10376   2.173   6.696   9.551 -1.1417 -3.2738  2.3583
   7823SM  C15F10377   2.287   6.781   9.723 -0.6947 -0.0223  0.8669
   7823SM  H15F10378   2.324   6.676   9.730 -0.5899 -0.1040 -0.5382
   7823SM  H15G10379   2.273   6.834   9.820  2.6709  0.6241  1.1173
   7823SM  C16F10380   2.409   6.845   9.649  0.3168 -0.5043  0.1790
   7823SM  H16F10381   2.385   6.953   9.637 -1.8515 -0.9648  0.0407
   7823SM  H16G10382   2.428   6.803   9.548  0.3810  0.1439 -0.0831
   7823SM  C17F10383   2.545   6.815   9.722  0.0727  0.6734  0.3836
   7823SM  H17F10384   2.638   6.834   9.664 -1.6601  2.6950 -1.9229
   7823SM  H17G10385   2.547   6.705   9.741 -1.1068  1.0405  2.9533
   7823SM  C18F10386   2.565   6.874   9.860  0.5957 -0.0106  0.1224
   7823SM  H18F10387   2.662   6.841   9.903  1.2623  1.3044 -0.3325
   7823SM  H18G10388   2.482   6.837   9.924  0.1142  0.6778 -0.0894
   7823SM  C19F10389   2.567   7.021   9.860  0.1839  0.2618 -0.3137
   7823SM  H19F10390   2.472   7.074   9.839  0.4963  0.6137 -0.8419
   7823SM  H19G10391   2.641   7.059   9.787  0.1218  0.0515 -0.4866
   7823SM  C20F10392   2.591   7.071  10.002 -0.1451 -0.2634 -0.0573
   7823SM  H20F10393   2.695   7.049  10.034  1.2675  2.1156 -2.5296
   7823SM  H20G10394   2.509   7.040  10.071  0.3130 -2.2550 -0.3461
   7823SM  C21F10395   2.587   7.228   9.997 -0.1616  0.1378 -0.9236
   7823SM  H21F10396   2.500   7.279   9.951 -1.1792  0.2551  1.0375
   7823SM  H21G10397   2.676   7.266   9.943 -0.2558 -1.1781 -2.0713
   7823SM  C22F10398   2.592   7.292  10.138  0.0041 -0.0792  0.9301
   7823SM  H22F10399   2.684   7.280  10.198  1.3131  0.7760 -0.8148
   7823SM  H22G10400   2.511   7.252  10.202 -2.4499  3.2183  0.1591
   7823SM  C23F10401   2.573   7.441  10.124  0.2080  0.5236 -0.4967
   7823SM  H23F10402   2.588   7.478  10.020  0.5537 -2.7223 -1.7196
   7823SM  H23G10403   2.635   7.489  10.203  0.1898  1.4492 -1.0292
   7823SM  H23H10404   2.468   7.472  10.142  0.2117  1.6194 -2.0826
   7923SM     N10405   6.184   7.431  11.517  0.6317  0.0138 -0.3162
   7923SM   C1510406   6.323   7.407  11.485  0.0421 -0.5973 -0.0660
   7923SM  H15A10407   6.339   7.307  11.446  0.1298 -0.5300 -0.2071
   7923SM  H15B10408   6.378   7.418  11.577  1.1995 -3.0771 -0.3580
   7923SM  H15C10409   6.360   7.468  11.404  2.1097 -3.2930 -1.3426
   7923SM   C1410410   6.123   7.335  11.611  0.1109  0.1938  0.3188
   7923SM  H14A10411   6.025   7.364  11.646 -0.6427 -1.6678 -0.1146
   7923SM  H14B10412   6.192   7.305  11.689  0.7903  0.0301 -0.3417
   7923SM  H14C10413   6.094   7.247  11.555 -3.5773  0.4545  1.5303
   7923SM   C1310414   6.167   7.559  11.589  0.5558 -0.0519  0.3961
   7923SM  H13A10415   6.206   7.647  11.539  1.1306  0.3621  1.5279
   7923SM  H13B10416   6.227   7.550  11.678 -1.4248 -1.6748  1.6277
   7923SM  H13C10417   6.065   7.566  11.623  0.2454 -0.4834 -0.4192
   7923SM   C1210418   6.094   7.439  11.393 -0.1134  0.0448 -0.7306
   7923SM  H12A10419   6.128   7.531  11.348 -0.0187  0.3880  0.0095
   7923SM  H12B10420   5.991   7.468  11.409  0.1353 -0.0157  1.3688
   7923SM   C1110421   6.095   7.321  11.294  0.5941  0.5290  0.0905
   7923SM  H11A10422   6.199   7.286  11.283  0.8477  1.4392 -0.5477
   7923SM  H11B10423   6.062   7.365  11.197  3.2420 -1.1013 -1.6819
   7923SM     P10424   5.864   7.191  11.288 -0.1324 -0.1571  0.0978
   7923SM   O1310425   5.832   7.051  11.321 -0.3618  0.5269  0.2330
   7923SM   O1410426   5.780   7.299  11.340 -0.4571  0.1168 -0.4967
   7923SM   O1110427   5.868   7.220  11.128  0.4015  0.1147 -0.5649
   7923SM   O1210428   6.013   7.212  11.332  0.3975 -0.5397 -0.1149
   7923SM   C1S10429   5.936   7.125  11.048  0.1024 -0.3097  0.5427
   7923SM   H1S10430   5.901   7.022  11.068 -0.3847 -0.8577 -2.7034
   7923SM   H1T10431   6.045   7.126  11.070  0.9885 -1.4759 -3.2346
   7923SM    NF10432   5.944   7.058  10.799  0.1650  0.1260  0.1858
   7923SM   HNF10433   6.021   7.092  10.745  1.4906 -1.8929  0.6904
   7923SM   C2S10434   5.901   7.162  10.895 -0.4704 -0.4782  0.1182
   7923SM   H2S10435   5.791   7.161  10.884 -0.4846  0.5347  0.0840
   7923SM   C3S10436   5.946   7.309  10.865 -0.5601 -0.6026  0.3021
   7923SM   H3S10437   6.056   7.307  10.880 -0.4994  0.4956  0.0360
   7923SM    O310438   5.898   7.404  10.953  0.1741  0.6428  0.1007
   7923SM   HO310439   5.881   7.350  11.030  0.1845 -0.0978 -0.4070
   7923SM   C4S10440   5.927   7.350  10.726  0.1335 -0.6022  0.4184
   7923SM   H4S10441   6.002   7.319  10.652  0.5053 -0.8656  0.9010
   7923SM   C5S10442   5.820   7.426  10.682 -0.9777 -0.4963  0.2860
   7923SM   H5S10443   5.740   7.443  10.756 -0.6279  0.9174  0.3677
   7923SM   C6S10444   5.798   7.480  10.544 -0.1375  0.0188 -0.1121
   7923SM   H6S10445   5.886   7.531  10.499 -1.8342  1.2667 -2.2289
   7923SM   H6T10446   5.730   7.567  10.544  1.2011  1.1050  0.5191
   7923SM   C7S10447   5.756   7.372  10.441 -0.3269 -0.6058 -0.2714
   7923SM   H7S10448   5.648   7.355  10.459 -0.1890 -0.4130  0.7845
   7923SM   H7T10449   5.810   7.275  10.452  1.4937  0.3243 -0.6321
   7923SM   C8S10450   5.791   7.428  10.298  0.4382 -0.3062 -0.6017
   7923SM   H8S10451   5.902   7.419  10.297  0.4716 -0.8928  1.9701
   7923SM   H8T10452   5.769   7.537  10.295 -0.5232 -0.4755  0.0727
   7923SM   C9S10453   5.726   7.347  10.183  0.4581  0.1142  0.8721
   7923SM   H9S10454   5.616   7.357  10.189  0.2985 -0.5433 -0.6429
   7923SM   H9T10455   5.748   7.238  10.194  0.8785  0.1025 -0.0268
   7923SM  C10S10456   5.775   7.376  10.039  0.1319  0.1947  0.2329
   7923SM  H10S10457   5.885   7.378  10.053 -0.0983  0.8846  2.3973
   7923SM  H10T10458   5.734   7.470   9.996 -0.7153 -1.1060 -1.9744
   7923SM  C11S10459   5.738   7.258   9.941  0.0923 -0.3011 -0.2349
   7923SM  H11S10460   5.628   7.254   9.927  0.0155  0.0945  0.2341
   7923SM  H11T10461   5.780   7.168   9.991 -1.1577  0.9858  3.5063
   7923SM  C12S10462   5.791   7.292   9.806  0.5091  0.1058  0.0582
   7923SM  H12S10463   5.901   7.278   9.798  0.3169 -0.4873 -2.3723
   7923SM  H12T10464   5.767   7.392   9.765  0.2945 -0.3576 -0.9957
   7923SM  C13S10465   5.753   7.190   9.697 -0.1428 -0.5095 -0.4229
   7923SM  H13S10466   5.643   7.209   9.692  0.0491  1.0525  0.5356
   7923SM  H13T10467   5.755   7.086   9.736 -3.1847 -1.3804 -2.2043
   7923SM  C14S10468   5.835   7.202   9.567  0.9211  0.6525 -0.4214
   7923SM  H14S10469   5.945   7.194   9.583  0.7338 -3.5661 -0.1291
   7923SM  H14T10470   5.813   7.307   9.539 -0.0912  0.6306  0.2487
   7923SM  C15S10471   5.792   7.113   9.448 -0.0323 -0.1292  0.1915
   7923SM  H15S10472   5.684   7.124   9.426  0.6024  0.1775 -3.2619
   7923SM  H15T10473   5.812   7.007   9.475  1.5687  0.5178  1.7221
   7923SM  C16S10474   5.849   7.148   9.310 -0.5221  0.0736 -0.4128
   7923SM  H16S10475   5.813   7.249   9.281  0.3367  0.6201  0.3752
   7923SM  H16T10476   5.825   7.074   9.231 -0.4706  0.5167 -0.8489
   7923SM  C17S10477   6.006   7.135   9.311  0.2371 -0.0021 -0.7638
   7923SM  H17S10478   6.028   7.030   9.342 -0.7571 -0.5641 -1.9184
   7923SM  H17T10479   6.031   7.202   9.396  1.8037 -1.1589 -0.2658
   7923SM  C18S10480   6.088   7.174   9.187  0.5022  0.1044 -0.3672
   7923SM  H18S10481   6.088   7.285   9.183  0.7368  0.1235  0.0808
   7923SM  H18T10482   6.060   7.133   9.088 -0.1798  0.4360 -0.3186
   7923SM  H18U10483   6.189   7.132   9.202  0.3438  0.3243  1.7348
   7923SM   C1F10484   5.894   6.927  10.799  0.0303 -0.5089  0.3603
   7923SM    OF10485   5.803   6.898  10.883 -0.4578  0.6436  0.3885
   7923SM   C2F10486   5.963   6.823  10.714 -0.5891  0.4675 -0.4537
   7923SM   H2F10487   5.952   6.732  10.777  1.3862  0.5107  0.0131
   7923SM   H2G10488   6.073   6.837  10.722 -0.4266 -1.4195  1.1621
   7923SM   C3F10489   5.914   6.811  10.574  0.8227  0.2900  0.4296
   7923SM   H3F10490   5.935   6.906  10.521 -0.1471  0.0431 -0.4297
   7923SM   H3G10491   5.803   6.810  10.576  0.8179  0.7673  0.4789
   7923SM   C4F10492   5.963   6.680  10.511 -0.0712 -0.5329  0.3164
   7923SM   H4F10493   5.919   6.597  10.570 -0.4752 -1.3262 -1.0439
   7923SM   H4G10494   6.073   6.673  10.523  0.2112 -0.7547 -1.8646
   7923SM   C5F10495   5.919   6.654  10.364 -0.3899 -0.0995 -0.0428
   7923SM   H5F10496   5.970   6.721  10.292 -0.3055 -1.7312 -1.5397
   7923SM   H5G10497   5.814   6.688  10.364 -0.6283 -0.8167  0.2682
   7923SM   C6F10498   5.938   6.510  10.323  0.8159  0.2953  0.3008
   7923SM   H6F10499   5.860   6.450  10.373  0.6914  0.0383 -0.1927
   7923SM   H6G10500   6.036   6.462  10.339  0.3525 -0.3055  1.3791
   7923SM   C7F10501   5.895   6.493  10.173 -0.1581 -0.0266 -0.2884
   7923SM   H7F10502   5.979   6.528  10.109 -2.0007  0.4142 -2.6100
   7923SM   H7G10503   5.801   6.549  10.156  0.0210  0.7689  1.1886
   7923SM   C8F10504   5.861   6.348  10.132  0.2364 -0.0544 -1.0255
   7923SM   H8F10505   5.776   6.324  10.199  1.4094  1.7209  1.2579
   7923SM   H8G10506   5.944   6.277  10.152 -1.1328 -1.8348 -1.3729
   7923SM   C9F10507   5.830   6.325   9.980 -0.0387 -0.5255  0.5014
   7923SM   H9F10508   5.918   6.355   9.919 -0.5210  1.7274  0.8020
   7923SM   H9G10509   5.733   6.379   9.971  0.4548  0.2216 -0.6472
   7923SM  C10F10510   5.783   6.183   9.940  0.7854  0.3864  0.1577
   7923SM  H10F10511   5.706   6.152  10.015  0.5994  1.5083  0.4418
   7923SM  H10G10512   5.868   6.112   9.948  0.6717  0.3823  1.8242
   7923SM  C11F10513   5.728   6.192   9.806  0.0910  0.0092 -0.3174
   7923SM  H11F10514   5.801   6.237   9.734 -0.3138  2.0908  0.4844
   7923SM  H11G10515   5.636   6.254   9.812  1.3268  1.9340 -0.2475
   7923SM  C12F10516   5.680   6.055   9.747 -0.4023 -0.6958  0.1147
   7923SM  H12F10517   5.652   5.996   9.837 -0.1078 -1.2603 -0.1634
   7923SM  H12G10518   5.771   6.001   9.716 -0.7385 -1.6927  0.8130
   7923SM  C13F10519   5.574   6.064   9.637 -0.0154  0.2005 -0.0752
   7923SM  H13F10520   5.620   6.121   9.554  0.6196 -1.5648 -1.0004
   7923SM  H13G10521   5.490   6.123   9.679 -0.7131 -0.3964 -0.5908
   7923SM  C14F10522   5.526   5.926   9.577  0.7469 -0.2455  0.6372
   7923SM  H14F10523   5.468   5.943   9.484  1.0722 -0.8634  0.3139
   7923SM  H14G10524   5.449   5.882   9.645 -0.2300  1.0935  0.4384
   7923SM  C15F10525   5.638   5.830   9.532 -0.4516 -0.2003  0.5770
   7923SM  H15F10526   5.713   5.829   9.614  1.7377 -2.1589 -1.3021
   7923SM  H15G10527   5.675   5.882   9.442  0.0969  1.8413  1.9094
   7923SM  C16F10528   5.599   5.684   9.504 -0.2646  0.1227  0.5643
   7923SM  H16F10529   5.563   5.644   9.601  1.4840 -0.7550  0.9120
   7923SM  H16G10530   5.689   5.620   9.484  2.6166  3.0953  2.8734
   7923SM  C17F10531   5.487   5.668   9.400 -0.1277  0.5704 -0.1338
   7923SM  H17F10532   5.512   5.699   9.297  0.2839 -2.4962 -1.0715
   7923SM  H17G10533   5.392   5.718   9.428  0.5028  1.4888  0.4165
   7923SM  C18F10534   5.450   5.519   9.386 -0.1548 -0.2102 -0.0842
   7923SM  H18F10535   5.391   5.491   9.476 -1.2973  2.9769  0.2816
   7923SM  H18G10536   5.543   5.460   9.381  0.2289  0.2034  1.4346
   7923SM  C19F10537   5.351   5.505   9.266 -0.4942  0.5371 -0.8411
   7923SM  H19F10538   5.380   5.574   9.183  0.7294  2.6174  1.1865
   7923SM  H19G10539   5.261   5.554   9.309  0.2492  0.9822  0.2293
   7923SM  C20F10540   5.326   5.359   9.222 -0.3966  0.3609  0.2622
   7923SM  H20F10541   5.294   5.318   9.320 -0.5836  0.2338  0.1499
   7923SM  H20G10542   5.421   5.314   9.187 -0.6033  0.5286 -0.5391
   7923SM  C21F10543   5.214   5.345   9.115 -0.0285 -0.0655  0.2289
   7923SM  H21F10544   5.130   5.406   9.155 -1.6185 -1.3952 -0.9680
   7923SM  H21G10545   5.176   5.241   9.113  1.6469 -0.8741  3.1393
   7923SM  C22F10546   5.259   5.399   8.973  0.6744  0.4300 -0.4563
   7923SM  H22F10547   5.331   5.322   8.936 -0.8506 -2.6610  2.4941
   7923SM  H22G10548   5.311   5.497   8.973 -0.7052  1.2501  2.0775
   7923SM  C23F10549   5.140   5.414   8.882  0.1228  0.4483 -0.9764
   7923SM  H23F10550   5.168   5.418   8.774 -0.1245  2.6644 -1.0046
   7923SM  H23G10551   5.073   5.499   8.909 -3.8406 -2.8178  0.5531
   7923SM  H23H10552   5.080   5.322   8.898  0.9904 -0.1722 -1.2261
   8023SM     N10553   7.224   0.016  11.457  0.5240  0.1709 -0.3681
   8023SM   C1510554   7.088   0.028  11.516  0.1836 -0.0052 -0.2100
   8023SM  H15A10555   7.094   0.008  11.622 -1.9098 -0.3117 -0.1141
   8023SM  H15B10556   7.011  -0.037  11.479 -0.9700 -0.1588  2.2148
   8023SM  H15C10557   7.049   0.128  11.502  0.5556  0.3155  0.8815
   8023SM   C1410558   7.317   0.110  11.531 -0.0980 -0.1134  0.1522
   8023SM  H14A10559   7.276   0.210  11.532 -1.4946 -0.5875 -2.0400
   8023SM  H14B10560   7.408   0.118  11.472 -0.2952  1.4941  0.0228
   8023SM  H14C10561   7.335   0.072  11.630 -1.2934  2.4923  1.4498
   8023SM   C1310562   7.272  -0.125  11.469  0.2282  0.1092 -0.1713
   8023SM  H13A10563   7.211  -0.199  11.419 -0.5911 -1.2202  2.5519
   8023SM  H13B10564   7.278  -0.155  11.573  0.4909  3.6391  0.9626
   8023SM  H13C10565   7.370  -0.133  11.425 -0.8400 -1.1974 -2.4504
   8023SM   C1210566   7.221   0.052  11.310  0.2087 -0.6913 -0.1098
   8023SM  H12A10567   7.185   0.151  11.288  1.2944 -0.5539 -1.3559
   8023SM  H12B10568   7.147  -0.009  11.260 -1.1581  1.3419 -0.6867
   8023SM   C1110569   7.354   0.037  11.221  0.1325 -0.5057  0.5104
   8023SM  H11A10570   7.309   0.056  11.121  0.9532 -1.8726 -0.1373
   8023SM  H11B10571   7.389  -0.068  11.213 -0.3685 -0.6381  0.0181
   8023SM     P10572   7.604   0.085  11.222  0.1867  0.1154  0.3151
   8023SM   O1310573   7.698   0.191  11.263 -0.5356 -0.0977 -0.2544
   8023SM   O1410574   7.639  -0.048  11.269  0.4561  0.1626  0.1423
   8023SM   O1110575   7.612   0.068  11.067 -0.0884  0.1919  0.4424
   8023SM   O1210576   7.457   0.135  11.252 -0.0989  0.4400 -0.6574
   8023SM   C1S10577   7.621   0.187  10.980 -0.1751  0.3440 -0.4713
   8023SM   H1S10578   7.700   0.257  11.016  0.4046 -0.2590 -0.5498
   8023SM   H1T10579   7.529   0.245  11.001 -0.7402 -1.8328  4.3179
   8023SM    NF10580   7.690   0.265  10.741  0.1356 -0.7266 -1.0714
   8023SM   HNF10581   7.625   0.321  10.690 -1.1058 -1.3457 -0.2142
   8023SM   C2S10582   7.647   0.152  10.824  0.0236 -0.8185  0.6286
   8023SM   H2S10583   7.732   0.081  10.826  0.4316 -0.3232  1.3838
   8023SM   C3S10584   7.527   0.075  10.762  0.5108 -0.1247 -0.8673
   8023SM   H3S10585   7.434   0.135  10.752 -1.1920 -2.7371 -1.8102
   8023SM    O310586   7.499  -0.041  10.849  0.4802 -0.2277  0.9399
   8023SM   HO310587   7.560  -0.031  10.922  0.6482 -0.2835  0.8088
   8023SM   C4S10588   7.556   0.016  10.621  0.4276 -0.3990  0.3448
   8023SM   H4S10589   7.486   0.033  10.537  0.4871  1.3814  0.6200
   8023SM   C5S10590   7.670  -0.039  10.577  0.2060  0.2692  0.1375
   8023SM   H5S10591   7.755  -0.040  10.646 -0.8460  0.5106  1.4845
   8023SM   C6S10592   7.689  -0.094  10.432  0.4386 -0.4673  0.6920
   8023SM   H6S10593   7.593  -0.079  10.377  0.0865  0.5954  1.5507
   8023SM   H6T10594   7.697  -0.205  10.434  0.5851 -0.5934 -2.3432
   8023SM   C7S10595   7.811  -0.038  10.366 -0.3025  0.4500 -0.3359
   8023SM   H7S10596   7.887  -0.006  10.441 -0.9657  0.7613  0.2036
   8023SM   H7T10597   7.785   0.053  10.308  0.1280 -0.0779 -1.3730
   8023SM   C8S10598   7.880  -0.138  10.259  0.4357 -0.1447 -0.3018
   8023SM   H8S10599   7.803  -0.170  10.186 -0.3941  0.6451  0.2010
   8023SM   H8T10600   7.919  -0.226  10.315  1.9745  2.0654  2.3685
   8023SM   C9S10601   8.004  -0.085  10.185 -0.1958  0.0880  0.2616
   8023SM   H9S10602   7.978   0.013  10.140  2.3680  0.9781  0.5545
   8023SM   H9T10603   8.038  -0.148  10.100 -0.3628 -0.9280  0.9213
   8023SM  C10S10604   8.137  -0.070  10.265 -0.2955  0.0926  0.5874
   8023SM  H10S10605   8.140  -0.145  10.347 -1.4236 -0.7387 -0.0905
   8023SM  H10T10606   8.141   0.030  10.313  0.8472 -1.5547  4.3061
   8023SM  C11S10607   8.258  -0.096  10.177  0.3691  0.1974 -0.3958
   8023SM  H11S10608   8.237  -0.188  10.118  0.1241  0.3394 -0.5355
   8023SM  H11T10609   8.354  -0.109  10.231  0.9684  0.5116 -1.3468
   8023SM  C12S10610   8.290   0.028  10.090 -0.0131  0.3536  0.9680
   8023SM  H12S10611   8.286   0.114  10.160 -3.7787  0.3130  1.0119
   8023SM  H12T10612   8.216   0.033  10.007  1.8639  2.3609 -0.7021
   8023SM  C13S10613   8.432   0.010  10.021  0.4619  0.0508 -0.3489
   8023SM  H13S10614   8.439  -0.092   9.977 -0.4766 -0.1428 -0.0657
   8023SM  H13T10615   8.514   0.024  10.094 -0.5350 -2.6337  1.4173
   8023SM  C14S10616   8.460   0.106   9.903  0.3337  0.8919 -0.5093
   8023SM  H14S10617   8.438   0.207   9.943 -0.9058 -0.2283  1.8150
   8023SM  H14T10618   8.389   0.079   9.821 -1.3610  2.2082  0.4706
   8023SM  C15S10619   8.612   0.094   9.855 -0.2519  0.0192 -0.2946
   8023SM  H15S10620   8.631  -0.012   9.828  1.2472  0.2205 -0.1487
   8023SM  H15T10621   8.671   0.121   9.946 -0.3629 -3.2335  0.8973
   8023SM  C16S10622   8.659   0.176   9.732  0.2281 -0.0140  0.3178
   8023SM  H16S10623   8.599   0.262   9.697  0.0556  0.1982  1.1173
   8023SM  H16T10624   8.685   0.104   9.652  0.6654 -1.8695  2.0374
   8023SM  C17S10625   8.800   0.230   9.753  0.1144 -0.5868  0.2520
   8023SM  H17S10626   8.854   0.146   9.801  0.3260  1.3207  3.6643
   8023SM  H17T10627   8.796   0.306   9.834 -1.6329  0.8097 -1.0580
   8023SM  C18S10628   8.869   0.295   9.633  0.3065  0.1248 -0.2583
   8023SM  H18S10629   8.954   0.361   9.660  0.0572  0.8540 -1.1922
   8023SM  H18T10630   8.806   0.355   9.564  0.1885  2.1272  1.5203
   8023SM  H18U10631   8.894   0.213   9.562 -2.2194 -1.2474  0.3096
   8023SM   C1F10632   7.809   0.322  10.745  0.1099  0.0041  0.6046
   8023SM    OF10633   7.888   0.277  10.830 -0.7049 -0.4001  0.1064
   8023SM   C2F10634   7.843   0.434  10.654  0.3273 -0.0399  0.8049
   8023SM   H2F10635   7.952   0.449  10.664  0.5484  1.6004 -2.7716
   8023SM   H2G10636   7.784   0.527  10.669  1.3896  0.5053  1.7066
   8023SM   C3F10637   7.825   0.409  10.503 -0.7823 -0.0914 -0.1815
   8023SM   H3F10638   7.717   0.422  10.482 -0.9054  1.0177  1.0333
   8023SM   H3G10639   7.853   0.301  10.494 -0.3951 -0.4476  3.6537
   8023SM   C4F10640   7.921   0.489  10.409  0.7513  0.8128  0.1149
   8023SM   H4F10641   8.024   0.465  10.443  0.9817  2.2144  0.4789
   8023SM   H4G10642   7.909   0.596  10.436  0.5134  1.1637 -1.3043
   8023SM   C5F10643   7.892   0.457  10.260 -0.6946  0.4019  0.6550
   8023SM   H5F10644   7.794   0.499  10.227 -0.0497  0.7240 -0.9760
   8023SM   H5G10645   7.901   0.348  10.243  1.4753  0.4649  1.1101
   8023SM   C6F10646   8.005   0.519  10.167  0.2097 -0.1038 -0.8249
   8023SM   H6F10647   8.103   0.484  10.204 -1.1070 -1.4398  1.6507
   8023SM   H6G10648   7.997   0.629  10.182  1.0898 -0.2936  1.5269
   8023SM   C7F10649   7.990   0.477  10.023  0.2040 -0.3228  0.2017
   8023SM   H7F10650   7.900   0.525   9.978 -0.4713 -1.2108  0.5893
   8023SM   H7G10651   7.971   0.369  10.010 -1.7946 -0.3017  2.3220
   8023SM   C8F10652   8.122   0.512   9.942  0.0698 -0.0021 -0.3520
   8023SM   H8F10653   8.205   0.447   9.978  0.4601  1.4340  1.4800
   8023SM   H8G10654   8.153   0.616   9.963 -0.5581 -0.2639  2.1638
   8023SM   C9F10655   8.111   0.506   9.790  0.1966 -0.1183  1.0699
   8023SM   H9F10656   8.010   0.543   9.762  0.2955 -0.2743  0.4890
   8023SM   H9G10657   8.114   0.400   9.754 -0.2840  0.0213  0.6147
   8023SM  C10F10658   8.220   0.595   9.721 -0.9608 -0.7265 -0.4083
   8023SM  H10F10659   8.314   0.610   9.778 -0.9617 -2.0169 -0.0367
   8023SM  H10G10660   8.184   0.700   9.720 -0.2587 -0.4836 -0.8659
   8023SM  C11F10661   8.262   0.538   9.580 -0.3260 -0.1762  0.4567
   8023SM  H11F10662   8.167   0.503   9.534 -0.2912  0.8052 -0.3930
   8023SM  H11G10663   8.338   0.457   9.588  0.5814  0.6936  0.9136
   8023SM  C12F10664   8.324   0.640   9.476  0.5695  0.6519  0.1152
   8023SM  H12F10665   8.430   0.647   9.508  0.5624  1.0018  0.0645
   8023SM  H12G10666   8.268   0.735   9.489 -1.1746 -0.3320  0.1034
   8023SM  C13F10667   8.329   0.575   9.341 -0.3433  0.1932  0.2593
   8023SM  H13F10668   8.379   0.476   9.338  0.0460  0.4001 -0.0792
   8023SM  H13G10669   8.398   0.641   9.286 -0.1601  0.5509  0.9090
   8023SM  C14F10670   8.200   0.548   9.269  0.2888  0.7355  0.0941
   8023SM  H14F10671   8.126   0.631   9.273 -2.0030 -1.1858  0.3653
   8023SM  H14G10672   8.149   0.461   9.317  1.8381 -0.6656 -0.6677
   8023SM  C15F10673   8.219   0.501   9.121  0.2186 -0.5213 -0.6159
   8023SM  H15F10674   8.276   0.406   9.126  0.8082 -0.2119 -1.3507
   8023SM  H15G10675   8.286   0.576   9.074 -0.1661  1.1446  1.3623
   8023SM  C16F10676   8.090   0.478   9.038  0.2801 -0.0940 -0.6071
   8023SM  H16F10677   8.030   0.571   9.032  0.2620  0.1401  1.9096
   8023SM  H16G10678   8.031   0.401   9.092  0.5467 -0.9034 -1.4566
   8023SM  C17F10679   8.119   0.410   8.909  0.4058  0.4464  0.9157
   8023SM  H17F10680   8.171   0.313   8.925 -0.8936 -0.2444  1.0911
   8023SM  H17G10681   8.186   0.469   8.844  0.2861 -0.3776  0.0240
   8023SM  C18F10682   7.987   0.368   8.836  0.0152  0.1597  0.3954
   8023SM  H18F10683   7.919   0.456   8.835  0.1017  0.2259  0.0674
   8023SM  H18G10684   7.932   0.279   8.872 -1.7807  0.3946 -1.5466
   8023SM  C19F10685   8.012   0.323   8.688  0.1822  0.6256  0.3297
   8023SM  H19F10686   8.061   0.407   8.634  0.8982 -0.3101 -0.5274
   8023SM  H19G10687   7.918   0.297   8.635  0.1259  2.0657 -0.3163
   8023SM  C20F10688   8.110   0.204   8.678 -0.6017  0.3455  0.5193
   8023SM  H20F10689   8.207   0.252   8.704  0.6183  0.0450 -2.8861
   8023SM  H20G10690   8.126   0.177   8.571  0.0069  0.5993  0.5411
   8023SM  C21F10691   8.069   0.079   8.755 -0.5832  0.0396  0.1590
   8023SM  H21F10692   8.091   0.081   8.863  1.9738 -3.6807 -0.1252
   8023SM  H21G10693   8.142  -0.001   8.728  1.0318  1.1057  1.1833
   8023SM  C22F10694   7.924   0.034   8.734 -0.8116 -0.1802  0.1828
   8023SM  H22F10695   7.898   0.031   8.626 -0.6041  3.5090 -0.0755
   8023SM  H22G10696   7.853   0.112   8.769 -0.4137 -0.3582  1.4463
   8023SM  C23F10697   7.895  -0.096   8.803  0.2049 -0.4121 -0.4038
   8023SM  H23F10698   7.983  -0.163   8.806  0.2193 -0.3754  0.1543
   8023SM  H23G10699   7.825  -0.155   8.740  0.2104 -1.6969  0.7473
   8023SM  H23H10700   7.846  -0.078   8.901 -1.3215  0.2176 -1.2451
   8123SM     N10701   2.550   3.009   6.426  0.3625 -0.2364 -0.1727
   8123SM   C1510702   2.601   2.872   6.379 -0.5800  1.1606 -0.5220
   8123SM  H15A10703   2.531   2.825   6.312 -0.7178 -1.5033  1.3358
   8123SM  H15B10704   2.620   2.802   6.458 -1.2041 -1.3870 -2.5159
   8123SM  H15C10705   2.695   2.875   6.325 -0.3581 -0.3264 -0.2367
   8123SM   C1410706   2.568   3.105   6.313 -0.3776  0.1377  0.5168
   8123SM  H14A10707   2.533   3.205   6.335  0.4983  0.2871  1.2669
   8123SM  H14B10708   2.509   3.070   6.229 -1.6581  0.3841  1.2769
   8123SM  H14C10709   2.669   3.098   6.276 -0.6634 -0.1485 -0.2180
   8123SM   C1310710   2.408   3.005   6.472 -0.2446  0.3630  0.1127
   8123SM  H13A10711   2.339   2.970   6.396  0.0830  0.8590 -0.4205
   8123SM  H13B10712   2.371   3.103   6.497  1.1063  0.5307  1.5964
   8123SM  H13C10713   2.404   2.945   6.561 -0.0847 -2.0814 -1.4131
   8123SM   C1210714   2.643   3.050   6.535 -0.1138 -0.0348 -0.2207
   8123SM  H12A10715   2.615   3.150   6.564  1.7099  1.0066 -1.8456
   8123SM  H12B10716   2.742   3.060   6.493  0.6981 -0.0704  1.5644
   8123SM   C1110717   2.662   2.957   6.659 -0.3364 -0.2367  0.1105
   8123SM  H11A10718   2.564   2.908   6.678 -0.7915 -0.2782 -2.0676
   8123SM  H11B10719   2.678   3.017   6.751  2.5879 -0.5408 -0.0893
   8123SM     P10720   2.913   2.905   6.662 -0.0252  0.1122 -0.0598
   8123SM   O1310721   3.002   2.787   6.682  0.5290 -0.8883 -0.6188
   8123SM   O1410722   2.955   2.993   6.549  0.5236  0.2808  0.6261
   8123SM   O1110723   2.908   2.991   6.799 -0.1717  0.6927 -0.1288
   8123SM   O1210724   2.760   2.855   6.631 -0.4293  0.0103 -0.3896
   8123SM   C1S10725   2.893   2.937   6.925  0.6891 -1.1650  0.1015
   8123SM   H1S10726   2.961   2.851   6.943  2.1396  0.4437  3.0891
   8123SM   H1T10727   2.788   2.903   6.938 -0.4507  2.4976  1.8491
   8123SM    NF10728   2.937   2.972   7.155  0.3103  0.3404 -0.3845
   8123SM   HNF10729   2.862   2.960   7.220  1.4033 -1.1225  0.6745
   8123SM   C2S10730   2.926   3.048   7.035 -0.2072  0.1930  0.6408
   8123SM   H2S10731   3.023   3.099   7.021  0.0534 -0.3910  0.2743
   8123SM   C3S10732   2.809   3.146   7.033  0.2973  0.3106 -0.6626
   8123SM   H3S10733   2.720   3.083   7.048 -1.1230  1.7301 -2.5377
   8123SM    O310734   2.782   3.202   6.902  0.2110  0.1242  0.2210
   8123SM   HO310735   2.827   3.137   6.848 -1.4744 -0.0575 -1.0384
   8123SM   C4S10736   2.819   3.250   7.132  0.2857  0.0370 -1.0375
   8123SM   H4S10737   2.912   3.309   7.127  0.1185  0.4788  0.6377
   8123SM   C5S10738   2.729   3.290   7.218 -0.0097 -0.2897  0.6194
   8123SM   H5S10739   2.629   3.244   7.224 -0.1157  0.0082  1.2312
   8123SM   C6S10740   2.745   3.408   7.300  0.2459 -0.2979 -0.4388
   8123SM   H6S10741   2.817   3.483   7.260 -1.2506  0.5510 -1.6615
   8123SM   H6T10742   2.770   3.389   7.406  1.3214  1.2562 -0.3746
   8123SM   C7S10743   2.619   3.498   7.309  0.4059  0.4615  0.6320
   8123SM   H7S10744   2.547   3.432   7.361  0.8689 -3.5781 -3.2138
   8123SM   H7T10745   2.571   3.511   7.209 -0.0980  0.5755  0.8869
   8123SM   C8S10746   2.644   3.629   7.374  0.5513  0.4901 -0.0366
   8123SM   H8S10747   2.700   3.690   7.300  0.8677 -1.1458 -1.2329
   8123SM   H8T10748   2.704   3.612   7.466  0.3043 -0.4517 -0.0364
   8123SM   C9S10749   2.521   3.710   7.422 -0.1475  0.2173  0.0253
   8123SM   H9S10750   2.471   3.641   7.494 -1.2108  0.8663 -0.0606
   8123SM   H9T10751   2.458   3.743   7.336  0.2980 -0.5329 -0.5989
   8123SM  C10S10752   2.557   3.825   7.515 -0.4153 -0.4436 -0.2680
   8123SM  H10S10753   2.613   3.904   7.460 -0.5816  0.9977  1.5537
   8123SM  H10T10754   2.618   3.785   7.599  0.3539  0.5499 -0.3328
   8123SM  C11S10755   2.438   3.892   7.581  0.0202 -0.2853 -0.0577
   8123SM  H11S10756   2.371   3.813   7.621 -3.0636  1.7189 -0.8656
   8123SM  H11T10757   2.381   3.951   7.506  0.5225  0.8678  0.4431
   8123SM  C12S10758   2.465   3.996   7.694  0.6100  0.7519 -0.1663
   8123SM  H12S10759   2.515   3.955   7.785 -0.0634 -0.5569 -0.3738
   8123SM  H12T10760   2.364   4.028   7.726  0.3673 -0.4774  0.3242
   8123SM  C13S10761   2.550   4.117   7.644  0.0914  0.3081  0.0721
   8123SM  H13S10762   2.513   4.163   7.550 -0.7344 -0.2644  0.1009
   8123SM  H13T10763   2.644   4.068   7.612  0.0661  0.1139  0.2918
   8123SM  C14S10764   2.574   4.226   7.749  0.1468 -0.4191 -0.3782
   8123SM  H14S10765   2.480   4.278   7.779  0.9878  0.1822  1.3284
   8123SM  H14T10766   2.632   4.299   7.689 -0.1532 -2.4896 -3.4076
   8123SM  C15S10767   2.647   4.183   7.879  0.3877  0.4601  0.0902
   8123SM  H15S10768   2.742   4.126   7.867 -0.6557 -1.6776  1.2900
   8123SM  H15T10769   2.580   4.108   7.928  0.2117  1.4550  1.4191
   8123SM  C16S10770   2.671   4.296   7.987  0.5760 -0.2957  1.0918
   8123SM  H16S10771   2.583   4.362   7.977 -0.5121 -1.0852  4.3036
   8123SM  H16T10772   2.759   4.356   7.957  0.4004 -0.4866  0.1455
   8123SM  C17S10773   2.657   4.228   8.123  0.2179 -0.7163 -0.5726
   8123SM  H17S10774   2.553   4.196   8.144  0.7010 -2.3240 -0.4776
   8123SM  H17T10775   2.687   4.311   8.190  0.9032 -0.0682 -1.6432
   8123SM  C18S10776   2.772   4.132   8.151  0.6921 -0.8810 -0.3943
   8123SM  H18S10777   2.870   4.183   8.146 -0.9961  3.0948  1.5266
   8123SM  H18T10778   2.767   4.051   8.076  0.8208 -1.6034  0.3709
   8123SM  H18U10779   2.755   4.098   8.256 -0.7137 -1.1184 -0.6788
   8123SM   C1F10780   3.051   2.909   7.183 -0.7137 -0.4692  0.5692
   8123SM    OF10781   3.156   2.924   7.127 -0.1525  0.1207  0.0277
   8123SM   C2F10782   3.054   2.833   7.309  0.1018  0.7425  0.3854
   8123SM   H2F10783   2.959   2.777   7.322  1.6631 -2.1402  0.1661
   8123SM   H2G10784   3.053   2.899   7.399 -1.0847  0.0249  0.9240
   8123SM   C3F10785   3.173   2.741   7.318 -0.6628  0.3505  0.2025
   8123SM   H3F10786   3.275   2.785   7.319 -1.1371  1.5607 -1.2867
   8123SM   H3G10787   3.182   2.676   7.229  3.8432  0.5680  0.2265
   8123SM   C4F10788   3.172   2.657   7.447 -0.3821 -0.4753 -0.5544
   8123SM   H4F10789   3.259   2.587   7.450 -0.6735 -0.8456 -0.6218
   8123SM   H4G10790   3.077   2.599   7.452 -0.9836  0.5807  0.7790
   8123SM   C5F10791   3.205   2.739   7.576  0.0491  0.3363  1.4323
   8123SM   H5F10792   3.126   2.814   7.599 -1.4514 -1.0136  0.8633
   8123SM   H5G10793   3.301   2.795   7.563  1.7878 -2.6834  0.3274
   8123SM   C6F10794   3.207   2.650   7.699 -0.3986 -0.1402 -0.0446
   8123SM   H6F10795   3.302   2.592   7.696  0.5011  1.2336  0.6840
   8123SM   H6G10796   3.119   2.582   7.695 -0.7777  0.3903 -1.0270
   8123SM   C7F10797   3.222   2.721   7.834  0.2663 -0.3761 -0.6801
   8123SM   H7F10798   3.321   2.772   7.832  0.6872 -1.0061  1.4303
   8123SM   H7G10799   3.252   2.645   7.910  0.1536  0.8308  0.5969
   8123SM   C8F10800   3.109   2.803   7.872 -0.0933 -0.3956  0.8303
   8123SM   H8F10801   3.020   2.754   7.827  0.5170 -0.6195 -0.1530
   8123SM   H8G10802   3.124   2.907   7.836  0.8036 -0.2787  1.5115
   8123SM   C9F10803   3.086   2.824   8.022  0.5978  0.1824  0.7566
   8123SM   H9F10804   3.012   2.902   8.049  0.0874 -0.1642  0.3787
   8123SM   H9G10805   3.186   2.848   8.064  0.9761 -2.7890  1.7566
   8123SM  C10F10806   3.036   2.690   8.096  0.5247 -0.3892 -0.0917
   8123SM  H10F10807   3.116   2.617   8.118  0.1706 -0.6595  0.3135
   8123SM  H10G10808   2.958   2.645   8.030 -1.5257  2.1916  0.3895
   8123SM  C11F10809   2.980   2.712   8.234 -0.9898 -0.0676 -0.4202
   8123SM  H11F10810   2.926   2.634   8.291  1.1351 -0.6231  0.9449
   8123SM  H11G10811   2.899   2.788   8.224  0.4373  1.4277 -1.2240
   8123SM  C12F10812   3.090   2.763   8.334  0.5467 -0.0288  0.3077
   8123SM  H12F10813   3.133   2.856   8.291  0.3371  0.0879  0.3481
   8123SM  H12G10814   3.161   2.677   8.337 -2.5022 -2.8157 -1.3866
   8123SM  C13F10815   3.030   2.795   8.474  0.2335 -0.4420  0.0268
   8123SM  H13F10816   3.020   2.700   8.532 -4.5659 -0.1449  0.0846
   8123SM  H13G10817   2.923   2.825   8.475 -0.2904 -2.2043  1.1150
   8123SM  C14F10818   3.130   2.879   8.550 -0.2956 -0.1058 -0.4358
   8123SM  H14F10819   3.138   2.980   8.503  2.5590  0.2852  0.6579
   8123SM  H14G10820   3.226   2.823   8.548 -1.4250 -2.1030 -2.5969
   8123SM  C15F10821   3.089   2.891   8.701 -0.1513  0.1154  0.1143
   8123SM  H15F10822   3.076   2.785   8.731  3.6164 -1.0071 -1.5215
   8123SM  H15G10823   2.988   2.936   8.708 -0.7128 -0.6530 -2.3445
   8123SM  C16F10824   3.205   2.962   8.777  0.3080 -0.1622  0.4435
   8123SM  H16F10825   3.214   3.070   8.752  1.4890 -0.3866 -0.1644
   8123SM  H16G10826   3.302   2.921   8.741  0.1885  0.2779 -0.3990
   8123SM  C17F10827   3.192   2.945   8.928  0.5586  0.0459 -0.1490
   8123SM  H17F10828   3.211   2.840   8.955  2.2837 -0.3180 -2.4421
   8123SM  H17G10829   3.093   2.984   8.960 -0.3727 -0.2734 -2.4060
   8123SM  C18F10830   3.306   3.017   9.010  0.1000 -0.2567 -0.5645
   8123SM  H18F10831   3.292   3.127   9.004  0.5857 -0.1606 -0.0337
   8123SM  H18G10832   3.409   2.992   8.977  0.9590 -0.2569  1.9137
   8123SM  C19F10833   3.301   2.982   9.163 -0.0756 -0.0926 -0.3860
   8123SM  H19F10834   3.343   2.880   9.167 -0.9690 -0.4932 -0.8895
   8123SM  H19G10835   3.196   2.975   9.200  0.6990 -0.5707  1.9001
   8123SM  C20F10836   3.385   3.086   9.255  0.1416 -0.0616  0.3512
   8123SM  H20F10837   3.347   3.063   9.357 -1.0185 -0.7519 -0.2230
   8123SM  H20G10838   3.355   3.192   9.239 -0.9899 -0.8059 -3.2655
   8123SM  C21F10839   3.536   3.067   9.230  0.0690 -0.3847 -0.7870
   8123SM  H21F10840   3.558   3.109   9.129 -3.8536  1.5880 -0.9896
   8123SM  H21G10841   3.559   2.958   9.228  1.9116 -0.1512  1.9272
   8123SM  C22F10842   3.614   3.121   9.348 -0.4585  0.0739  0.3365
   8123SM  H22F10843   3.567   3.091   9.444  0.8905  1.8661  1.6520
   8123SM  H22G10844   3.606   3.232   9.349  1.5873  0.2857 -0.8533
   8123SM  C23F10845   3.756   3.072   9.345 -0.2987  0.6775 -0.1923
   8123SM  H23F10846   3.802   3.099   9.248  1.0837  0.9688  0.5248
   8123SM  H23G10847   3.758   2.962   9.361  0.5536  0.6033 -0.7300
   8123SM  H23H10848   3.819   3.118   9.423  0.1812 -0.6411  0.2283
   8223SM     N10849   3.079   3.376   6.551 -0.3137 -0.1414 -0.2576
   8223SM   C1510850   3.102   3.331   6.411  0.3467 -0.7083  0.3717
   8223SM  H15A10851   3.128   3.226   6.411  1.6618 -0.4822  3.7031
   8223SM  H15B10852   3.188   3.385   6.375  1.0291  0.4530  3.4844
   8223SM  H15C10853   3.012   3.341   6.352 -1.3180 -1.1913  2.7185
   8223SM   C1410854   3.060   3.520   6.552  0.5665 -0.5826  0.3025
   8223SM  H14A10855   3.044   3.560   6.652  1.6127  0.0189  0.2526
   8223SM  H14B10856   2.983   3.556   6.486  0.2694  0.0121  0.9625
   8223SM  H14C10857   3.154   3.563   6.521 -0.0063 -0.2174 -0.9990
   8223SM   C1310858   2.956   3.316   6.601  0.0369 -0.1359 -0.5978
   8223SM  H13A10859   2.937   3.350   6.701 -0.3794  0.4227 -0.8597
   8223SM  H13B10860   2.950   3.209   6.587 -0.9049 -0.0102 -1.2124
   8223SM  H13C10861   2.874   3.359   6.545  0.1409  0.5323 -0.2447
   8223SM   C1210862   3.199   3.328   6.636  0.3817  0.2281  0.0314
   8223SM  H12A10863   3.287   3.365   6.586  0.8825 -1.8446 -0.7283
   8223SM  H12B10864   3.207   3.221   6.620 -3.1778 -0.3908  1.4335
   8223SM   C1110865   3.203   3.355   6.789 -0.3981 -0.4345  0.3837
   8223SM  H11A10866   3.296   3.297   6.809 -0.0139 -0.8493 -2.1909
   8223SM  H11B10867   3.119   3.303   6.838 -0.2881 -1.0155 -0.0268
   8223SM     P10868   3.357   3.562   6.809  0.4357  0.5823 -0.0526
   8223SM   O1310869   3.422   3.514   6.682  0.6701  0.2836 -0.4214
   8223SM   O1410870   3.349   3.704   6.832 -0.4893 -0.2514 -1.0128
   8223SM   O1110871   3.435   3.498   6.930  0.1446 -0.1624 -0.2506
   8223SM   O1210872   3.210   3.498   6.823  0.5904  0.1287 -0.5406
   8223SM   C1S10873   3.376   3.502   7.061 -0.0380  0.7098  0.2562
   8223SM   H1S10874   3.268   3.477   7.053  0.2981 -0.2245 -2.9501
   8223SM   H1T10875   3.366   3.610   7.083  0.1490  1.3139 -2.2767
   8223SM    NF10876   3.378   3.417   7.288 -0.0337 -0.7867 -0.1429
   8223SM   HNF10877   3.399   3.479   7.363 -0.9842  0.8410 -1.1443
   8223SM   C2S10878   3.461   3.429   7.177  0.3568 -0.1085  0.9862
   8223SM   H2S10879   3.476   3.330   7.130  0.3054  0.0766  0.5793
   8223SM   C3S10880   3.594   3.501   7.205  0.5258 -0.2585  0.3821
   8223SM   H3S10881   3.569   3.603   7.241  1.7486 -0.5714  2.3019
   8223SM    O310882   3.662   3.537   7.089  0.1793 -0.0287 -0.2651
   8223SM   HO310883   3.597   3.552   7.021  0.0506  0.4080 -0.0485
   8223SM   C4S10884   3.684   3.437   7.308  0.5002 -0.1069 -0.7522
   8223SM   H4S10885   3.680   3.492   7.404 -1.6568 -1.0310 -0.2692
   8223SM   C5S10886   3.772   3.341   7.286 -0.1099  0.2638 -0.3187
   8223SM   H5S10887   3.786   3.300   7.185 -0.1847 -2.3643  0.6537
   8223SM   C6S10888   3.861   3.271   7.386 -0.0536 -0.4701  0.5456
   8223SM   H6S10889   3.888   3.169   7.351  1.1794 -0.5576  1.6781
   8223SM   H6T10890   3.814   3.259   7.486 -0.6765 -0.4841  0.2523
   8223SM   C7S10891   3.997   3.345   7.388  0.6544 -0.2521  0.3047
   8223SM   H7S10892   4.031   3.364   7.285 -2.0397 -0.8008 -0.7823
   8223SM   H7T10893   4.070   3.270   7.426 -1.1018 -1.7610  0.8608
   8223SM   C8S10894   3.996   3.468   7.477  0.2734  0.3625 -0.0529
   8223SM   H8S10895   3.903   3.528   7.461  0.8018  1.4782  0.8653
   8223SM   H8T10896   4.087   3.529   7.458 -0.6000  1.3463 -1.2578
   8223SM   C9S10897   3.998   3.441   7.630 -0.3583 -0.5270 -0.2754
   8223SM   H9S10898   4.071   3.359   7.644 -1.3471 -1.7341 -1.9260
   8223SM   H9T10899   3.899   3.401   7.660 -0.3514  0.3771  1.0505
   8223SM  C10S10900   4.021   3.565   7.717 -0.4415 -0.3432  0.3781
   8223SM  H10S10901   3.956   3.648   7.682  0.4518  0.9778  1.7080
   8223SM  H10T10902   4.125   3.600   7.698  0.1003 -1.3929  1.3189
   8223SM  C11S10903   4.015   3.536   7.866  0.0231 -0.4613  0.0975
   8223SM  H11S10904   4.086   3.451   7.881 -1.0784 -1.6409 -1.1362
   8223SM  H11T10905   3.910   3.511   7.889 -0.4567 -2.2668 -3.4524
   8223SM  C12S10906   4.071   3.659   7.949  0.4891  0.8355 -0.0103
   8223SM  H12S10907   3.990   3.735   7.956  0.9839  1.3729 -0.0249
   8223SM  H12T10908   4.161   3.697   7.896  1.8798 -2.6875 -0.4354
   8223SM  C13S10909   4.112   3.617   8.093  0.8099 -0.0697 -0.0981
   8223SM  H13S10910   4.191   3.541   8.078  1.3561  0.3190  0.7561
   8223SM  H13T10911   4.028   3.567   8.145  2.4918 -0.1956  2.6824
   8223SM  C14S10912   4.145   3.734   8.194 -0.2363  0.0887  0.7178
   8223SM  H14S10913   4.062   3.805   8.213 -1.3047 -1.5173  2.4696
   8223SM  H14T10914   4.225   3.795   8.149 -0.2470 -0.2917  0.1768
   8223SM  C15S10915   4.184   3.672   8.331  0.3523 -0.2520 -0.0327
   8223SM  H15S10916   4.245   3.581   8.315  2.4209  1.5882 -3.6495
   8223SM  H15T10917   4.091   3.641   8.384  0.6610  0.7389  1.1127
   8223SM  C16S10918   4.264   3.763   8.422 -0.0297  0.6613  0.1179
   8223SM  H16S10919   4.256   3.729   8.528 -2.1126  1.6341  0.3269
   8223SM  H16T10920   4.207   3.858   8.426 -1.5239 -0.1217 -1.2072
   8223SM  C17S10921   4.401   3.795   8.382  0.5845 -0.2898  0.6062
   8223SM  H17S10922   4.390   3.826   8.276 -0.5175 -0.4928  0.6417
   8223SM  H17T10923   4.471   3.709   8.376  0.6065 -0.1884 -1.0039
   8223SM  C18S10924   4.451   3.914   8.461  0.1543  0.4420 -0.6106
   8223SM  H18S10925   4.444   4.005   8.398  2.0586  0.3125 -1.0599
   8223SM  H18T10926   4.546   3.879   8.507 -0.7893 -1.6157 -0.0730
   8223SM  H18U10927   4.378   3.934   8.542 -0.1986  1.8371 -1.2574
   8223SM   C1F10928   3.264   3.342   7.286  0.2436 -0.6219 -0.3027
   8223SM    OF10929   3.232   3.283   7.186  0.4927  0.2626  0.5083
   8223SM   C2F10930   3.183   3.352   7.406 -0.2262 -0.0357  0.2901
   8223SM   H2F10931   3.110   3.432   7.380 -0.1575  0.1275  0.5982
   8223SM   H2G10932   3.248   3.381   7.491  0.3570 -4.1847  1.4911
   8223SM   C3F10933   3.105   3.229   7.429  0.3698 -0.1559  0.6668
   8223SM   H3F10934   3.164   3.137   7.449 -1.6037 -1.6625 -0.1156
   8223SM   H3G10935   3.037   3.200   7.346  2.1130  0.6218 -1.1320
   8223SM   C4F10936   2.998   3.248   7.543  0.1537  0.4001  0.0632
   8223SM   H4F10937   2.929   3.162   7.537  0.3359  0.3264 -1.2923
   8223SM   H4G10938   2.950   3.348   7.535  0.0338  0.3091 -0.3564
   8223SM   C5F10939   3.058   3.239   7.683 -0.1948  0.2903  0.3407
   8223SM   H5F10940   3.136   3.317   7.691 -1.0263  1.2571 -0.5611
   8223SM   H5G10941   3.105   3.139   7.678  0.1007  0.4359  0.1646
   8223SM   C6F10942   2.956   3.263   7.800  0.2832 -0.0208  0.0591
   8223SM   H6F10943   2.876   3.187   7.788 -0.0082  0.2907  0.0478
   8223SM   H6G10944   2.909   3.362   7.785 -0.4539 -0.5681 -1.4854
   8223SM   C7F10945   3.026   3.257   7.940  0.2759 -0.0864 -0.7635
   8223SM   H7F10946   3.117   3.320   7.926 -0.0753  0.1353 -2.1622
   8223SM   H7G10947   3.055   3.151   7.959 -1.2590 -0.0631  2.3838
   8223SM   C8F10948   2.939   3.307   8.052  0.0592 -0.8835 -0.2178
   8223SM   H8F10949   2.836   3.272   8.071 -0.6899  1.6314  0.8021
   8223SM   H8G10950   2.912   3.411   8.024 -2.0031 -0.5669  2.5713
   8223SM   C9F10951   3.007   3.308   8.190 -0.4358 -0.2809 -0.5953
   8223SM   H9F10952   3.046   3.205   8.203 -0.5578 -0.4587 -1.5335
   8223SM   H9G10953   2.933   3.315   8.272  0.5066 -2.4273  0.5356
   8223SM  C10F10954   3.108   3.418   8.199 -1.3152 -0.1528  0.7358
   8223SM  H10F10955   3.054   3.515   8.200 -0.6375  0.2318  2.4622
   8223SM  H10G10956   3.178   3.419   8.112 -0.1277 -1.2658  1.6465
   8223SM  C11F10957   3.193   3.413   8.320  0.3554  0.4990  0.1304
   8223SM  H11F10958   3.265   3.497   8.322 -0.0064  0.7937  0.9149
   8223SM  H11G10959   3.256   3.321   8.317 -3.3516 -2.2781 -0.1596
   8223SM  C12F10960   3.111   3.413   8.451 -0.4728 -0.0056 -0.8009
   8223SM  H12F10961   3.037   3.330   8.456 -0.6411  0.2064  1.7532
   8223SM  H12G10962   3.052   3.506   8.464 -0.5250 -0.2577  1.0491
   8223SM  C13F10963   3.206   3.415   8.572 -0.6481  0.0369  0.0895
   8223SM  H13F10964   3.274   3.501   8.554 -0.7199  0.0487 -0.1294
   8223SM  H13G10965   3.266   3.323   8.590  1.7449  1.5229  0.2010
   8223SM  C14F10966   3.147   3.434   8.710 -0.0655 -0.1076 -0.2521
   8223SM  H14F10967   3.046   3.389   8.722 -0.8844  1.8853  0.5753
   8223SM  H14G10968   3.145   3.541   8.737  1.1702 -0.0741 -0.2514
   8223SM  C15F10969   3.254   3.390   8.823 -0.2386  0.4587  0.0232
   8223SM  H15F10970   3.272   3.283   8.800 -0.8563  0.0131  1.5173
   8223SM  H15G10971   3.191   3.404   8.913 -0.8599 -2.8264  0.2229
   8223SM  C16F10972   3.386   3.467   8.820  0.0840 -0.1622  0.0191
   8223SM  H16F10973   3.372   3.576   8.801  0.7733 -0.4543 -2.3938
   8223SM  H16G10974   3.455   3.430   8.741  0.3662 -0.8962  0.5993
   8223SM  C17F10975   3.447   3.456   8.966  0.8003  0.0017  0.6688
   8223SM  H17F10976   3.450   3.352   9.004 -0.1271  0.2460  1.4315
   8223SM  H17G10977   3.373   3.507   9.031 -0.5018 -0.7929 -0.1610
   8223SM  C18F10978   3.582   3.525   8.981  0.1873 -0.5298 -0.4860
   8223SM  H18F10979   3.562   3.627   8.941 -2.1394 -0.8240 -0.2589
   8223SM  H18G10980   3.661   3.470   8.927  1.5589  0.9721 -0.0791
   8223SM  C19F10981   3.622   3.540   9.127  0.1508  0.5467  0.1083
   8223SM  H19F10982   3.653   3.442   9.169 -0.7051  0.0465 -0.3975
   8223SM  H19G10983   3.534   3.573   9.185  1.6666  1.7652  1.8252
   8223SM  C20F10984   3.739   3.631   9.152 -0.2517 -0.3037  0.5177
   8223SM  H20F10985   3.764   3.630   9.260 -2.0331  1.1431  0.9898
   8223SM  H20G10986   3.701   3.733   9.129 -2.0604 -1.1492 -0.4503
   8223SM  C21F10987   3.855   3.588   9.061  0.4754 -0.2530  0.5978
   8223SM  H21F10988   3.935   3.658   9.091  0.4106 -1.5870  4.4109
   8223SM  H21G10989   3.820   3.606   8.957  1.6032  2.4511  0.5962
   8223SM  C22F10990   3.908   3.444   9.072  0.0106  0.0778 -0.1204
   8223SM  H22F10991   3.997   3.442   9.006  0.8554 -1.7971  1.0155
   8223SM  H22G10992   3.827   3.383   9.028  0.2463  0.5669 -1.2919
   8223SM  C23F10993   3.933   3.378   9.201  0.3222 -0.0410 -0.3230
   8223SM  H23F10994   4.024   3.397   9.261 -0.6377  0.2822  1.0803
   8223SM  H23G10995   3.933   3.267   9.187 -0.1564 -0.0260 -0.4473
   8223SM  H23H10996   3.845   3.389   9.268  0.1553  2.4533 -0.8502
   8323SM     N10997   4.085   2.917   6.607  0.2487 -0.6229  0.8094
   8323SM   C1510998   3.969   2.834   6.562  0.1500  0.2614 -0.7939
   8323SM  H15A10999   3.902   2.820   6.645 -2.1941 -0.3030 -2.6607
   8323SM  H15B11000   4.009   2.740   6.528 -1.3180 -0.5963 -0.2113
   8323SM  H15C11001   3.912   2.887   6.487 -0.9602  0.3083  0.0688
   8323SM   C1411002   4.184   2.929   6.499 -0.0167 -0.1294  0.1568
   8323SM  H14A11003   4.265   2.995   6.527 -0.0013  0.4328 -1.1460
   8323SM  H14B11004   4.150   2.964   6.403  0.7740  0.0497 -0.0695
   8323SM  H14C11005   4.206   2.825   6.479 -2.3579 -0.6484  0.0378
   8323SM   C1311006   4.034   3.054   6.641  0.0338  0.3459  0.2163
   8323SM  H13A11007   3.970   3.092   6.563  0.5949  1.2193  0.1573
   8323SM  H13B11008   4.117   3.122   6.656  1.1892 -1.3507  1.9651
   8323SM  H13C11009   3.971   3.064   6.727  1.0367  1.6120  0.8392
   8323SM   C1211010   4.152   2.855   6.724 -0.2577 -0.3361  0.2670
   8323SM  H12A11011   4.245   2.906   6.745  0.5525 -0.9005 -1.6679
   8323SM  H12B11012   4.177   2.755   6.689 -3.4097 -0.6030 -1.5874
   8323SM   C1111013   4.067   2.835   6.853 -0.4351  0.3895  0.2677
   8323SM  H11A11014   4.055   2.934   6.901  0.5920  0.2010  0.9354
   8323SM  H11B11015   4.130   2.772   6.919 -0.5651  2.0006  2.0060
   8323SM     P11016   3.887   2.635   6.866 -0.1762 -0.0570  0.2474
   8323SM   O1311017   3.775   2.591   6.778  0.0293  0.3426  0.0780
   8323SM   O1411018   3.997   2.533   6.883 -0.2436 -0.4731 -0.3529
   8323SM   O1111019   3.828   2.666   7.006 -0.0299  0.2984  0.1422
   8323SM   O1211020   3.939   2.779   6.833  0.3464  0.4389 -0.2714
   8323SM   C1S11021   3.906   2.695   7.124 -0.4237  0.1091 -0.7801
   8323SM   H1S11022   4.001   2.742   7.091  0.7999 -2.3109 -0.9401
   8323SM   H1T11023   3.946   2.600   7.165 -0.1456 -0.4184 -2.2260
   8323SM    NF11024   3.898   2.801   7.353 -0.0758 -0.1670 -0.3017
   8323SM   HNF11025   3.848   2.790   7.438 -0.4714  1.6164 -0.2802
   8323SM   C2S11026   3.824   2.774   7.231 -0.8020 -0.4402  0.3941
   8323SM   H2S11027   3.820   2.865   7.167  1.0051 -0.4263  0.2434
   8323SM   C3S11028   3.675   2.722   7.250 -0.4446  0.2639 -0.1646
   8323SM   H3S11029   3.681   2.623   7.300 -2.9610 -0.6992 -1.6000
   8323SM    O311030   3.597   2.691   7.133 -0.6491  0.2690 -0.2946
   8323SM   HO311031   3.652   2.717   7.059 -0.5585  1.2169  0.0960
   8323SM   C4S11032   3.594   2.814   7.341 -0.4856 -0.0783  0.0035
   8323SM   H4S11033   3.594   2.781   7.446 -1.1932 -1.6527 -0.4664
   8323SM   C5S11034   3.513   2.917   7.306 -0.2642 -0.3707 -0.2265
   8323SM   H5S11035   3.501   2.944   7.200  0.6954  2.3072  0.2577
   8323SM   C6S11036   3.454   3.007   7.411  0.1126  0.8754  0.6862
   8323SM   H6S11037   3.349   2.974   7.422  0.0280 -0.1454 -2.2121
   8323SM   H6T11038   3.446   3.110   7.368  1.4679  0.1543 -1.4692
   8323SM   C7S11039   3.524   3.011   7.551 -0.2913  0.4985  0.2540
   8323SM   H7S11040   3.635   3.016   7.540 -0.3964  0.4307 -0.9329
   8323SM   H7T11041   3.495   2.925   7.615  0.9515  1.4870  2.2538
   8323SM   C8S11042   3.495   3.139   7.631  0.4770  0.0153  0.6967
   8323SM   H8S11043   3.388   3.171   7.632  0.7290  1.2956 -2.1790
   8323SM   H8T11044   3.554   3.221   7.585 -1.6343  0.9474 -0.4973
   8323SM   C9S11045   3.537   3.126   7.771  0.4454  0.5948 -0.2944
   8323SM   H9S11046   3.592   3.220   7.794 -0.8464  1.7957 -1.7639
   8323SM   H9T11047   3.607   3.041   7.781  1.4907  1.3844 -0.7247
   8323SM  C10S11048   3.415   3.111   7.867  0.8045 -0.0049  0.3294
   8323SM  H10S11049   3.340   3.036   7.835  1.0127 -1.8287  3.7361
   8323SM  H10T11050   3.363   3.208   7.853  2.9830  1.1576 -0.2160
   8323SM  C11S11051   3.455   3.090   8.010 -0.0880 -0.3642  0.0132
   8323SM  H11S11052   3.545   3.152   8.031  0.7093 -1.0624 -1.2161
   8323SM  H11T11053   3.493   2.986   8.004  0.5305 -0.0608 -3.2514
   8323SM  C12S11054   3.339   3.098   8.110 -0.7643  0.1907 -0.0490
   8323SM  H12S11055   3.247   3.066   8.056 -0.8656  0.9963 -0.3722
   8323SM  H12T11056   3.319   3.205   8.131  0.4138  0.6461 -1.1154
   8323SM  C13S11057   3.367   3.031   8.242 -0.9932  1.0298  0.3886
   8323SM  H13S11058   3.374   2.921   8.236  1.7592  1.0861  1.4113
   8323SM  H13T11059   3.276   3.037   8.305 -1.0926 -1.2865  0.5404
   8323SM  C14S11060   3.489   3.098   8.310  1.3296  1.1183 -0.2667
   8323SM  H14S11061   3.516   3.201   8.279  0.3567  2.4590  2.8550
   8323SM  H14T11062   3.575   3.034   8.283  0.8878  0.2444  0.3651
   8323SM  C15S11063   3.460   3.096   8.466 -0.1000  0.7076 -0.3930
   8323SM  H15S11064   3.434   2.989   8.482  0.4847  0.2108 -2.4189
   8323SM  H15T11065   3.378   3.166   8.491  1.3592  1.8235  1.5180
   8323SM  C16S11066   3.577   3.128   8.550  0.2908  0.3281 -0.3769
   8323SM  H16S11067   3.606   3.235   8.542  0.5811  0.3172  0.4747
   8323SM  H16T11068   3.663   3.062   8.530  0.0923 -0.4710  1.2438
   8323SM  C17S11069   3.542   3.102   8.699 -0.4594 -0.0836  0.4868
   8323SM  H17S11070   3.515   2.996   8.715 -1.6065  0.3918  1.9532
   8323SM  H17T11071   3.453   3.158   8.733 -0.9998 -1.1719  0.8914
   8323SM  C18S11072   3.659   3.150   8.784  0.0629  0.1072  0.1339
   8323SM  H18S11073   3.742   3.078   8.775 -0.1338 -0.0123 -0.7891
   8323SM  H18T11074   3.645   3.160   8.894  0.0241  1.1203  0.0502
   8323SM  H18U11075   3.696   3.250   8.751  0.7317 -0.3423 -0.4966
   8323SM   C1F11076   4.030   2.843   7.361  0.1172  0.5638 -0.2182
   8323SM    OF11077   4.082   2.875   7.257  0.4565  0.0424 -0.4583
   8323SM   C2F11078   4.098   2.824   7.492 -0.5444  0.9434  0.1189
   8323SM   H2F11079   4.181   2.753   7.469  0.8367  2.7061 -0.6072
   8323SM   H2G11080   4.029   2.775   7.563 -2.2288  1.4175 -1.1167
   8323SM   C3F11081   4.156   2.949   7.551 -1.0090  0.4511 -0.4564
   8323SM   H3F11082   4.213   3.001   7.471  2.1005 -2.3391 -0.2635
   8323SM   H3G11083   4.245   2.931   7.615  1.7403 -0.6955 -4.2598
   8323SM   C4F11084   4.062   3.050   7.617 -0.1169  0.4226 -0.9935
   8323SM   H4F11085   3.970   3.062   7.555  0.1184  2.0835 -1.0682
   8323SM   H4G11086   4.104   3.153   7.620  2.0881 -0.4581  0.8882
   8323SM   C5F11087   4.006   3.003   7.755  0.1825 -0.3392  0.0062
   8323SM   H5F11088   4.085   2.959   7.821  2.7591  0.5283 -2.3234
   8323SM   H5G11089   3.922   2.934   7.731  0.5584 -0.9837  0.4849
   8323SM   C6F11090   3.946   3.129   7.814 -0.0467 -0.1551  0.0897
   8323SM   H6F11091   3.868   3.166   7.744  2.7433  1.2399 -2.5313
   8323SM   H6G11092   4.035   3.195   7.802 -0.4040  0.2354 -0.4499
   8323SM   C7F11093   3.905   3.097   7.959 -0.4926 -0.0719  0.1696
   8323SM   H7F11094   3.985   3.048   8.019  1.0779  2.7320  0.5174
   8323SM   H7G11095   3.817   3.030   7.957 -1.4337  1.1167  0.3773
   8323SM   C8F11096   3.883   3.228   8.036  0.3699 -0.9465  0.5361
   8323SM   H8F11097   3.801   3.278   7.980  1.2510 -0.8280 -0.6667
   8323SM   H8G11098   3.968   3.295   8.011  0.3533 -1.4687 -1.0512
   8323SM   C9F11099   3.848   3.210   8.185 -0.0552  0.3589 -0.2086
   8323SM   H9F11100   3.803   3.111   8.207 -2.9399  1.5372 -0.4121
   8323SM   H9G11101   3.767   3.285   8.194 -0.4703 -0.0056 -0.8775
   8323SM  C10F11102   3.976   3.236   8.271 -0.0489  0.4280  0.3156
   8323SM  H10F11103   4.023   3.332   8.237  1.6176  0.2050  1.8673
   8323SM  H10G11104   4.045   3.150   8.257 -1.6985 -0.9037  0.0180
   8323SM  C11F11105   3.927   3.252   8.414  0.0665 -0.0361 -0.5445
   8323SM  H11F11106   3.864   3.164   8.440 -0.5781  0.3098 -0.9025
   8323SM  H11G11107   3.866   3.342   8.434  3.6158  2.6023 -0.5937
   8323SM  C12F11108   4.043   3.254   8.516  0.2995 -0.8851 -0.0345
   8323SM  H12F11109   4.104   3.163   8.497  1.7825 -0.0854  0.7198
   8323SM  H12G11110   4.003   3.253   8.619  0.2294 -0.8188 -0.0614
   8323SM  C13F11111   4.143   3.367   8.509 -0.8028  0.4145  0.3400
   8323SM  H13F11112   4.090   3.464   8.516 -0.0465  0.7213  4.3202
   8323SM  H13G11113   4.195   3.354   8.412 -1.4224  0.1562  0.0388
   8323SM  C14F11114   4.246   3.365   8.618  0.0199 -0.5601 -0.6410
   8323SM  H14F11115   4.330   3.435   8.598  0.2855 -0.3569  1.0529
   8323SM  H14G11116   4.293   3.265   8.629  1.6891 -0.2268 -3.6238
   8323SM  C15F11117   4.180   3.403   8.755 -0.5406 -0.3617  0.5747
   8323SM  H15F11118   4.128   3.310   8.786  0.4448 -0.8680  0.7375
   8323SM  H15G11119   4.091   3.469   8.742  0.0245  0.3803  0.4086
   8323SM  C16F11120   4.278   3.463   8.863 -0.1462 -0.1395  0.4210
   8323SM  H16F11121   4.370   3.401   8.852 -0.5782 -0.6116 -0.6834
   8323SM  H16G11122   4.239   3.457   8.966  1.5404 -1.8287  1.0246
   8323SM  C17F11123   4.304   3.612   8.829 -0.4266 -0.1660 -0.0324
   8323SM  H17F11124   4.206   3.665   8.825 -0.7786 -0.7809  0.1798
   8323SM  H17G11125   4.349   3.631   8.729 -0.1604  3.3342  0.6370
   8323SM  C18F11126   4.415   3.668   8.929  0.7092  0.0188 -1.5089
   8323SM  H18F11127   4.512   3.619   8.909  0.4562 -0.9796 -0.4256
   8323SM  H18G11128   4.386   3.627   9.028  1.0918 -1.3072 -1.9167
   8323SM  C19F11129   4.416   3.819   8.930  0.0918 -0.5151 -0.3626
   8323SM  H19F11130   4.325   3.849   8.986  0.4152 -0.4155  0.1192
   8323SM  H19G11131   4.414   3.862   8.828 -1.4821  0.3197 -0.0103
   8323SM  C20F11132   4.548   3.876   8.987  0.2869  0.1447  0.9747
   8323SM  H20F11133   4.548   3.986   8.967 -0.7605  0.0986  0.6637
   8323SM  H20G11134   4.629   3.832   8.924 -2.8979 -2.0967 -1.9586
   8323SM  C21F11135   4.555   3.861   9.136  0.0029 -0.2823 -0.5083
   8323SM  H21F11136   4.528   3.756   9.163  0.4092 -0.4127 -0.6058
   8323SM  H21G11137   4.482   3.922   9.193  0.0875  0.0138 -0.7122
   8323SM  C22F11138   4.691   3.898   9.194  0.3042  0.7258  0.0434
   8323SM  H22F11139   4.679   3.979   9.268  0.8542 -0.5195  1.5485
   8323SM  H22G11140   4.769   3.932   9.123  2.2406 -0.9532  1.2581
   8323SM  C23F11141   4.756   3.791   9.278 -0.5455 -0.3171 -1.1601
   8323SM  H23F11142   4.781   3.700   9.219 -1.7225  0.3440 -2.7505
   8323SM  H23G11143   4.696   3.751   9.362  0.1424 -0.2708 -0.6429
   8323SM  H23H11144   4.848   3.828   9.328 -0.5198  0.4934 -1.7895
   8423SM     N11145   3.323   0.098   6.863  0.0033  0.0610 -0.0888
   8423SM   C1511146   3.461   0.058   6.794  0.1153 -0.2353 -0.2337
   8423SM  H15A11147   3.547   0.121   6.812 -0.3959  0.1818  0.8873
   8423SM  H15B11148   3.452   0.031   6.690  1.1724  1.6015 -0.8512
   8423SM  H15C11149   3.489  -0.035   6.841 -1.0681  0.3433  1.7636
   8423SM   C1411150   3.245   0.214   6.797 -0.6578  0.4529 -0.2815
   8423SM  H14A11151   3.264   0.207   6.691 -2.3161 -2.9161 -0.4898
   8423SM  H14B11152   3.288   0.301   6.846  0.9580 -0.9955  1.0428
   8423SM  H14C11153   3.140   0.211   6.819 -0.4292  1.1160  1.0142
   8423SM   C1311154   3.238  -0.023   6.846  0.1093 -0.0196  0.2833
   8423SM  H13A11155   3.154  -0.024   6.914 -1.2405 -0.9651 -1.3197
   8423SM  H13B11156   3.304  -0.107   6.863  0.0294 -0.2968 -0.7444
   8423SM  H13C11157   3.197  -0.044   6.748  0.8630  0.6960 -0.1992
   8423SM   C1211158   3.352   0.132   7.014  0.7164 -0.4392 -0.2370
   8423SM  H12A11159   3.388   0.046   7.069  0.0353 -0.2398  0.5354
   8423SM  H12B11160   3.257   0.154   7.059  1.3589 -0.5635  1.2555
   8423SM   C1111161   3.449   0.250   7.041 -0.2621  0.8505 -0.1417
   8423SM  H11A11162   3.551   0.221   7.006  0.2750  2.3311  0.1374
   8423SM  H11B11163   3.455   0.266   7.151  1.6362 -2.2991  0.3305
   8423SM     P11164   3.511   0.495   6.988 -0.5503  0.5219 -0.1054
   8423SM   O1311165   3.641   0.449   6.931  0.1923  0.1626 -0.0195
   8423SM   O1411166   3.446   0.619   6.941 -0.3447 -0.0924 -0.3519
   8423SM   O1111167   3.520   0.508   7.148  0.4555  0.3099 -0.1353
   8423SM   O1211168   3.415   0.370   6.973  1.1876  0.1553  0.2087
   8423SM   C1S11169   3.607   0.613   7.209  0.9331  0.1422  0.2378
   8423SM   H1S11170   3.579   0.715   7.177  0.1432 -0.2904 -0.4961
   8423SM   H1T11171   3.711   0.602   7.172  0.3956 -2.6333 -0.7151
   8423SM    NF11172   3.623   0.742   7.423 -0.0859  0.8794 -0.3671
   8423SM   HNF11173   3.696   0.734   7.490  0.2697 -0.8272 -0.9236
   8423SM   C2S11174   3.589   0.617   7.362  0.0349  1.1480 -0.3421
   8423SM   H2S11175   3.481   0.596   7.376  0.6138 -3.4950 -1.1308
   8423SM   C3S11176   3.663   0.497   7.428  0.4619 -0.2910  0.7714
   8423SM   H3S11177   3.773   0.507   7.424  0.2949  1.7101 -1.1163
   8423SM    O311178   3.624   0.375   7.365  0.5686 -0.3408  0.0838
   8423SM   HO311179   3.595   0.391   7.275 -0.0656  1.1948  0.5210
   8423SM   C4S11180   3.617   0.488   7.569  0.4689 -0.3162  0.3910
   8423SM   H4S11181   3.510   0.468   7.585  0.2559 -0.4563 -1.0611
   8423SM   C5S11182   3.697   0.504   7.676 -0.3461  0.0628  0.3518
   8423SM   H5S11183   3.805   0.510   7.657 -0.5238 -0.8388 -1.1312
   8423SM   C6S11184   3.666   0.506   7.828  0.1399 -0.3629  0.2671
   8423SM   H6S11185   3.757   0.456   7.868  0.3701 -0.2267 -0.0822
   8423SM   H6T11186   3.576   0.451   7.863  0.5656 -0.6033  0.9920
   8423SM   C7S11187   3.662   0.656   7.875 -0.1173  0.5089  0.1425
   8423SM   H7S11188   3.589   0.708   7.810 -0.6714 -2.0667 -1.4510
   8423SM   H7T11189   3.760   0.702   7.851  0.0726  0.6239  1.0856
   8423SM   C8S11190   3.619   0.684   8.018  0.5987 -0.1483  0.4665
   8423SM   H8S11191   3.527   0.632   8.053  0.5391  0.1098  0.6975
   8423SM   H8T11192   3.607   0.794   8.027 -0.3896 -0.2987  1.1331
   8423SM   C9S11193   3.728   0.662   8.127 -0.1040 -0.0036 -1.0466
   8423SM   H9S11194   3.808   0.738   8.118 -0.8629  0.9418 -0.0575
   8423SM   H9T11195   3.771   0.560   8.118  0.2142 -0.0458  0.6368
   8423SM  C10S11196   3.671   0.670   8.268 -0.1831  0.4287 -0.2499
   8423SM  H10S11197   3.590   0.595   8.279  1.0904 -0.8971  0.5067
   8423SM  H10T11198   3.625   0.769   8.287  0.3707  1.0990 -2.2063
   8423SM  C11S11199   3.769   0.635   8.389 -0.6192 -0.1762 -0.2310
   8423SM  H11S11200   3.846   0.710   8.361  2.0224 -2.7634 -0.4351
   8423SM  H11T11201   3.815   0.535   8.369  0.0926  0.3537 -1.3740
   8423SM  C12S11202   3.710   0.648   8.530 -0.1130 -0.1071 -0.3994
   8423SM  H12S11203   3.653   0.555   8.554  0.1251 -0.5868 -1.6140
   8423SM  H12T11204   3.643   0.736   8.527  1.3967  1.0544 -1.8002
   8423SM  C13S11205   3.818   0.675   8.634 -0.2022  0.1073  0.2549
   8423SM  H13S11206   3.863   0.773   8.610 -0.0531 -0.4149 -1.7611
   8423SM  H13T11207   3.896   0.597   8.646  1.9231  1.6886 -2.1538
   8423SM  C14S11208   3.757   0.685   8.775 -0.3052 -0.1093  0.0489
   8423SM  H14S11209   3.844   0.681   8.844  0.9577  1.8766 -1.3119
   8423SM  H14T11210   3.690   0.597   8.784  1.1495 -1.2983 -0.3046
   8423SM  C15S11211   3.670   0.810   8.803 -0.0313  0.5951  0.1554
   8423SM  H15S11212   3.620   0.839   8.708 -0.3658 -0.4529 -0.0036
   8423SM  H15T11213   3.734   0.885   8.854  1.9907 -0.7630 -0.2497
   8423SM  C16S11214   3.566   0.790   8.917  0.2879 -0.3646 -0.7138
   8423SM  H16S11215   3.530   0.891   8.946  0.1048 -1.1868  2.2936
   8423SM  H16T11216   3.623   0.759   9.007 -1.0195 -1.1869 -0.1344
   8423SM  C17S11217   3.465   0.679   8.893 -0.1863  0.6550 -0.1619
   8423SM  H17S11218   3.516   0.583   8.919 -2.3079 -0.2257  1.0636
   8423SM  H17T11219   3.423   0.669   8.791  1.0986 -1.2124 -0.5682
   8423SM  C18S11220   3.342   0.676   8.990 -0.2530 -0.3376  0.1614
   8423SM  H18S11221   3.365   0.663   9.098  0.3056  1.4648  0.2998
   8423SM  H18T11222   3.258   0.610   8.962 -1.6009  1.8602 -1.2618
   8423SM  H18U11223   3.300   0.779   8.983  4.6396  1.9428  0.2457
   8423SM   C1F11224   3.569   0.857   7.387 -0.6087 -0.6151 -0.0511
   8423SM    OF11225   3.469   0.866   7.320  0.0480  0.2990 -0.2410
   8423SM   C2F11226   3.643   0.980   7.431  0.5130  0.3077 -0.2008
   8423SM   H2F11227   3.680   1.044   7.348  3.4341  0.1543  0.8622
   8423SM   H2G11228   3.737   0.951   7.482 -0.7202 -0.9818  1.4376
   8423SM   C3F11229   3.559   1.072   7.520  0.5305  0.5469 -0.2063
   8423SM   H3F11230   3.459   1.098   7.479  1.0109  0.5888 -1.3964
   8423SM   H3G11231   3.614   1.166   7.545  0.6103  0.3976  0.1954
   8423SM   C4F11232   3.536   0.996   7.648  0.0902  0.2961  0.2170
   8423SM   H4F11233   3.633   0.985   7.701  0.3909 -1.8574 -0.6886
   8423SM   H4G11234   3.480   0.900   7.643  0.8435 -0.0898 -1.5085
   8423SM   C5F11235   3.451   1.084   7.751  0.2756 -1.1617 -0.4392
   8423SM   H5F11236   3.352   1.106   7.705 -1.4900 -0.3540  3.3423
   8423SM   H5G11237   3.500   1.179   7.782  1.7020 -1.3512 -1.9708
   8423SM   C6F11238   3.439   1.011   7.884  0.1871  0.5399 -0.5333
   8423SM   H6F11239   3.538   0.982   7.925 -0.0914 -0.4906 -0.5683
   8423SM   H6G11240   3.393   0.914   7.857  1.2418 -0.2824  0.5003
   8423SM   C7F11241   3.354   1.076   7.998 -0.3567 -0.0054  0.7089
   8423SM   H7F11242   3.260   1.109   7.949 -0.3475 -1.1001 -0.0720
   8423SM   H7G11243   3.414   1.159   8.043  1.2084 -1.4386  1.3943
   8423SM   C8F11244   3.321   0.985   8.111  0.8554  0.2856 -0.1571
   8423SM   H8F11245   3.414   0.939   8.152  0.7895  1.1188  0.9685
   8423SM   H8G11246   3.253   0.906   8.073  1.1166  0.4947 -1.0849
   8423SM   C9F11247   3.248   1.057   8.228 -0.5684  0.1889  0.3534
   8423SM   H9F11248   3.168   1.126   8.194  1.3072  1.6189 -1.3744
   8423SM   H9G11249   3.320   1.124   8.281 -0.2141 -1.1829  1.6841
   8423SM  C10F11250   3.198   0.962   8.327  0.6540  0.7716  0.8271
   8423SM  H10F11251   3.279   0.896   8.365 -0.3179  0.2337  2.0395
   8423SM  H10G11252   3.125   0.897   8.274  0.1457  0.6280  1.6783
   8423SM  C11F11253   3.124   1.032   8.442  0.2817 -0.2960 -0.3257
   8423SM  H11F11254   3.080   0.945   8.495 -1.1255 -0.0066 -0.9873
   8423SM  H11G11255   3.040   1.095   8.408  1.5958  0.8569 -1.5796
   8423SM  C12F11256   3.212   1.109   8.544 -0.5060 -0.3150 -0.2698
   8423SM  H12F11257   3.261   1.196   8.495 -1.4475  0.4751  0.1660
   8423SM  H12G11258   3.298   1.048   8.578 -0.9074 -1.2543 -0.8704
   8423SM  C13F11259   3.134   1.163   8.663 -1.0696  0.9179  0.6881
   8423SM  H13F11260   3.102   1.075   8.723 -0.7887  0.0144 -0.4530
   8423SM  H13G11261   3.044   1.221   8.635 -0.6109  1.2819 -0.0670
   8423SM  C14F11262   3.211   1.278   8.729  0.3792  0.0901  0.2079
   8423SM  H14F11263   3.207   1.356   8.651  1.3425 -1.3299 -1.3242
   8423SM  H14G11264   3.319   1.258   8.743  1.4042  3.1784 -2.2352
   8423SM  C15F11265   3.128   1.332   8.851 -0.1804  0.9550  0.1523
   8423SM  H15F11266   3.035   1.384   8.819  0.3203  2.1281  0.5580
   8423SM  H15G11267   3.202   1.393   8.906 -0.0400 -0.3513  1.5090
   8423SM  C16F11268   3.086   1.220   8.958 -0.2627 -0.2665  0.4722
   8423SM  H16F11269   3.173   1.174   9.011 -0.7698 -1.9466 -0.0788
   8423SM  H16G11270   3.052   1.124   8.913 -0.0750  0.2641 -0.8139
   8423SM  C17F11271   2.983   1.268   9.061 -0.2235  0.5689  0.2898
   8423SM  H17F11272   2.908   1.341   9.024  0.4333  0.7964 -0.6178
   8423SM  H17G11273   3.048   1.337   9.119 -0.0932 -0.0784  0.9304
   8423SM  C18F11274   2.925   1.168   9.156  0.0031 -0.2777 -0.9716
   8423SM  H18F11275   2.861   1.094   9.102 -1.8268  0.8824 -0.4674
   8423SM  H18G11276   2.858   1.213   9.232 -0.4327 -0.8778 -0.9899
   8423SM  C19F11277   3.032   1.091   9.232  0.1249  0.2567 -0.8399
   8423SM  H19F11278   3.081   1.026   9.157 -2.5855 -2.2264 -0.6592
   8423SM  H19G11279   2.980   1.025   9.304 -0.7670 -0.3179 -1.9666
   8423SM  C20F11280   3.137   1.186   9.301  0.2086 -0.0915  0.5156
   8423SM  H20F11281   3.092   1.277   9.347 -0.3812 -0.0238 -0.1826
   8423SM  H20G11282   3.209   1.221   9.224  1.1637  1.7658  2.1434
   8423SM  C21F11283   3.216   1.113   9.405  0.5785 -0.0389  0.0847
   8423SM  H21F11284   3.277   1.033   9.357 -0.9113 -1.4562  0.4860
   8423SM  H21G11285   3.138   1.057   9.461 -0.1703 -0.5718 -1.4262
   8423SM  C22F11286   3.307   1.194   9.498 -0.3800 -0.4531  0.0936
   8423SM  H22F11287   3.242   1.258   9.561  1.9537  2.1960 -0.0067
   8423SM  H22G11288   3.383   1.253   9.442 -1.7916  2.1242  0.7394
   8423SM  C23F11289   3.391   1.096   9.589 -0.4781  0.0425  0.8563
   8423SM  H23F11290   3.322   1.033   9.649  1.2598 -1.0930  1.7440
   8423SM  H23G11291   3.452   1.154   9.662 -0.9564 -2.6567  3.6077
   8423SM  H23H11292   3.455   1.036   9.521 -2.5917 -2.0617  0.6079
   8523SM     N11293   6.076   2.076   6.849  0.2902 -0.0784  0.4387
   8523SM   C1511294   6.127   2.195   6.774  0.2137 -0.0561  0.7403
   8523SM  H15A11295   6.073   2.213   6.682 -0.1864  0.2296  1.0275
   8523SM  H15B11296   6.229   2.176   6.743 -0.0067  0.1245 -0.1299
   8523SM  H15C11297   6.120   2.288   6.829 -0.5526  0.1301  0.3471
   8523SM   C1411298   5.932   2.090   6.878 -0.6230  0.5496  0.0024
   8523SM  H14A11299   5.886   2.004   6.923  0.2065 -0.5483 -1.1579
   8523SM  H14B11300   5.869   2.113   6.793  1.3476  1.2207 -1.3559
   8523SM  H14C11301   5.918   2.178   6.939 -0.9902  1.5580 -1.4837
   8523SM   C1311302   6.075   1.954   6.764 -0.9446  0.1475  0.4595
   8523SM  H13A11303   6.165   1.931   6.710 -0.2348 -0.3124  1.7988
   8523SM  H13B11304   5.996   1.959   6.690 -0.6175 -0.3318  0.0799
   8523SM  H13C11305   6.060   1.863   6.820  1.5489  0.4955  1.8182
   8523SM   C1211306   6.148   2.059   6.980 -0.1422 -0.2995 -0.2279
   8523SM  H12A11307   6.254   2.042   6.966  0.1224  1.1132 -0.1436
   8523SM  H12B11308   6.115   1.968   7.027  0.6684 -0.5599 -0.1449
   8523SM   C1111309   6.147   2.175   7.082  0.1984 -0.5613 -0.4542
   8523SM  H11A11310   6.181   2.273   7.043  1.0265 -0.3334  0.7682
   8523SM  H11B11311   6.218   2.152   7.164 -1.5315  0.4040  1.3975
   8523SM     P11312   5.983   2.336   7.211 -0.1279  0.3304 -0.1641
   8523SM   O1311313   6.060   2.446   7.148  0.1009 -0.2072 -0.0637
   8523SM   O1411314   5.834   2.356   7.213  0.0096  0.2316 -0.4229
   8523SM   O1111315   6.022   2.317   7.361  0.0082  0.9898 -0.2262
   8523SM   O1211316   6.020   2.195   7.138  0.1351 -0.2680 -0.2629
   8523SM   C1S11317   5.977   2.198   7.436  0.2400  0.1851 -0.0271
   8523SM   H1S11318   6.020   2.109   7.385  0.3538 -0.6570  1.4996
   8523SM   H1T11319   5.867   2.185   7.421  0.4091 -0.4926 -0.7468
   8523SM    NF11320   5.979   2.094   7.651 -0.4526  0.4697  0.2862
   8523SM   HNF11321   5.906   2.096   7.718  0.3631  1.3423  1.1924
   8523SM   C2S11322   6.013   2.213   7.584 -0.2910 -0.3089  0.4970
   8523SM   H2S11323   6.120   2.241   7.592 -0.5212  0.4961  0.8588
   8523SM   C3S11324   5.940   2.339   7.638 -0.1289 -0.3289 -0.8911
   8523SM   H3S11325   5.832   2.333   7.614 -0.5172 -1.2401  0.9051
   8523SM    O311326   6.000   2.456   7.583  0.3265 -0.0301  0.3729
   8523SM   HO311327   6.057   2.412   7.519 -0.3287 -0.6303  0.1747
   8523SM   C4S11328   5.963   2.350   7.783 -0.5675 -0.5632 -0.1807
   8523SM   H4S11329   6.055   2.403   7.811 -1.0558 -0.9987  2.5213
   8523SM   C5S11330   5.889   2.304   7.881  0.6949  0.0862 -0.1765
   8523SM   H5S11331   5.789   2.268   7.852 -1.0993  1.5082  3.5607
   8523SM   C6S11332   5.918   2.312   8.029  0.1485 -0.0160  0.7431
   8523SM   H6S11333   5.967   2.215   8.049 -0.2470 -0.3336  0.1916
   8523SM   H6T11334   5.820   2.310   8.080  1.1211  0.3232  2.7276
   8523SM   C7S11335   6.011   2.422   8.081  0.3313  0.5903  0.2715
   8523SM   H7S11336   5.987   2.523   8.041  2.0498  1.7257  1.8803
   8523SM   H7T11337   6.108   2.392   8.035 -0.6743 -1.4889 -0.6279
   8523SM   C8S11338   6.029   2.432   8.227  0.1905  1.0333 -0.7698
   8523SM   H8S11339   5.947   2.475   8.288  1.2964  0.5225  1.1637
   8523SM   H8T11340   6.109   2.505   8.253  1.4319 -0.8552  0.9505
   8523SM   C9S11341   6.055   2.296   8.286 -0.1444  0.1730  0.3041
   8523SM   H9S11342   6.105   2.238   8.204 -1.0247  0.0851 -0.1835
   8523SM   H9T11343   5.962   2.237   8.303 -0.0473  0.3480  1.4928
   8523SM  C10S11344   6.130   2.290   8.419 -0.7141 -0.1107 -0.2049
   8523SM  H10S11345   6.225   2.348   8.421 -1.0048  0.3754 -0.3644
   8523SM  H10T11346   6.150   2.182   8.441 -2.3075 -0.5652 -0.8747
   8523SM  C11S11347   6.054   2.356   8.535  0.2498 -0.2985 -1.0134
   8523SM  H11S11348   5.947   2.328   8.545  0.0092  0.7346 -0.5918
   8523SM  H11T11349   6.059   2.462   8.503 -0.5752  0.2710  0.6149
   8523SM  C12S11350   6.112   2.340   8.676 -0.2236  0.0405  1.2310
   8523SM  H12S11351   6.067   2.418   8.741  0.7187  1.6560  0.0430
   8523SM  H12T11352   6.220   2.360   8.695  0.2949 -1.1254 -0.3047
   8523SM  C13S11353   6.081   2.204   8.743  0.0566  0.5363 -0.1727
   8523SM  H13S11354   6.145   2.130   8.691 -1.3041 -1.5151  0.9597
   8523SM  H13T11355   5.973   2.184   8.727 -0.3141  0.4712  2.0243
   8523SM  C14S11356   6.114   2.206   8.891 -1.1715 -0.1880  0.2445
   8523SM  H14S11357   6.058   2.289   8.939  1.4161  1.8562 -0.0397
   8523SM  H14T11358   6.220   2.236   8.904 -1.0114 -1.3574  2.0563
   8523SM  C15S11359   6.108   2.062   8.949 -0.1149 -0.2536 -0.6888
   8523SM  H15S11360   6.186   1.999   8.901 -0.2615 -0.3913 -0.7457
   8523SM  H15T11361   6.013   2.010   8.926 -0.7921  1.0546 -0.9375
   8523SM  C16S11362   6.127   2.060   9.105 -0.1344 -0.2190 -0.0084
   8523SM  H16S11363   6.225   2.108   9.128  0.4172 -1.4048  0.2155
   8523SM  H16T11364   6.135   1.958   9.148  0.5577 -0.6518 -1.0997
   8523SM  C17S11365   6.023   2.143   9.186 -0.5070  0.3385  0.6728
   8523SM  H17S11366   5.919   2.108   9.169 -0.3186 -0.0329  0.2801
   8523SM  H17T11367   6.040   2.250   9.159 -0.0273  0.7357  2.4473
   8523SM  C18S11368   6.061   2.127   9.332  0.4137 -0.2166  0.4562
   8523SM  H18S11369   5.983   2.186   9.387 -0.7826 -1.3862  0.0573
   8523SM  H18T11370   6.153   2.187   9.351  0.2292 -0.1918  1.3489
   8523SM  H18U11371   6.078   2.025   9.371  2.2002 -0.5380 -1.0644
   8523SM   C1F11372   6.065   1.992   7.632 -0.0301  0.3307  0.8353
   8523SM    OF11373   6.163   2.007   7.567  0.3161  0.2842 -0.0732
   8523SM   C2F11374   6.040   1.852   7.692  0.3227  0.1998 -0.5741
   8523SM   H2F11375   6.030   1.782   7.607 -2.4339  0.7188 -0.7577
   8523SM   H2G11376   5.942   1.853   7.745  1.0293  1.4585  0.7987
   8523SM   C3F11377   6.144   1.783   7.784 -0.4351  0.8999 -0.3754
   8523SM   H3F11378   6.239   1.755   7.733 -0.5267 -1.4897  0.6404
   8523SM   H3G11379   6.103   1.687   7.823 -0.7142  1.3347  0.4158
   8523SM   C4F11380   6.179   1.864   7.903 -0.4894  0.6299 -0.1652
   8523SM   H4F11381   6.089   1.868   7.969  0.5923 -0.2025  1.4282
   8523SM   H4G11382   6.207   1.963   7.862 -0.7584  0.7684 -0.0210
   8523SM   C5F11383   6.286   1.795   7.983  0.4529  0.1227  1.2626
   8523SM   H5F11384   6.377   1.765   7.927 -0.2262  0.1756  0.1024
   8523SM   H5G11385   6.242   1.696   8.008 -1.1133 -0.3693 -2.7007
   8523SM   C6F11386   6.316   1.853   8.118 -0.7383 -0.6001  0.6377
   8523SM   H6F11387   6.227   1.865   8.184  0.4900  0.3260  2.1855
   8523SM   H6G11388   6.372   1.946   8.096  1.2523 -1.5722  1.3353
   8523SM   C7F11389   6.406   1.753   8.183  0.3604 -0.4357 -0.2411
   8523SM   H7F11390   6.504   1.756   8.131 -0.3950 -0.2225 -1.7086
   8523SM   H7G11391   6.370   1.648   8.181 -2.2816  0.4150 -0.6125
   8523SM   C8F11392   6.426   1.793   8.330  0.5320  0.3543  0.4293
   8523SM   H8F11393   6.324   1.790   8.373 -0.6720 -0.9968 -2.3026
   8523SM   H8G11394   6.459   1.899   8.327 -1.3326  1.0524  2.2574
   8523SM   C9F11395   6.534   1.703   8.393 -0.5145 -0.7761  0.0746
   8523SM   H9F11396   6.633   1.729   8.350 -1.1308  0.0324 -0.9247
   8523SM   H9G11397   6.510   1.597   8.371 -1.5003 -0.8812  1.5364
   8523SM  C10F11398   6.550   1.721   8.548  0.5168  0.5363 -0.4942
   8523SM  H10F11399   6.449   1.700   8.591 -0.3745  2.5358 -1.4933
   8523SM  H10G11400   6.567   1.829   8.567 -0.0522  0.4309  0.7087
   8523SM  C11F11401   6.655   1.628   8.617  0.0794 -0.1444  0.2327
   8523SM  H11F11402   6.635   1.633   8.727 -0.4837  2.1946  0.0866
   8523SM  H11G11403   6.756   1.674   8.604 -0.1936  0.6046  0.7052
   8523SM  C12F11404   6.656   1.481   8.568  0.4426  0.1701 -0.2856
   8523SM  H12F11405   6.703   1.469   8.468  0.8505 -1.3683  0.0609
   8523SM  H12G11406   6.550   1.456   8.548  0.6892 -1.4938  0.3333
   8523SM  C13F11407   6.710   1.386   8.668  0.2521 -0.2339 -0.3452
   8523SM  H13F11408   6.659   1.409   8.765  1.1654 -0.1602  0.1260
   8523SM  H13G11409   6.817   1.411   8.683 -0.2256  0.4147  2.8021
   8523SM  C14F11410   6.704   1.231   8.637  0.2379  0.7298 -0.7713
   8523SM  H14F11411   6.793   1.212   8.574 -0.0688 -1.6130 -0.5826
   8523SM  H14G11412   6.613   1.197   8.584  0.0613 -1.9466  1.0456
   8523SM  C15F11413   6.708   1.133   8.761 -0.3165  0.3156 -0.3738
   8523SM  H15F11414   6.605   1.127   8.800 -0.7063 -0.4530 -1.4521
   8523SM  H15G11415   6.770   1.177   8.842  2.3646  0.6091 -2.3981
   8523SM  C16F11416   6.765   1.007   8.705  0.3395 -0.3836  0.1236
   8523SM  H16F11417   6.865   1.023   8.659  1.0835 -0.8200  1.5460
   8523SM  H16G11418   6.692   0.979   8.625 -0.2055  3.6245 -1.0160
   8523SM  C17F11419   6.771   0.893   8.811  0.2100  0.1266  1.1247
   8523SM  H17F11420   6.801   0.797   8.765 -1.1125 -0.8119  2.1566
   8523SM  H17G11421   6.670   0.879   8.856 -0.2245 -0.2795  0.0595
   8523SM  C18F11422   6.871   0.918   8.915 -0.7860 -0.0667  0.4423
   8523SM  H18F11423   6.867   1.018   8.964  0.5842  0.7893 -1.0825
   8523SM  H18G11424   6.970   0.910   8.866 -0.6151 -1.0297  0.9259
   8523SM  C19F11425   6.867   0.805   9.023  0.3074  0.6720  0.2738
   8523SM  H19F11426   6.909   0.710   8.981  0.1120  0.5119  0.4442
   8523SM  H19G11427   6.763   0.785   9.056  0.5357 -1.6271 -0.1749
   8523SM  C20F11428   6.946   0.838   9.150  0.3561 -0.5582  0.0865
   8523SM  H20F11429   6.961   0.747   9.211 -1.4670 -0.4131  0.8177
   8523SM  H20G11430   6.889   0.913   9.209  0.2565  1.0560 -1.9347
   8523SM  C21F11431   7.082   0.894   9.120 -0.0049  0.1635  0.7049
   8523SM  H21F11432   7.070   0.979   9.050  1.0447 -0.9433 -0.8899
   8523SM  H21G11433   7.145   0.811   9.082 -2.7182 -1.7195  0.0035
   8523SM  C22F11434   7.158   0.949   9.242  0.2895 -0.3535 -0.0820
   8523SM  H22F11435   7.149   0.869   9.319  2.0189 -0.2387  0.2850
   8523SM  H22G11436   7.095   1.030   9.284 -1.4507 -0.2693 -2.5812
   8523SM  C23F11437   7.303   0.989   9.218 -0.7971  0.7856 -0.6643
   8523SM  H23F11438   7.363   0.905   9.179  4.4046  2.3121  3.0235
   8523SM  H23G11439   7.351   1.008   9.316  0.1698  0.7848 -1.1256
   8523SM  H23H11440   7.303   1.077   9.150 -0.9760 -0.9091 -2.9741
   8623SM     N11441   2.487   0.843   7.041  0.1886 -0.2962  0.5484
   8623SM   C1511442   2.485   0.959   6.942  0.1905 -0.1259 -0.3074
   8623SM  H15A11443   2.396   1.014   6.967 -0.1798  0.1263 -2.0811
   8623SM  H15B11444   2.474   0.921   6.842 -2.9567 -0.8226  0.2219
   8623SM  H15C11445   2.567   1.028   6.959 -0.9736  1.1679  0.1695
   8623SM   C1411446   2.360   0.762   7.025  0.1102  0.1451 -0.1128
   8623SM  H14A11447   2.360   0.724   6.924 -1.3009 -0.7077  0.1846
   8623SM  H14B11448   2.272   0.825   7.029  0.6768  1.1181 -1.8176
   8623SM  H14C11449   2.366   0.677   7.091  1.3600  0.4960  0.2401
   8623SM   C1311450   2.613   0.761   7.003 -0.5285 -0.3248 -0.1086
   8623SM  H13A11451   2.614   0.717   6.905  0.5358 -0.9989  0.1861
   8623SM  H13B11452   2.618   0.680   7.074 -0.5945  1.6431  2.3047
   8623SM  H13C11453   2.703   0.818   7.024 -0.8597  0.4649 -0.7598
   8623SM   C1211454   2.503   0.898   7.183  0.2103 -0.4267  0.8751
   8623SM  H12A11455   2.447   0.990   7.189  0.5066 -0.1983  0.2178
   8623SM  H12B11456   2.606   0.931   7.186  0.3885 -0.7860 -0.4654
   8623SM   C1111457   2.482   0.806   7.301 -0.1787  0.6227 -0.3101
   8623SM  H11A11458   2.398   0.735   7.285 -0.1327  0.5820 -0.3722
   8623SM  H11B11459   2.438   0.856   7.390 -0.4938 -1.6361  0.8939
   8623SM     P11460   2.712   0.796   7.408  0.3283  0.0749 -0.1551
   8623SM   O1311461   2.822   0.700   7.415 -0.1694  0.5034  0.2782
   8623SM   O1411462   2.730   0.924   7.343 -0.2523  0.4924  0.1407
   8623SM   O1111463   2.654   0.818   7.553  0.3389  0.3116  0.5982
   8623SM   O1211464   2.597   0.727   7.328 -0.1799 -0.2748 -0.9445
   8623SM   C1S11465   2.611   0.706   7.634 -0.2460 -0.3104  0.3816
   8623SM   H1S11466   2.656   0.612   7.595 -0.5377 -1.2424  2.1738
   8623SM   H1T11467   2.501   0.696   7.626  0.1028 -3.5115 -2.8811
   8623SM    NF11468   2.630   0.592   7.844  0.2590  0.0976 -0.2494
   8623SM   HNF11469   2.538   0.582   7.879 -0.4034 -3.2145 -2.5115
   8623SM   C2S11470   2.662   0.721   7.784  0.0108 -0.2680  1.2081
   8623SM   H2S11471   2.772   0.739   7.782 -0.2895  1.7670 -0.1142
   8623SM   C3S11472   2.596   0.851   7.845 -0.5154  0.4415  0.8131
   8623SM   H3S11473   2.485   0.845   7.844 -0.4991 -0.5540 -2.2009
   8623SM    O311474   2.626   0.965   7.766  0.1630  0.2815 -0.5313
   8623SM   HO311475   2.648   0.920   7.684  3.1819  0.9008 -0.1675
   8623SM   C4S11476   2.642   0.870   7.983  0.0313  0.4644  0.3200
   8623SM   H4S11477   2.567   0.838   8.057 -1.8474 -0.0796 -1.6954
   8623SM   C5S11478   2.772   0.908   8.011  0.1375 -0.2977  0.0874
   8623SM   H5S11479   2.840   0.941   7.931  2.3131 -0.7223  1.6722
   8623SM   C6S11480   2.845   0.906   8.143 -0.2812  0.1676  0.0780
   8623SM   H6S11481   2.830   1.008   8.183  0.7147  0.2114  0.3759
   8623SM   H6T11482   2.954   0.884   8.131 -0.6032 -1.6764  0.1922
   8623SM   C7S11483   2.805   0.797   8.244 -0.0176  0.5943  0.3562
   8623SM   H7S11484   2.694   0.793   8.246 -0.1739  1.9729 -2.1984
   8623SM   H7T11485   2.839   0.829   8.345  1.0434  0.7194 -0.0346
   8623SM   C8S11486   2.849   0.652   8.227  0.1676  0.5984 -0.0227
   8623SM   H8S11487   2.956   0.654   8.199 -0.4075 -0.8757 -2.6934
   8623SM   H8T11488   2.804   0.605   8.137  0.2709 -5.2523  2.5348
   8623SM   C9S11489   2.821   0.557   8.352 -0.0329 -0.2968 -0.1162
   8623SM   H9S11490   2.759   0.614   8.424  2.6221  0.3679  1.8384
   8623SM   H9T11491   2.919   0.537   8.402 -0.6077 -1.2561  0.6812
   8623SM  C10S11492   2.769   0.417   8.307 -0.0188  0.0033 -0.5936
   8623SM  H10S11493   2.802   0.395   8.203  3.4381 -1.3321  0.6440
   8623SM  H10T11494   2.659   0.429   8.303 -0.0839 -0.1090  0.5337
   8623SM  C11S11495   2.824   0.318   8.406 -1.0115  0.1943 -0.3935
   8623SM  H11S11496   2.934   0.325   8.418 -0.9047 -0.6520 -0.8534
   8623SM  H11T11497   2.794   0.214   8.380  0.6754 -0.7078  1.0261
   8623SM  C12S11498   2.770   0.318   8.548 -0.2430 -0.1785  0.2982
   8623SM  H12S11499   2.660   0.308   8.546 -0.1976 -1.0611  1.3044
   8623SM  H12T11500   2.793   0.416   8.594  1.8923  0.0062 -1.0151
   8623SM  C13S11501   2.834   0.203   8.630  0.1076 -0.5720 -0.2232
   8623SM  H13S11502   2.944   0.206   8.621  0.1108 -1.2477 -0.4801
   8623SM  H13T11503   2.804   0.104   8.589  0.1533 -0.1483 -1.2990
   8623SM  C14S11504   2.798   0.212   8.777  1.0263  0.4158 -0.0677
   8623SM  H14S11505   2.690   0.238   8.783  1.0973  0.9965 -1.1601
   8623SM  H14T11506   2.851   0.297   8.825  0.8422  0.2839  0.3744
   8623SM  C15S11507   2.816   0.081   8.850 -0.5059 -0.1081 -0.1684
   8623SM  H15S11508   2.909   0.027   8.823  0.5192  1.5158 -0.0581
   8623SM  H15T11509   2.733   0.021   8.808  0.8263 -1.5754 -0.7844
   8623SM  C16S11510   2.810   0.097   9.003  0.3630  0.0807 -0.1274
   8623SM  H16S11511   2.826   0.200   9.040  1.9688 -0.6437  1.3612
   8623SM  H16T11512   2.902   0.046   9.038  0.7272  0.4236 -0.5736
   8623SM  C17S11513   2.680   0.038   9.066 -0.1414 -0.2525 -0.3452
   8623SM  H17S11514   2.654  -0.054   9.009 -2.8106  0.4063 -0.3356
   8623SM  H17T11515   2.596   0.112   9.060  1.1783  1.2543 -1.0353
   8623SM  C18S11516   2.702   0.003   9.218 -0.4234 -0.5760  0.7224
   8623SM  H18S11517   2.730   0.088   9.285  2.1420 -0.6585 -0.1442
   8623SM  H18T11518   2.791  -0.062   9.206  0.7400  0.4679  2.9310
   8623SM  H18U11519   2.613  -0.054   9.252 -2.1240  1.0004 -0.8259
   8623SM   C1F11520   2.709   0.482   7.816  0.5122 -0.7104  1.0496
   8623SM    OF11521   2.816   0.484   7.753  0.1969  0.4845  0.4555
   8623SM   C2F11522   2.652   0.351   7.865  0.2490  0.4543 -0.3177
   8623SM   H2F11523   2.601   0.297   7.783  2.2227  0.4218 -1.6044
   8623SM   H2G11524   2.580   0.377   7.945 -0.6957 -0.0172 -1.0060
   8623SM   C3F11525   2.762   0.267   7.920 -0.2127  0.0279 -0.4929
   8623SM   H3F11526   2.792   0.316   8.016 -1.3859  0.2184 -0.2149
   8623SM   H3G11527   2.852   0.256   7.856  0.8870  0.9568  0.8278
   8623SM   C4F11528   2.722   0.126   7.958 -0.1569  0.9369  0.2989
   8623SM   H4F11529   2.816   0.070   7.938 -0.5807  0.5107 -0.5267
   8623SM   H4G11530   2.654   0.073   7.888  0.4396 -2.4563  2.1121
   8623SM   C5F11531   2.684   0.113   8.101 -0.3927 -0.1147 -0.1333
   8623SM   H5F11532   2.594   0.175   8.116 -0.3684  0.0188 -0.5449
   8623SM   H5G11533   2.769   0.141   8.167 -0.6739 -0.4621  0.3857
   8623SM   C6F11534   2.635  -0.034   8.122  0.0096  0.1476  0.0905
   8623SM   H6F11535   2.713  -0.104   8.085  0.4237 -0.0261  1.2318
   8623SM   H6G11536   2.540  -0.043   8.066 -0.1513  0.5548  0.2953
   8623SM   C7F11537   2.613  -0.069   8.267  0.7269  0.9853  0.0151
   8623SM   H7F11538   2.706  -0.044   8.322 -0.4167  1.2507  1.9051
   8623SM   H7G11539   2.601  -0.179   8.271 -0.0201  1.0773  0.6249
   8623SM   C8F11540   2.490   0.002   8.325  0.2621 -0.1291 -0.0057
   8623SM   H8F11541   2.406   0.011   8.253  0.8883 -1.3714 -0.9098
   8623SM   H8G11542   2.529   0.106   8.332 -1.1545  0.3108  2.7162
   8623SM   C9F11543   2.431  -0.053   8.459 -0.2303  0.1921  0.3717
   8623SM   H9F11544   2.389  -0.155   8.444 -0.7016  0.1964  1.5344
   8623SM   H9G11545   2.348   0.011   8.496  0.2383  0.8880  0.2361
   8623SM  C10F11546   2.528  -0.047   8.576 -0.1072 -0.4582 -0.0621
   8623SM  H10F11547   2.535   0.059   8.607  1.0274 -0.3956 -0.5205
   8623SM  H10G11548   2.620  -0.090   8.531 -1.1414 -3.2865  0.2966
   8623SM  C11F11549   2.488  -0.128   8.707  0.1399  0.9685 -0.1290
   8623SM  H11F11550   2.588  -0.137   8.756  1.0439  2.4893 -1.5998
   8623SM  H11G11551   2.453  -0.230   8.679 -0.2506  0.9439  0.4344
   8623SM  C12F11552   2.383  -0.051   8.794  0.2402  0.5645  0.4221
   8623SM  H12F11553   2.288  -0.050   8.738  0.0867 -0.8006  0.6105
   8623SM  H12G11554   2.421   0.049   8.824 -0.6445  0.7547  0.9491
   8623SM  C13F11555   2.368  -0.115   8.930  0.0531  0.0110 -0.9301
   8623SM  H13F11556   2.468  -0.148   8.965  1.4146  1.9000 -2.7923
   8623SM  H13G11557   2.304  -0.205   8.923 -0.0368  0.0987 -1.2639
   8623SM  C14F11558   2.300  -0.025   9.036 -0.6423 -0.1101 -0.7660
   8623SM  H14F11559   2.209   0.030   9.004 -0.6052  1.3622  1.4626
   8623SM  H14G11560   2.376   0.054   9.054 -0.1618 -1.0815  1.8943
   8623SM  C15F11561   2.278  -0.104   9.170 -0.3234  0.2267 -0.4048
   8623SM  H15F11562   2.351  -0.187   9.171  0.0865  0.5687 -1.1017
   8623SM  H15G11563   2.182  -0.159   9.169 -0.7145  0.8800  0.3415
   8623SM  C16F11564   2.291  -0.011   9.286 -0.5884 -0.7154  0.2864
   8623SM  H16F11565   2.238   0.084   9.262 -0.1302 -0.5023  0.1017
   8623SM  H16G11566   2.396   0.024   9.293 -0.7310 -0.3017  0.4602
   8623SM  C17F11567   2.243  -0.062   9.414 -0.3656 -0.4506  0.0022
   8623SM  H17F11568   2.280  -0.161   9.447  0.8419 -0.2060 -0.5804
   8623SM  H17G11569   2.134  -0.072   9.397 -0.7039  0.5607  1.3814
   8623SM  C18F11570   2.262   0.038   9.534  0.7642 -0.1878 -0.5385
   8623SM  H18F11571   2.363   0.082   9.530  1.6419 -2.0751 -0.4209
   8623SM  H18G11572   2.247  -0.003   9.637  0.1535  3.5686  1.0214
   8623SM  C19F11573   2.159   0.150   9.524  0.4087  0.0011 -0.9020
   8623SM  H19F11574   2.064   0.112   9.567  1.3158 -2.1311 -0.6302
   8623SM  H19G11575   2.136   0.168   9.417 -1.0768 -0.1165 -0.6220
   8623SM  C20F11576   2.195   0.279   9.595 -0.3765 -0.0115 -0.0198
   8623SM  H20F11577   2.302   0.308   9.585 -0.0561 -1.5420 -1.3748
   8623SM  H20G11578   2.170   0.261   9.702 -0.5342  0.6980  0.0690
   8623SM  C21F11579   2.120   0.407   9.545  0.3527 -0.9297  0.1075
   8623SM  H21F11580   2.125   0.484   9.625 -0.1568 -0.3731 -0.3870
   8623SM  H21G11581   2.013   0.380   9.532 -0.0701  0.4364  0.5491
   8623SM  C22F11582   2.182   0.457   9.414  0.4378 -0.2520  0.0264
   8623SM  H22F11583   2.174   0.379   9.334 -0.1022 -0.9992  0.7911
   8623SM  H22G11584   2.289   0.483   9.426 -0.0005  2.4735 -1.1719
   8623SM  C23F11585   2.109   0.588   9.379 -0.3060  0.1593 -0.2794
   8623SM  H23F11586   2.009   0.561   9.337  0.0664  1.0251 -1.7816
   8623SM  H23G11587   2.171   0.628   9.296  1.3261  0.2913  0.9540
   8623SM  H23H11588   2.089   0.655   9.465 -3.4141 -0.9962  0.0453
   8723SM     N11589   3.110   7.211   6.965  0.0040  0.1218  0.0220
   8723SM   C1511590   3.191   7.083   7.000 -0.4804 -0.3568 -0.3463
   8723SM  H15A11591   3.151   7.001   6.941  0.6604 -1.5437  0.4843
   8723SM  H15B11592   3.175   7.055   7.103  2.3830  1.1404  0.6048
   8723SM  H15C11593   3.297   7.099   6.989 -0.5262  2.2936  2.0804
   8723SM   C1411594   3.141   7.251   6.824  0.7749 -0.3237 -0.7504
   8723SM  H14A11595   3.245   7.281   6.819  0.2939  1.5487 -0.4229
   8723SM  H14B11596   3.093   7.341   6.787  1.5365 -0.7492 -2.8911
   8723SM  H14C11597   3.122   7.174   6.750  0.8757  1.7557 -3.0929
   8723SM   C1311598   2.966   7.173   6.981 -0.2339  0.0736  0.2071
   8723SM  H13A11599   2.907   7.263   6.971  2.2222  1.8794  1.0907
   8723SM  H13B11600   2.954   7.128   7.078  0.1316  1.3258  0.8478
   8723SM  H13C11601   2.940   7.098   6.907 -0.8491  1.4254 -1.0178
   8723SM   C1211602   3.156   7.326   7.056 -0.0524 -0.2865  0.5644
   8723SM  H12A11603   3.099   7.313   7.147  0.0138 -0.2985  0.6041
   8723SM  H12B11604   3.106   7.417   7.028  0.7269  0.4151  1.3854
   8723SM   C1111605   3.310   7.344   7.080  0.5006 -0.2697  1.0168
   8723SM  H11A11606   3.355   7.259   7.135 -0.6062 -0.5971  1.4476
   8723SM  H11B11607   3.322   7.424   7.156 -0.5515 -1.8170  2.9048
   8723SM     P11608   3.532   7.372   6.955 -0.0113 -0.1066  0.0640
   8723SM   O1311609   3.565   7.226   6.934  0.1876  0.2333 -0.2364
   8723SM   O1411610   3.578   7.477   6.858 -0.1395  0.2970 -0.1716
   8723SM   O1111611   3.573   7.413   7.103 -0.0624 -0.3202  0.0461
   8723SM   O1211612   3.379   7.376   6.959  0.2968  0.0365 -0.2707
   8723SM   C1S11613   3.570   7.546   7.158 -0.3609 -0.1696  0.2355
   8723SM   H1S11614   3.467   7.575   7.189 -1.0995 -0.5965 -1.7039
   8723SM   H1T11615   3.612   7.615   7.082 -2.0097  0.1506 -0.4266
   8723SM    NF11616   3.627   7.654   7.379 -0.1155  0.0425  0.0116
   8723SM   HNF11617   3.673   7.740   7.361  0.1867 -0.3608 -1.2858
   8723SM   C2S11618   3.664   7.548   7.288  0.0937  0.1760 -0.3044
   8723SM   H2S11619   3.641   7.456   7.345  0.4852 -0.0481 -0.5041
   8723SM   C3S11620   3.811   7.542   7.244 -0.4728  0.0969 -0.2102
   8723SM   H3S11621   3.833   7.630   7.179  2.1034 -1.0206 -1.0118
   8723SM    O311622   3.844   7.432   7.159 -0.3891  0.5174 -0.0585
   8723SM   HO311623   3.759   7.393   7.138 -0.8474  2.0837 -1.2347
   8723SM   C4S11624   3.917   7.547   7.360  0.8380 -0.1915  0.9314
   8723SM   H4S11625   3.927   7.647   7.404 -0.6125 -0.9393  3.1343
   8723SM   C5S11626   3.995   7.450   7.416 -0.2601  0.1578  0.3123
   8723SM   H5S11627   3.991   7.350   7.370 -0.0720  1.0065 -1.6688
   8723SM   C6S11628   4.094   7.457   7.533  0.6426 -0.4925 -0.0732
   8723SM   H6S11629   4.080   7.551   7.590  1.0360  0.3070 -1.2464
   8723SM   H6T11630   4.199   7.459   7.497  0.2819  0.2077 -1.1485
   8723SM   C7S11631   4.068   7.335   7.625 -0.2179 -0.0873  0.2494
   8723SM   H7S11632   4.102   7.252   7.559  2.3806  0.1999  1.1301
   8723SM   H7T11633   3.959   7.330   7.643 -0.1276 -2.4936  0.3777
   8723SM   C8S11634   4.155   7.321   7.758  0.8086 -0.4973 -0.1779
   8723SM   H8S11635   4.260   7.356   7.743  0.4114  0.0438 -1.9216
   8723SM   H8T11636   4.148   7.213   7.783 -1.2509 -1.1003 -2.9158
   8723SM   C9S11637   4.095   7.413   7.868 -0.1549  0.2354  0.4668
   8723SM   H9S11638   3.990   7.379   7.883 -0.1691  0.0411 -0.0795
   8723SM   H9T11639   4.084   7.520   7.838  1.7681  0.0694 -0.9857
   8723SM  C10S11640   4.172   7.392   8.000  0.4689 -0.6490  0.3110
   8723SM  H10S11641   4.281   7.396   7.983  0.3468  0.7371 -0.2415
   8723SM  H10T11642   4.142   7.287   8.024 -0.5665 -0.6439 -0.8699
   8723SM  C11S11643   4.114   7.481   8.106 -0.1470  0.2017 -0.9518
   8723SM  H11S11644   4.009   7.450   8.127  0.7388 -2.0870  0.5234
   8723SM  H11T11645   4.106   7.580   8.057  5.1764  0.4279 -1.9937
   8723SM  C12S11646   4.200   7.486   8.235  0.3985 -0.7356 -0.3698
   8723SM  H12S11647   4.306   7.516   8.219  0.7622 -1.5849  0.3962
   8723SM  H12T11648   4.204   7.380   8.268 -2.9778 -1.3374 -1.5523
   8723SM  C13S11649   4.134   7.573   8.349 -0.7569  0.1051  0.6733
   8723SM  H13S11650   4.032   7.530   8.360  0.2638 -2.5748  0.5075
   8723SM  H13T11651   4.149   7.677   8.313  1.8630 -0.7090 -0.8109
   8723SM  C14S11652   4.212   7.553   8.479  1.0467  0.5339 -0.3320
   8723SM  H14S11653   4.313   7.508   8.464  1.2953  0.5180  1.2895
   8723SM  H14T11654   4.155   7.478   8.538 -0.1714  1.7324  0.0744
   8723SM  C15S11655   4.237   7.680   8.549 -0.5165 -0.6960 -0.2514
   8723SM  H15S11656   4.142   7.736   8.560 -0.5838 -0.6218 -1.1317
   8723SM  H15T11657   4.306   7.743   8.490 -1.1808 -0.7988 -1.1729
   8723SM  C16S11658   4.286   7.658   8.689  0.6127  0.1461 -0.9882
   8723SM  H16S11659   4.378   7.595   8.689 -0.8597 -2.1225 -0.3669
   8723SM  H16T11660   4.217   7.594   8.748  0.2638  0.4789 -1.0337
   8723SM  C17S11661   4.304   7.795   8.761  0.1364  0.2741  0.1605
   8723SM  H17S11662   4.225   7.870   8.744 -0.1123 -0.2438 -1.0603
   8723SM  H17T11663   4.397   7.839   8.718  0.4481 -0.7515 -0.2692
   8723SM  C18S11664   4.333   7.792   8.909  0.8496  0.4433 -0.0014
   8723SM  H18S11665   4.246   7.745   8.959  2.3943 -2.2808  0.3422
   8723SM  H18T11666   4.345   7.889   8.961  0.8225 -0.4287  1.7048
   8723SM  H18U11667   4.425   7.732   8.927 -0.8520 -1.9812  1.0774
   8723SM   C1F11668   3.509   7.654   7.445 -0.0734  0.5500  0.0649
   8723SM    OF11669   3.423   7.567   7.445  0.6593 -0.4494 -0.1942
   8723SM   C2F11670   3.491   7.786   7.519 -0.1626  0.5382  0.3008
   8723SM   H2F11671   3.441   7.851   7.443  0.9690 -0.3028 -1.2223
   8723SM   H2G11672   3.590   7.822   7.555  1.1226 -0.4072 -2.1015
   8723SM   C3F11673   3.395   7.760   7.642 -0.0945  0.4218  0.6968
   8723SM   H3F11674   3.434   7.667   7.689 -2.4541  0.4865  3.0085
   8723SM   H3G11675   3.298   7.733   7.594  1.4637 -2.0210 -1.3222
   8723SM   C4F11676   3.382   7.871   7.742  0.1072 -0.4580 -0.2399
   8723SM   H4F11677   3.323   7.944   7.682  0.9046 -0.0249 -0.5038
   8723SM   H4G11678   3.485   7.912   7.751 -0.1965  0.2832 -0.0048
   8723SM   C5F11679   3.329   7.833   7.876 -0.1018 -0.3740 -0.4329
   8723SM   H5F11680   3.349   7.921   7.941  1.8302 -1.9422  1.2266
   8723SM   H5G11681   3.381   7.745   7.919 -1.0676 -0.9778 -0.4505
   8723SM   C6F11682   3.178   7.803   7.871  0.2113  0.5910  0.3320
   8723SM   H6F11683   3.175   7.701   7.829  1.9835  0.8391 -0.5038
   8723SM   H6G11684   3.122   7.869   7.801 -1.4498 -0.0752  0.9918
   8723SM   C7F11685   3.108   7.812   8.006 -0.3469  0.3912  0.2688
   8723SM   H7F11686   3.000   7.795   7.991 -1.4884  3.1397  3.8518
   8723SM   H7G11687   3.121   7.919   8.035  1.1445  0.4812 -0.5933
   8723SM   C8F11688   3.156   7.707   8.101 -0.6953  0.2911 -0.4515
   8723SM   H8F11689   3.260   7.739   8.123 -1.0766  0.3427  1.4726
   8723SM   H8G11690   3.156   7.613   8.044  2.4488 -0.2638  0.2883
   8723SM   C9F11691   3.085   7.703   8.235  0.7408  0.2659  0.0474
   8723SM   H9F11692   2.978   7.682   8.212  1.0629 -2.0630  0.4297
   8723SM   H9G11693   3.079   7.802   8.286 -1.0435  0.0869  0.2580
   8723SM  C10F11694   3.140   7.596   8.325 -0.1013 -0.1451 -0.4263
   8723SM  H10F11695   3.247   7.624   8.335 -0.5627  1.4471  0.4017
   8723SM  H10G11696   3.132   7.494   8.283  0.2739 -0.0621 -0.7093
   8723SM  C11F11697   3.069   7.616   8.454 -0.7504  0.3934 -0.1003
   8723SM  H11F11698   2.962   7.594   8.436 -1.1931  0.7736  1.8429
   8723SM  H11G11699   3.065   7.720   8.493 -0.6730  0.9151 -1.4080
   8723SM  C12F11700   3.129   7.521   8.561  0.9014  0.0238 -0.0464
   8723SM  H12F11701   3.095   7.417   8.541 -0.1545  0.5590 -1.1692
   8723SM  H12G11702   3.075   7.542   8.656  0.8340  1.6328 -0.4066
   8723SM  C13F11703   3.279   7.540   8.587 -0.1768  0.2598 -0.8127
   8723SM  H13F11704   3.330   7.486   8.505  0.4078  0.2301 -0.4438
   8723SM  H13G11705   3.311   7.485   8.679  2.3127 -0.7873 -2.2133
   8723SM  C14F11706   3.322   7.686   8.595  0.2660  0.5576  1.1302
   8723SM  H14F11707   3.315   7.733   8.495 -0.4532 -0.7310  0.5449
   8723SM  H14G11708   3.430   7.680   8.620  0.5420 -1.2127 -0.3365
   8723SM  C15F11709   3.259   7.772   8.695 -0.3484 -0.0516  0.0963
   8723SM  H15F11710   3.156   7.789   8.657 -0.1752  0.3151 -0.2179
   8723SM  H15G11711   3.308   7.871   8.707 -0.4579 -0.1689  1.6610
   8723SM  C16F11712   3.255   7.703   8.828  0.2514  0.4169  0.4058
   8723SM  H16F11713   3.353   7.652   8.844 -0.3843 -0.9028  0.1995
   8723SM  H16G11714   3.171   7.630   8.833  0.3788  0.2071 -0.3444
   8723SM  C17F11715   3.236   7.812   8.937 -0.2856 -0.3350 -0.5182
   8723SM  H17F11716   3.145   7.866   8.903 -0.5717  1.5756  2.8851
   8723SM  H17G11717   3.330   7.869   8.950 -1.2463  0.6296  3.4445
   8723SM  C18F11718   3.205   7.748   9.073  0.0577  0.4108  0.5699
   8723SM  H18F11719   3.282   7.672   9.099 -0.7908  0.0606  2.1944
   8723SM  H18G11720   3.110   7.691   9.070  0.8988 -1.0395 -1.5810
   8723SM  C19F11721   3.189   7.847   9.188 -0.0998 -0.3821  0.4731
   8723SM  H19F11722   3.099   7.907   9.164  1.4102  0.9217 -2.4941
   8723SM  H19G11723   3.276   7.913   9.207  1.7496 -1.7934 -2.3296
   8723SM  C20F11724   3.143   7.782   9.319 -0.8195  0.6709 -0.9107
   8723SM  H20F11725   3.217   7.702   9.342 -0.4143  1.7459  1.9319
   8723SM  H20G11726   3.048   7.727   9.301  0.7137 -1.5241 -2.8783
   8723SM  C21F11727   3.143   7.870   9.446  0.2533 -0.2317 -0.1847
   8723SM  H21F11728   3.246   7.908   9.465  0.9399 -0.5225 -2.9462
   8723SM  H21G11729   3.125   7.813   9.540  2.8051 -1.7262 -0.5095
   8723SM  C22F11730   3.052   7.990   9.433 -0.5293  0.1730  0.1443
   8723SM  H22F11731   3.050   8.039   9.334 -0.1535  0.3414  0.2176
   8723SM  H22G11732   3.095   8.067   9.501 -2.4829  2.1582 -0.7753
   8723SM  C23F11733   2.915   7.950   9.485 -0.1526  0.1305 -0.0880
   8723SM  H23F11734   2.859   8.044   9.507  0.7141  1.6182 -3.5387
   8723SM  H23G11735   2.921   7.881   9.572  3.0525  0.5757  0.1954
   8723SM  H23H11736   2.869   7.884   9.409 -1.0688 -0.1335  0.6865
   8823SM     N11737   0.951   1.617   7.106  0.0770  0.1370 -0.4247
   8823SM   C1511738   0.951   1.599   6.959 -0.1169 -0.3451  0.2048
   8823SM  H15A11739   1.028   1.531   6.925 -0.5075  0.3137 -2.1627
   8823SM  H15B11740   0.970   1.695   6.914  0.3160 -0.8352 -0.6774
   8823SM  H15C11741   0.853   1.574   6.922 -0.0776  0.0238 -0.1520
   8823SM   C1411742   0.930   1.762   7.146 -0.5140 -0.0216 -0.4835
   8823SM  H14A11743   0.843   1.808   7.102 -1.5070 -1.2306  0.1683
   8823SM  H14B11744   1.022   1.815   7.123 -1.2401  0.2299 -3.1155
   8823SM  H14C11745   0.926   1.769   7.254 -1.5894 -1.4762 -0.3940
   8823SM   C1311746   0.825   1.541   7.160 -0.0628 -0.0665 -0.1188
   8823SM  H13A11747   0.842   1.439   7.128  0.1781  0.2171 -0.9485
   8823SM  H13B11748   0.736   1.588   7.120  0.4204  0.5463 -0.4910
   8823SM  H13C11749   0.811   1.551   7.266  0.6554  2.1739 -0.1744
   8823SM   C1211750   1.076   1.556   7.159 -0.2175  0.3262  0.7560
   8823SM  H12A11751   1.168   1.608   7.135 -0.0965  0.2022  0.9548
   8823SM  H12B11752   1.079   1.456   7.118 -1.4894  0.9641 -0.9955
   8823SM   C1111753   1.085   1.531   7.309  0.3249 -0.6157 -0.6077
   8823SM  H11A11754   1.053   1.622   7.363 -0.3387 -0.6741 -0.8949
   8823SM  H11B11755   1.195   1.519   7.322  0.3240 -0.9886 -0.8949
   8823SM     P11756   1.061   1.266   7.326  0.4265  0.1611 -0.0218
   8823SM   O1311757   0.940   1.185   7.310 -0.1207 -0.2758  0.1080
   8823SM   O1411758   1.167   1.252   7.221  0.2355 -0.0226  0.1371
   8823SM   O1111759   1.124   1.242   7.470  0.2718 -0.0358 -0.1585
   8823SM   O1211760   1.009   1.419   7.342 -0.7002 -0.3564 -0.3830
   8823SM   C1S11761   1.260   1.284   7.500  0.2650 -0.1118 -0.7017
   8823SM   H1S11762   1.309   1.334   7.415 -0.9900  1.8069 -0.3509
   8823SM   H1T11763   1.322   1.200   7.538  0.8995  0.1644 -1.1109
   8823SM    NF11764   1.416   1.446   7.628  0.0916  0.3414 -0.2420
   8823SM   HNF11765   1.463   1.422   7.712 -0.1202 -0.6019 -0.3755
   8823SM   C2S11766   1.276   1.387   7.617 -0.6451 -0.0764  0.1819
   8823SM   H2S11767   1.207   1.470   7.594  2.0331  2.2462 -0.0075
   8823SM   C3S11768   1.222   1.318   7.748 -0.4719  0.2547  0.3181
   8823SM   H3S11769   1.296   1.245   7.787  1.4368  1.4494 -0.8900
   8823SM    O311770   1.118   1.233   7.725  0.2474  0.2141  0.5456
   8823SM   HO311771   1.122   1.215   7.631 -0.8492  0.1367  0.4993
   8823SM   C4S11772   1.202   1.408   7.871  0.3415  0.0049  0.1944
   8823SM   H4S11773   1.290   1.462   7.909  0.1995  1.7970 -1.8101
   8823SM   C5S11774   1.080   1.469   7.909  0.4286 -0.3933 -0.0151
   8823SM   H5S11775   0.991   1.457   7.846  0.5338  2.0946 -0.7501
   8823SM   C6S11776   1.066   1.572   8.021 -0.4816 -0.3611 -0.2025
   8823SM   H6S11777   1.012   1.517   8.101  0.3217 -1.1901 -0.2133
   8823SM   H6T11778   0.989   1.647   7.994 -1.6641 -0.5262  2.3983
   8823SM   C7S11779   1.192   1.630   8.082 -0.0028 -0.9862 -0.2674
   8823SM   H7S11780   1.244   1.693   8.006 -1.6045 -2.0245 -2.3300
   8823SM   H7T11781   1.260   1.552   8.121  0.2431  0.2321  1.8918
   8823SM   C8S11782   1.165   1.741   8.191 -0.2144  0.8722 -0.1101
   8823SM   H8S11783   1.122   1.691   8.280  0.4670 -2.3385 -1.4385
   8823SM   H8T11784   1.104   1.822   8.145 -0.7829  1.5400  1.7497
   8823SM   C9S11785   1.292   1.823   8.229 -0.0660  1.0102  0.5978
   8823SM   H9S11786   1.327   1.880   8.140  0.9576 -1.0849 -0.4107
   8823SM   H9T11787   1.369   1.746   8.255 -2.3766 -2.0210 -0.8901
   8823SM  C10S11788   1.269   1.904   8.356  0.0647 -0.5589  0.0201
   8823SM  H10S11789   1.176   1.964   8.345  0.2164  0.0275  1.7464
   8823SM  H10T11790   1.352   1.978   8.358 -1.5739  1.3293  0.8459
   8823SM  C11S11791   1.272   1.832   8.487  0.3886  0.6504  0.6803
   8823SM  H11S11792   1.374   1.790   8.506  0.6698  1.4414  0.9690
   8823SM  H11T11793   1.196   1.751   8.483 -0.5057  1.4973 -2.1027
   8823SM  C12S11794   1.221   1.927   8.594 -0.0283  0.5810  0.2052
   8823SM  H12S11795   1.119   1.965   8.571 -1.2419  0.4678  4.5218
   8823SM  H12T11796   1.292   2.011   8.610  0.9862 -0.5962  2.1290
   8823SM  C13S11797   1.203   1.857   8.721  0.2571  0.4054 -0.2976
   8823SM  H13S11798   1.294   1.805   8.758  0.8983  2.3650  1.0655
   8823SM  H13T11799   1.117   1.787   8.714 -0.4450  1.2626 -0.3159
   8823SM  C14S11800   1.161   1.961   8.831  0.7731 -0.4639 -0.6422
   8823SM  H14S11801   1.078   2.022   8.789  1.3716 -0.0905 -1.3031
   8823SM  H14T11802   1.252   2.021   8.856 -0.3388  0.0272  2.7570
   8823SM  C15S11803   1.110   1.910   8.964  0.8096 -0.8644  0.0343
   8823SM  H15S11804   1.180   1.837   9.011 -1.3401 -2.2999  1.1777
   8823SM  H15T11805   1.019   1.851   8.939  0.4535 -0.4988  0.4751
   8823SM  C16S11806   1.069   2.022   9.067 -0.6181  0.1458  0.1561
   8823SM  H16S11807   1.021   2.100   9.005 -0.0463  1.0341  0.7981
   8823SM  H16T11808   1.161   2.073   9.104  1.3626 -2.2332 -1.1564
   8823SM  C17S11809   0.981   1.976   9.183  0.0213 -0.1389  0.6541
   8823SM  H17S11810   1.056   1.926   9.248  0.3259  0.2943  0.6372
   8823SM  H17T11811   0.916   1.893   9.147 -1.0545  1.1785 -0.5464
   8823SM  C18S11812   0.898   2.078   9.254 -0.4539  0.0389  0.2647
   8823SM  H18S11813   0.819   2.118   9.188  0.8950  0.6413 -1.0485
   8823SM  H18T11814   0.960   2.167   9.281 -0.2691  0.1405 -0.4935
   8823SM  H18U11815   0.848   2.033   9.342 -1.1248 -3.1633 -1.6093
   8823SM   C1F11816   1.468   1.535   7.541  0.4327  0.1126 -0.3338
   8823SM    OF11817   1.403   1.581   7.448  0.2509 -0.2702  0.1422
   8823SM   C2F11818   1.613   1.567   7.551  0.3486  0.2870 -0.2118
   8823SM   H2F11819   1.657   1.581   7.450  0.0220  3.3752 -0.0209
   8823SM   H2G11820   1.670   1.491   7.608  2.5882  1.5535 -0.6452
   8823SM   C3F11821   1.651   1.702   7.617  0.4878 -0.4901 -0.4325
   8823SM   H3F11822   1.602   1.778   7.552  0.6824 -2.0314 -2.4839
   8823SM   H3G11823   1.759   1.725   7.612  0.8224 -1.8484  0.1488
   8823SM   C4F11824   1.608   1.717   7.760 -0.0887  0.4434  0.5915
   8823SM   H4F11825   1.615   1.618   7.809 -2.7127 -0.0139  0.1795
   8823SM   H4G11826   1.501   1.747   7.754  0.0208  0.7276 -0.0563
   8823SM   C5F11827   1.668   1.837   7.835  0.5463 -0.4413 -0.3907
   8823SM   H5F11828   1.643   1.926   7.773 -2.2509  0.1738  1.4289
   8823SM   H5G11829   1.778   1.835   7.843  0.5526  1.6878  0.7905
   8823SM   C6F11830   1.622   1.845   7.986  0.2639  0.3927  1.0442
   8823SM   H6F11831   1.653   1.752   8.037 -0.5961 -0.3716  0.1976
   8823SM   H6G11832   1.512   1.843   7.997  0.0983  0.7867 -0.3255
   8823SM   C7F11833   1.684   1.972   8.059  0.2651 -0.0833 -0.2627
   8823SM   H7F11834   1.644   2.065   8.015  0.0012  0.4381  1.0414
   8823SM   H7G11835   1.794   1.974   8.044  0.1218 -0.0520 -1.4486
   8823SM   C8F11836   1.652   1.970   8.212  0.3863 -0.0202  0.1679
   8823SM   H8F11837   1.681   1.872   8.257 -1.9317 -0.7821  0.1405
   8823SM   H8G11838   1.544   1.988   8.231  0.1551 -0.2010 -0.9146
   8823SM   C9F11839   1.733   2.079   8.294  0.2533 -0.5824  0.0885
   8823SM   H9F11840   1.689   2.179   8.272 -1.6372 -1.4031 -0.0807
   8823SM   H9G11841   1.837   2.076   8.257 -0.2065  1.0551 -1.4440
   8823SM  C10F11842   1.739   2.056   8.446  0.5569 -0.5492 -0.1478
   8823SM  H10F11843   1.832   2.097   8.490  1.4942 -1.3815 -1.3072
   8823SM  H10G11844   1.738   1.948   8.474  1.2901 -0.4605  0.2307
   8823SM  C11F11845   1.617   2.123   8.509  0.0676  0.1187 -0.5856
   8823SM  H11F11846   1.517   2.082   8.482  0.2194 -2.3748  2.0899
   8823SM  H11G11847   1.609   2.231   8.488 -0.1480  0.4551  1.0254
   8823SM  C12F11848   1.619   2.116   8.669 -0.1117 -0.1873  0.3802
   8823SM  H12F11849   1.557   2.198   8.712  0.2540 -0.4935  1.5277
   8823SM  H12G11850   1.724   2.133   8.701 -0.0477 -0.5213  0.3520
   8823SM  C13F11851   1.584   1.983   8.737  0.1855 -0.2345 -0.6631
   8823SM  H13F11852   1.665   1.912   8.707  1.5679  0.6098  0.8953
   8823SM  H13G11853   1.482   1.943   8.718 -0.1665 -0.7635  1.9460
   8823SM  C14F11854   1.597   1.995   8.888 -0.2841 -0.7923 -0.2625
   8823SM  H14F11855   1.525   2.069   8.926  1.2876 -0.2093  1.7740
   8823SM  H14G11856   1.694   2.035   8.926 -1.2054  0.1752  1.1786
   8823SM  C15F11857   1.566   1.860   8.958 -0.2183 -0.6305 -0.4071
   8823SM  H15F11858   1.641   1.785   8.924  1.3370  1.2488 -1.3079
   8823SM  H15G11859   1.462   1.825   8.943 -0.1080 -0.1371 -2.5302
   8823SM  C16F11860   1.582   1.869   9.112  0.0859 -0.0714  0.0053
   8823SM  H16F11861   1.687   1.903   9.125  0.7116 -0.5363 -2.9327
   8823SM  H16G11862   1.565   1.764   9.144 -2.3170 -0.1490 -1.2807
   8823SM  C17F11863   1.472   1.954   9.174 -0.2353 -0.6406 -0.1838
   8823SM  H17F11864   1.375   1.903   9.157 -0.0876  0.1358 -4.4852
   8823SM  H17G11865   1.449   2.048   9.119 -1.4446 -0.6316  0.3160
   8823SM  C18F11866   1.466   1.984   9.324  0.0030 -0.0035 -0.3584
   8823SM  H18F11867   1.557   2.037   9.358 -0.8254  1.3160 -0.1323
   8823SM  H18G11868   1.461   1.885   9.375 -0.1520  0.1207 -0.1301
   8823SM  C19F11869   1.348   2.073   9.377 -0.0128  0.0984 -0.0431
   8823SM  H19F11870   1.253   2.017   9.363 -1.4882  2.5091 -0.2715
   8823SM  H19G11871   1.334   2.164   9.315 -1.8238  0.3668  0.6853
   8823SM  C20F11872   1.355   2.097   9.532 -0.2643 -0.2993  0.5527
   8823SM  H20F11873   1.265   2.154   9.563 -1.1001 -1.3015  0.0353
   8823SM  H20G11874   1.438   2.168   9.555 -0.6473 -0.3339  2.0950
   8823SM  C21F11875   1.359   1.969   9.608  0.3140  0.1707  0.1788
   8823SM  H21F11876   1.447   1.909   9.577 -0.1376 -0.4944  0.1589
   8823SM  H21G11877   1.274   1.905   9.575  1.7721 -1.8066  0.0562
   8823SM  C22F11878   1.351   1.990   9.759 -0.0901  0.0625  0.5904
   8823SM  H22F11879   1.250   2.033   9.773  0.0487  0.5260  0.2085
   8823SM  H22G11880   1.424   2.063   9.799 -0.4797  0.6331  0.2766
   8823SM  C23F11881   1.352   1.858   9.843 -0.3756  0.2215 -0.4833
   8823SM  H23F11882   1.269   1.787   9.823 -1.0671  0.1919  2.1364
   8823SM  H23G11883   1.352   1.888   9.950  3.5312 -0.3649 -0.1814
   8823SM  H23H11884   1.448   1.807   9.818  0.7005  1.7965  0.2430
   8923SM     N11885   4.313   0.755   6.689 -0.4308  0.1754 -0.0445
   8923SM   C1511886   4.166   0.744   6.685 -0.1277 -0.4325  0.0723
   8923SM  H15A11887   4.129   0.647   6.712 -0.2889  0.0039  1.4843
   8923SM  H15B11888   4.124   0.778   6.591 -0.3824 -0.4881  0.1664
   8923SM  H15C11889   4.121   0.816   6.753 -0.7314 -1.5194  0.8465
   8923SM   C1411890   4.371   0.648   6.600 -1.1107  0.0882  0.5822
   8923SM  H14A11891   4.330   0.550   6.619 -2.5224  0.6936  0.8054
   8923SM  H14B11892   4.479   0.644   6.606 -1.0974  1.2161  1.3755
   8923SM  H14C11893   4.351   0.672   6.497  1.7090 -1.2196 -0.3831
   8923SM   C1311894   4.347   0.892   6.640  0.0978 -0.6251 -0.2574
   8923SM  H13A11895   4.291   0.914   6.550 -0.4165  0.7999  0.3832
   8923SM  H13B11896   4.453   0.906   6.623  0.3666 -0.3366  1.5187
   8923SM  H13C11897   4.314   0.965   6.713 -0.9494 -0.1969 -1.1195
   8923SM   C1211898   4.373   0.743   6.829  0.6590 -0.3247 -0.8260
   8923SM  H12A11899   4.479   0.762   6.835  0.6327 -0.5154  2.0673
   8923SM  H12B11900   4.362   0.638   6.851  0.8962 -0.2617 -0.3979
   8923SM   C1111901   4.317   0.831   6.946 -0.0220 -0.1811 -0.0074
   8923SM  H11A11902   4.332   0.778   7.043 -0.1499 -1.0911 -0.4692
   8923SM  H11B11903   4.206   0.825   6.935 -0.2211  1.1825  1.0477
   8923SM     P11904   4.523   0.989   6.988 -0.7208  0.0763  0.3454
   8923SM   O1311905   4.621   0.948   6.882 -0.3051 -0.2029  0.2818
   8923SM   O1411906   4.530   1.128   7.043 -0.6272  0.2638 -0.0596
   8923SM   O1111907   4.537   0.894   7.112 -0.7805  0.4035 -0.2219
   8923SM   O1211908   4.375   0.956   6.944 -0.7856 -0.1770  0.2323
   8923SM   C1S11909   4.661   0.867   7.170  1.3180  0.4375  0.8635
   8923SM   H1S11910   4.738   0.939   7.136  2.3222 -0.8632  0.3153
   8923SM   H1T11911   4.688   0.767   7.129 -1.5831  0.7160 -2.1000
   8923SM    NF11912   4.796   0.827   7.365  0.5870  0.1504  0.5102
   8923SM   HNF11913   4.824   0.731   7.375  0.6682  0.2902  1.7827
   8923SM   C2S11914   4.659   0.862   7.327  0.7461  0.0740  0.2756
   8923SM   H2S11915   4.634   0.962   7.367 -0.5954  0.5282 -1.6014
   8923SM   C3S11916   4.555   0.750   7.371  0.2914 -0.0345  0.3839
   8923SM   H3S11917   4.589   0.649   7.340  1.1836  0.6265 -0.8917
   8923SM    O311918   4.425   0.758   7.306 -0.1466 -0.4575 -0.5790
   8923SM   HO311919   4.442   0.806   7.225 -0.9899 -0.9564 -1.0683
   8923SM   C4S11920   4.539   0.751   7.521 -0.3537  0.1467  0.1389
   8923SM   H4S11921   4.597   0.675   7.575  0.9933  0.4784 -0.7886
   8923SM   C5S11922   4.458   0.824   7.595  0.0603 -0.1718 -0.3901
   8923SM   H5S11923   4.385   0.899   7.560 -1.8989 -1.3771  0.8887
   8923SM   C6S11924   4.457   0.818   7.745 -0.0476 -0.4820 -0.2338
   8923SM   H6S11925   4.516   0.731   7.782 -1.2873 -2.0767 -1.8340
   8923SM   H6T11926   4.349   0.793   7.761 -0.2373 -1.0507 -2.1501
   8923SM   C7S11927   4.517   0.955   7.800  0.4819 -0.5212  0.0223
   8923SM   H7S11928   4.448   1.033   7.763 -1.9410 -1.1874  2.7951
   8923SM   H7T11929   4.618   0.983   7.762  1.4425 -2.9032  0.6136
   8923SM   C8S11930   4.501   0.971   7.953  0.1759 -0.1632 -0.5415
   8923SM   H8S11931   4.542   1.072   7.972  0.6500 -0.6665  1.3889
   8923SM   H8T11932   4.560   0.883   7.988 -3.7257 -3.2367 -0.9493
   8923SM   C9S11933   4.359   0.955   8.014  0.6043 -0.9236 -0.1197
   8923SM   H9S11934   4.339   0.848   7.994  1.0671 -1.1700  0.7124
   8923SM   H9T11935   4.285   1.014   7.956 -0.0112 -1.5106  0.0550
   8923SM  C10S11936   4.343   0.993   8.160 -0.9597  0.0975  0.0310
   8923SM  H10S11937   4.346   1.104   8.161  2.5371  0.1182  1.4219
   8923SM  H10T11938   4.423   0.951   8.225 -2.2132 -1.0231  0.9072
   8923SM  C11S11939   4.209   0.939   8.216 -0.6462  0.2403 -0.3442
   8923SM  H11S11940   4.200   0.834   8.182  2.1039 -0.7718  1.6812
   8923SM  H11T11941   4.130   1.000   8.167 -1.9773  1.3415  2.8881
   8923SM  C12S11942   4.183   0.944   8.367  0.2339 -0.7374  0.2708
   8923SM  H12S11943   4.248   0.866   8.413  0.7503 -0.7891 -0.5215
   8923SM  H12T11944   4.090   0.888   8.390  0.2779 -0.1792  1.9359
   8923SM  C13S11945   4.180   1.084   8.429 -0.2260 -0.7530 -0.5819
   8923SM  H13S11946   4.093   1.139   8.389 -0.9130 -1.2241  0.2289
   8923SM  H13T11947   4.273   1.143   8.411  1.4795 -2.6018  1.4739
   8923SM  C14S11948   4.139   1.082   8.581 -0.6391 -0.0638  0.3049
   8923SM  H14S11949   4.219   1.029   8.636 -0.1290 -0.8974 -1.1639
   8923SM  H14T11950   4.049   1.017   8.586 -0.4229 -0.4225 -0.3044
   8923SM  C15S11951   4.108   1.220   8.641 -0.2226 -0.2982  0.8578
   8923SM  H15S11952   4.048   1.205   8.733  1.2310 -0.4047  1.8250
   8923SM  H15T11953   4.055   1.284   8.568 -1.7128 -0.1207  2.0549
   8923SM  C16S11954   4.228   1.312   8.669  0.3679  0.3478 -0.6824
   8923SM  H16S11955   4.282   1.331   8.574 -0.1838 -0.6144 -1.1973
   8923SM  H16T11956   4.286   1.261   8.749 -0.2893 -0.5393 -0.7534
   8923SM  C17S11957   4.181   1.436   8.745  0.5534 -0.3349 -0.6113
   8923SM  H17S11958   4.126   1.397   8.833  1.2519  0.7837  0.3506
   8923SM  H17T11959   4.093   1.487   8.700 -0.7944 -1.1918  0.9010
   8923SM  C18S11960   4.290   1.524   8.785 -0.0108  0.8640  0.3721
   8923SM  H18S11961   4.301   1.606   8.712  4.0570 -1.1317 -1.5856
   8923SM  H18T11962   4.380   1.458   8.788  0.2394  1.1456 -0.6912
   8923SM  H18U11963   4.263   1.552   8.889 -2.8606  0.4230 -0.1520
   8923SM   C1F11964   4.887   0.927   7.362 -0.2333  0.4971 -0.6542
   8923SM    OF11965   4.857   1.045   7.351  0.4099 -0.1727 -0.5825
   8923SM   C2F11966   5.026   0.898   7.358 -0.5901 -0.6740  0.2516
   8923SM   H2F11967   5.067   0.946   7.267 -0.3338 -2.4407 -0.6038
   8923SM   H2G11968   5.036   0.788   7.346 -2.7996 -0.8728 -0.2244
   8923SM   C3F11969   5.114   0.936   7.484 -0.2859 -0.2245  1.0038
   8923SM   H3F11970   5.125   1.044   7.509  1.3477 -0.2970  0.6981
   8923SM   H3G11971   5.221   0.912   7.471  0.0758  1.7791 -0.1080
   8923SM   C4F11972   5.069   0.866   7.619  0.7385 -0.2309  0.0850
   8923SM   H4F11973   5.159   0.854   7.682 -0.1059  2.8625  2.1342
   8923SM   H4G11974   5.032   0.766   7.589 -2.2124  1.1185 -1.2234
   8923SM   C5F11975   4.958   0.948   7.702 -0.9154  0.0377  0.6043
   8923SM   H5F11976   4.921   0.894   7.791 -1.2724 -0.4353  0.1712
   8923SM   H5G11977   4.875   0.960   7.629 -0.5332  0.8767  0.2894
   8923SM   C6F11978   5.013   1.084   7.743 -0.2194 -0.1530 -0.3819
   8923SM   H6F11979   5.034   1.147   7.654  0.4416  2.8725  1.7614
   8923SM   H6G11980   5.109   1.053   7.790 -1.8368  0.2781  3.5062
   8923SM   C7F11981   4.913   1.176   7.819 -0.0974  0.1690 -0.5939
   8923SM   H7F11982   4.877   1.128   7.912  0.3237  1.5925  0.3328
   8923SM   H7G11983   4.824   1.191   7.753  0.3609 -3.6364 -2.3479
   8923SM   C8F11984   4.962   1.317   7.848 -0.1467 -0.3818  0.7753
   8923SM   H8F11985   4.991   1.361   7.750  1.5769 -0.8565  1.0257
   8923SM   H8G11986   5.058   1.304   7.903 -0.6903 -1.7315  1.4680
   8923SM   C9F11987   4.855   1.409   7.909  0.2176 -0.5940 -0.2620
   8923SM   H9F11988   4.810   1.364   8.001 -1.2807  1.1957 -0.0692
   8923SM   H9G11989   4.774   1.426   7.835  2.0489  1.2435 -1.9633
   8923SM  C10F11990   4.915   1.545   7.942 -0.1179 -0.1884  0.0521
   8923SM  H10F11991   4.952   1.595   7.849 -1.0349  0.3654 -0.0322
   8923SM  H10G11992   4.998   1.538   8.016  0.7496 -0.4157 -0.9213
   8923SM  C11F11993   4.810   1.630   8.017 -0.5109  0.1076  0.0453
   8923SM  H11F11994   4.759   1.571   8.096  2.0043 -3.0934 -0.5477
   8923SM  H11G11995   4.730   1.641   7.941 -1.4562  0.7526  1.0945
   8923SM  C12F11996   4.856   1.763   8.067 -0.5205  0.1148  0.0143
   8923SM  H12F11997   4.769   1.832   8.071 -0.6067 -0.0639  2.3968
   8923SM  H12G11998   4.927   1.809   7.995 -0.0597  1.0344  1.0284
   8923SM  C13F11999   4.930   1.751   8.206  0.3891  0.1991  0.6041
   8923SM  H13F12000   5.024   1.694   8.194 -1.0256 -2.0867 -0.4649
   8923SM  H13G12001   4.867   1.682   8.266  0.0813 -1.8330 -1.8546
   8923SM  C14F12002   4.951   1.892   8.268  0.4187  0.4830 -0.2087
   8923SM  H14F12003   4.852   1.940   8.282  0.4113  0.5720 -0.5390
   8923SM  H14G12004   5.014   1.950   8.197  1.6262  0.3369  0.7223
   8923SM  C15F12005   5.018   1.891   8.407 -0.0531 -0.0306 -0.1893
   8923SM  H15F12006   5.129   1.882   8.404  0.0020  0.6880 -0.3154
   8923SM  H15G12007   4.971   1.813   8.470  1.0312 -0.4505  0.1139
   8923SM  C16F12008   4.995   2.027   8.465  0.7687 -0.2471  0.0465
   8923SM  H16F12009   4.891   2.031   8.502  0.1674  0.5688 -1.6295
   8923SM  H16G12010   5.017   2.110   8.394 -1.2988 -0.6220 -1.1229
   8923SM  C17F12011   5.086   2.053   8.579 -0.6640  0.2334  0.7317
   8923SM  H17F12012   5.191   2.051   8.541 -0.8681  3.1410 -0.2235
   8923SM  H17G12013   5.078   1.971   8.654  3.5827 -0.0663  1.1561
   8923SM  C18F12014   5.071   2.189   8.646 -0.1675 -0.2425  0.1961
   8923SM  H18F12015   4.966   2.193   8.684 -0.5921  1.8295 -1.0174
   8923SM  H18G12016   5.097   2.264   8.568  1.5596 -2.0457 -1.0461
   8923SM  C19F12017   5.166   2.211   8.764  0.5030  0.1484  0.4787
   8923SM  H19F12018   5.272   2.215   8.729  0.0793  2.0516 -0.7451
   8923SM  H19G12019   5.148   2.121   8.827 -0.6208 -0.7240 -1.0105
   8923SM  C20F12020   5.142   2.343   8.834 -1.0812 -0.1928  0.3216
   8923SM  H20F12021   5.037   2.363   8.861 -1.2429 -2.6765  1.7523
   8923SM  H20G12022   5.183   2.421   8.766  1.5157 -0.7308  1.1371
   8923SM  C21F12023   5.229   2.345   8.960 -0.5270 -0.3220  0.2932
   8923SM  H21F12024   5.324   2.289   8.947  1.0175  2.2480 -0.1645
   8923SM  H21G12025   5.170   2.303   9.044  0.4901 -0.9538  0.7178
   8923SM  C22F12026   5.278   2.487   9.002  0.2965 -0.0757 -0.6671
   8923SM  H22F12027   5.182   2.543   9.008 -1.4599 -2.8821 -0.6612
   8923SM  H22G12028   5.342   2.528   8.921 -0.7138  0.0691 -1.4010
   8923SM  C23F12029   5.344   2.491   9.138 -0.5821  0.0650  0.3037
   8923SM  H23F12030   5.406   2.582   9.152  0.2505 -0.4139 -0.2564
   8923SM  H23G12031   5.409   2.402   9.150 -0.5512 -0.1978 -1.5346
   8923SM  H23H12032   5.277   2.481   9.227  1.4805 -0.0726  1.9069
   9023SM     N12033   4.223   7.659   6.985  0.3357 -0.1125  0.2347
   9023SM   C1512034   4.216   7.583   6.856 -0.2251 -0.2771 -0.3851
   9023SM  H15A12035   4.269   7.611   6.766  0.4444  0.0967  0.1157
   9023SM  H15B12036   4.114   7.600   6.826 -0.2500  1.2413  0.4564
   9023SM  H15C12037   4.215   7.475   6.860  1.7501 -0.3670 -1.2418
   9023SM   C1412038   4.222   7.805   6.958  0.1710  0.0633 -0.2632
   9023SM  H14A12039   4.119   7.837   6.950  0.1787  0.0663 -0.3393
   9023SM  H14B12040   4.269   7.829   6.864 -0.8909  2.5778 -0.2290
   9023SM  H14C12041   4.274   7.853   7.040  0.4606 -1.5333  0.5481
   9023SM   C1312042   4.088   7.632   7.065  0.4021 -0.7070  0.0342
   9023SM  H13A12043   4.068   7.526   7.072 -0.9742 -0.7673 -2.9315
   9023SM  H13B12044   4.005   7.670   7.007 -0.7068  0.3713  2.2390
   9023SM  H13C12045   4.085   7.671   7.165 -1.5665  0.1016 -0.2926
   9023SM   C1212046   4.345   7.604   7.059  0.0613  0.2208 -0.1876
   9023SM  H12A12047   4.438   7.618   7.007 -0.1136  2.6229  0.0185
   9023SM  H12B12048   4.321   7.499   7.071 -0.8144  0.4274 -0.0678
   9023SM   C1112049   4.371   7.661   7.200  0.5079  0.4788 -0.4201
   9023SM  H11A12050   4.445   7.602   7.258 -1.1773 -0.9873  0.3267
   9023SM  H11B12051   4.277   7.662   7.260  1.0711  1.4033  0.4920
   9023SM     P12052   4.547   7.856   7.174  0.1483 -0.1140 -0.1214
   9023SM   O1312053   4.613   7.787   7.056 -0.3755 -0.2570 -0.2237
   9023SM   O1412054   4.530   8.004   7.172 -0.1461 -0.2246  0.0399
   9023SM   O1112055   4.613   7.807   7.307 -0.4029 -0.3123  0.7843
   9023SM   O1212056   4.403   7.799   7.195  0.1948  0.4577  0.7333
   9023SM   C1S12057   4.726   7.871   7.368 -0.1704 -0.3108 -0.1330
   9023SM   H1S12058   4.695   7.975   7.388 -0.5661 -0.1144 -1.6674
   9023SM   H1T12059   4.810   7.868   7.296 -0.8042 -0.1836 -0.8884
   9023SM    NF12060   4.826   7.886   7.606 -0.0440 -0.1894 -0.4189
   9023SM   HNF12061   4.916   7.854   7.632 -0.3529 -0.8724 -0.1630
   9023SM   C2S12062   4.762   7.804   7.508  0.6293  0.2910  0.5396
   9023SM   H2S12063   4.665   7.771   7.551  0.4524  1.4744  1.0921
   9023SM   C3S12064   4.839   7.669   7.472  0.4638  0.0263 -0.1154
   9023SM   H3S12065   4.942   7.690   7.434  0.3648  0.2946 -0.2392
   9023SM    O312066   4.784   7.588   7.365 -0.4578  0.9361 -0.0023
   9023SM   HO312067   4.710   7.643   7.339 -1.5952  0.4708  2.0331
   9023SM   C4S12068   4.855   7.592   7.598 -0.4561  0.5251  0.1250
   9023SM   H4S12069   4.951   7.617   7.647 -1.3594  0.0955  2.2440
   9023SM   C5S12070   4.779   7.501   7.658  0.3917  0.4252 -0.1222
   9023SM   H5S12071   4.682   7.470   7.616  0.1587 -0.8036  1.2370
   9023SM   C6S12072   4.816   7.427   7.782 -0.0022 -0.0172 -0.5298
   9023SM   H6S12073   4.911   7.458   7.830 -0.9117  0.3582  1.1018
   9023SM   H6T12074   4.822   7.317   7.767  1.4554 -0.1788  1.0088
   9023SM   C7S12075   4.710   7.455   7.890  0.0918 -0.1770 -0.0737
   9023SM   H7S12076   4.608   7.453   7.845  0.6922 -2.8305 -1.5551
   9023SM   H7T12077   4.720   7.557   7.933  0.0809 -0.4020  0.4755
   9023SM   C8S12078   4.723   7.371   8.016  0.0223 -0.4150 -0.4854
   9023SM   H8S12079   4.828   7.359   8.053 -0.5126  1.0500  1.6504
   9023SM   H8T12080   4.708   7.268   7.976 -0.9628 -0.0010 -1.1935
   9023SM   C9S12081   4.634   7.407   8.135  0.0972 -0.9319 -0.1586
   9023SM   H9S12082   4.528   7.398   8.105  0.0131 -3.6265  0.7224
   9023SM   H9T12083   4.660   7.505   8.182  0.2676 -2.1187  2.4049
   9023SM  C10S12084   4.653   7.317   8.260 -0.2329  0.2158  0.3862
   9023SM  H10S12085   4.762   7.304   8.279  0.3150  1.9564 -1.2028
   9023SM  H10T12086   4.618   7.218   8.224  1.2909 -0.7940  1.5435
   9023SM  C11S12087   4.567   7.369   8.377  0.1023 -0.8091 -0.0949
   9023SM  H11S12088   4.462   7.356   8.344 -0.2442  1.1291  0.1373
   9023SM  H11T12089   4.581   7.477   8.399  0.5251 -0.6324 -1.1667
   9023SM  C12S12090   4.608   7.283   8.496 -0.0222 -0.8867 -0.4988
   9023SM  H12S12091   4.713   7.307   8.525 -0.2910 -0.5248  0.1905
   9023SM  H12T12092   4.612   7.178   8.460  2.8491  0.4383 -5.0092
   9023SM  C13S12093   4.519   7.297   8.624  0.1780 -0.8846  0.3908
   9023SM  H13S12094   4.422   7.252   8.592 -0.3696  0.5564 -0.0670
   9023SM  H13T12095   4.512   7.403   8.654  0.0200 -0.0470 -2.3633
   9023SM  C14S12096   4.560   7.209   8.747  0.0835  0.0975 -0.1140
   9023SM  H14S12097   4.485   7.243   8.822  0.2883  0.0947  0.0894
   9023SM  H14T12098   4.661   7.240   8.781  0.2388 -1.4685  0.9404
   9023SM  C15S12099   4.543   7.061   8.719 -0.5119  0.4835 -1.0209
   9023SM  H15S12100   4.617   7.040   8.638  0.5093  1.4636 -0.3698
   9023SM  H15T12101   4.438   7.043   8.686 -1.3660  0.9188  1.3078
   9023SM  C16S12102   4.561   6.974   8.840  0.0505  0.6744 -0.7221
   9023SM  H16S12103   4.661   6.992   8.885  0.5886  0.9854 -2.0094
   9023SM  H16T12104   4.562   6.870   8.799 -0.0893  0.4687 -0.2095
   9023SM  C17S12105   4.446   6.980   8.945  0.0278 -0.1079 -0.2660
   9023SM  H17S12106   4.399   7.080   8.945  1.9699  0.9644 -3.6873
   9023SM  H17T12107   4.475   6.959   9.051 -4.2317 -0.9225  0.9331
   9023SM  C18S12108   4.345   6.868   8.913 -0.2014  0.1057 -0.0566
   9023SM  H18S12109   4.265   6.861   8.990  2.0583  0.4904  2.4642
   9023SM  H18T12110   4.399   6.771   8.923  0.7317  0.7367  1.2907
   9023SM  H18U12111   4.308   6.879   8.809  0.9196  2.3133 -0.2821
   9023SM   C1F12112   4.773   8.001   7.655 -0.3623  0.6198 -0.2895
   9023SM    OF12113   4.663   8.046   7.627 -0.3793 -0.3167  0.0673
   9023SM   C2F12114   4.863   8.073   7.754 -0.0409 -0.5854  0.1846
   9023SM   H2F12115   4.944   8.122   7.696 -2.7314  0.8640 -2.6640
   9023SM   H2G12116   4.912   8.004   7.825  1.5749 -0.8972 -1.1784
   9023SM   C3F12117   4.784   8.182   7.838 -0.0488  0.1997  0.0938
   9023SM   H3F12118   4.700   8.130   7.889 -0.1316  0.3820  0.1460
   9023SM   H3G12119   4.751   8.254   7.760  3.2941  0.4552 -1.2220
   9023SM   C4F12120   4.876   8.261   7.933 -0.8262 -0.0226 -0.5302
   9023SM   H4F12121   4.960   8.313   7.882 -1.4526 -0.3926 -1.9781
   9023SM   H4G12122   4.919   8.190   8.007 -1.4260 -0.1618 -0.3090
   9023SM   C5F12123   4.799   8.365   8.010 -0.0025  1.1123  0.0853
   9023SM   H5F12124   4.732   8.428   7.947  0.0351 -0.1857 -1.3187
   9023SM   H5G12125   4.875   8.436   8.048  0.9456  0.9732 -1.4558
   9023SM   C6F12126   4.722   8.302   8.131  0.6401  0.5361 -0.0529
   9023SM   H6F12127   4.791   8.221   8.164  1.1495  0.5450 -1.0469
   9023SM   H6G12128   4.630   8.252   8.095  0.1257  1.3308  0.1514
   9023SM   C7F12129   4.668   8.409   8.233  0.5191  0.3836  0.0933
   9023SM   H7F12130   4.602   8.478   8.177  0.2398  1.6040  1.8491
   9023SM   H7G12131   4.759   8.458   8.275  2.6948 -2.9787 -0.3210
   9023SM   C8F12132   4.591   8.328   8.338 -0.5340 -0.3533 -0.0287
   9023SM   H8F12133   4.657   8.251   8.384  0.9819  0.0977 -1.3571
   9023SM   H8G12134   4.500   8.284   8.293 -0.7049 -0.9409  0.8652
   9023SM   C9F12135   4.546   8.420   8.450  0.3475 -0.2159 -0.5117
   9023SM   H9F12136   4.494   8.505   8.400  1.2011  1.4485  1.3263
   9023SM   H9G12137   4.640   8.460   8.491  0.1595  0.4978 -0.7576
   9023SM  C10F12138   4.482   8.348   8.569  0.6913 -0.0243 -0.1138
   9023SM  H10F12139   4.545   8.262   8.602  0.3282 -0.1931  0.1508
   9023SM  H10G12140   4.382   8.312   8.534  0.1519  0.3480  0.9889
   9023SM  C11F12141   4.461   8.450   8.686 -0.3137  0.0061  0.3853
   9023SM  H11F12142   4.390   8.397   8.752  2.2419 -1.5615  2.0566
   9023SM  H11G12143   4.423   8.545   8.643  2.3426  1.2456  0.5472
   9023SM  C12F12144   4.583   8.476   8.769  0.7186 -0.1435 -0.3188
   9023SM  H12F12145   4.675   8.505   8.713  0.6148  1.0963  0.1208
   9023SM  H12G12146   4.595   8.377   8.817 -3.8619 -0.9057 -0.3597
   9023SM  C13F12147   4.567   8.588   8.878  0.1161 -0.1591  0.8567
   9023SM  H13F12148   4.474   8.570   8.936  0.8340 -0.5060  1.9417
   9023SM  H13G12149   4.549   8.679   8.817  1.2141  0.5931  1.6134
   9023SM  C14F12150   4.685   8.612   8.965  0.8465  1.1805  0.2003
   9023SM  H14F12151   4.775   8.595   8.902  0.0609 -1.2954 -0.3986
   9023SM  H14G12152   4.701   8.532   9.040  1.5732  0.8624 -0.2832
   9023SM  C15F12153   4.690   8.743   9.041  0.2123 -0.5723  0.0069
   9023SM  H15F12154   4.596   8.753   9.100 -0.6856 -0.7901 -1.3221
   9023SM  H15G12155   4.698   8.827   8.969 -0.2047 -0.5003  0.0424
   9023SM  C16F12156   4.816   8.750   9.127 -0.3768 -0.3731 -0.6815
   9023SM  H16F12157   4.904   8.737   9.061  0.5504  1.7895  0.0531
   9023SM  H16G12158   4.813   8.661   9.193  0.9531  0.2329  0.2293
   9023SM  C17F12159   4.834   8.869   9.219 -0.3278 -0.1738 -1.0239
   9023SM  H17F12160   4.933   8.853   9.268 -1.1057 -1.6637  0.1323
   9023SM  H17G12161   4.750   8.863   9.291  0.1593  2.2076 -0.1572
   9023SM  C18F12162   4.822   9.011   9.165  0.8113 -0.4591  0.4926
   9023SM  H18F12163   4.854   9.084   9.242 -0.3556  1.1147 -0.4576
   9023SM  H18G12164   4.718   9.040   9.139  1.0637  0.8733  0.8982
   9023SM  C19F12165   4.911   9.046   9.046 -0.1332 -0.0355  0.2939
   9023SM  H19F12166   4.889   8.967   8.970 -1.6199 -0.9808  1.6344
   9023SM  H19G12167   5.015   9.022   9.076 -0.5574  0.6736  2.5359
   9023SM  C20F12168   4.896   9.194   9.001  0.2284  0.0254  0.2998
   9023SM  H20F12169   4.911   9.270   9.081  1.7230  0.6356 -0.5222
   9023SM  H20G12170   4.793   9.211   8.963  0.6421  0.5206 -0.6086
   9023SM  C21F12171   4.996   9.232   8.893 -0.0782  0.1912  0.1945
   9023SM  H21F12172   4.968   9.171   8.804  0.1248 -1.1922  1.0566
   9023SM  H21G12173   5.100   9.211   8.924  0.6094  0.9571 -1.4558
   9023SM  C22F12174   4.990   9.369   8.828  0.0824  0.2514  0.0075
   9023SM  H22F12175   5.059   9.379   8.742  0.6635  0.4622  0.4866
   9023SM  H22G12176   5.028   9.441   8.904 -2.9492  0.9104  1.0690
   9023SM  C23F12177   4.854   9.424   8.790  0.5576 -0.3728 -0.3329
   9023SM  H23F12178   4.782   9.428   8.875  0.3376 -3.2372 -0.3096
   9023SM  H23G12179   4.807   9.355   8.717  0.6205 -0.1450 -0.5911
   9023SM  H23H12180   4.864   9.523   8.741 -2.8497 -0.4118 -1.3610
   9123SM     N12181   5.794   3.218   6.822  0.5774 -0.5501  0.2225
   9123SM   C1512182   5.914   3.286   6.877 -0.1708 -0.1291 -0.4711
   9123SM  H15A12183   5.989   3.304   6.802  0.4574 -2.5593 -0.5257
   9123SM  H15B12184   5.968   3.232   6.954  1.0470  2.0604  0.3017
   9123SM  H15C12185   5.875   3.376   6.922 -0.3343 -0.8813  0.9689
   9123SM   C1412186   5.715   3.316   6.742 -0.0478  0.8913  0.0293
   9123SM  H14A12187   5.644   3.276   6.671 -0.6916  1.4298  0.3678
   9123SM  H14B12188   5.781   3.379   6.685  0.8269 -1.6248 -1.9393
   9123SM  H14C12189   5.659   3.383   6.805  0.1966  0.8002  0.3482
   9123SM   C1312190   5.827   3.109   6.741 -0.3887  0.4178 -0.2465
   9123SM  H13A12191   5.753   3.081   6.667 -0.0786  2.2293 -1.3027
   9123SM  H13B12192   5.850   3.026   6.806 -0.1747 -0.5140 -1.4683
   9123SM  H13C12193   5.913   3.132   6.680  1.0131  2.5398  2.3532
   9123SM   C1212194   5.703   3.171   6.931 -0.0632  0.0261 -0.0801
   9123SM  H12A12195   5.608   3.138   6.891 -0.9436  1.9489  0.2844
   9123SM  H12B12196   5.678   3.258   6.992 -1.3631 -0.3457 -0.0510
   9123SM   C1112197   5.759   3.073   7.039  0.1277 -1.0196 -0.6860
   9123SM  H11A12198   5.672   3.039   7.098  0.1036  0.1033 -0.0545
   9123SM  H11B12199   5.826   3.129   7.109 -1.2976  1.5420 -1.2245
   9123SM     P12200   5.934   2.882   7.053 -0.0744 -0.1832 -0.1337
   9123SM   O1312201   5.949   2.757   6.977 -0.1149 -0.7870  0.2454
   9123SM   O1412202   6.043   2.977   7.057 -0.1748  0.2853 -0.3719
   9123SM   O1112203   5.877   2.860   7.199  0.2912 -0.0744  0.3321
   9123SM   O1212204   5.815   2.963   6.984 -0.3408  0.7939  0.4349
   9123SM   C1S12205   5.966   2.805   7.298 -0.8409  0.2743  0.4878
   9123SM   H1S12206   6.058   2.865   7.313  1.3695 -2.8002  0.1707
   9123SM   H1T12207   6.002   2.705   7.266  0.5780  1.2123 -0.9804
   9123SM    NF12208   5.984   2.740   7.538  0.0683 -0.4557 -1.1343
   9123SM   HNF12209   5.996   2.642   7.551  0.8066 -0.1878  0.4209
   9123SM   C2S12210   5.894   2.783   7.432 -0.2897 -0.2593 -0.4877
   9123SM   H2S12211   5.858   2.884   7.461  2.7093  1.4980 -2.3435
   9123SM   C3S12212   5.773   2.682   7.415 -0.5966  0.0035  0.5795
   9123SM   H3S12213   5.806   2.586   7.372  3.3672  2.9533 -4.0250
   9123SM    O312214   5.672   2.724   7.320 -0.1960 -0.2584  0.0153
   9123SM   HO312215   5.702   2.809   7.287 -0.5392 -0.5039 -0.9817
   9123SM   C4S12216   5.709   2.657   7.551  0.2291 -0.4428  0.8268
   9123SM   H4S12217   5.733   2.561   7.600 -1.1385  0.0834  2.6421
   9123SM   C5S12218   5.614   2.731   7.609  0.0405  0.1670  0.2009
   9123SM   H5S12219   5.582   2.825   7.559  0.5142  0.1856 -0.0753
   9123SM   C6S12220   5.549   2.712   7.748  0.2253  0.1450  0.2135
   9123SM   H6S12221   5.458   2.651   7.728  1.8348 -2.1165 -0.6126
   9123SM   H6T12222   5.527   2.807   7.802  0.7497  0.0724  0.5596
   9123SM   C7S12223   5.620   2.622   7.854  0.0666 -0.7182  0.5343
   9123SM   H7S12224   5.725   2.659   7.857  0.3166 -1.4780  1.9311
   9123SM   H7T12225   5.625   2.518   7.815 -1.1459 -0.8533  0.7261
   9123SM   C8S12226   5.559   2.630   7.994  0.0579  0.3697  0.7369
   9123SM   H8S12227   5.465   2.571   7.991 -0.0569  0.5440  0.8522
   9123SM   H8T12228   5.529   2.733   8.025  0.8870  0.7080  0.4396
   9123SM   C9S12229   5.657   2.574   8.099  0.1106 -0.4346  0.3912
   9123SM   H9S12230   5.746   2.640   8.105 -3.1498  4.4696  1.2904
   9123SM   H9T12231   5.684   2.475   8.058 -0.6036 -0.9825  1.2108
   9123SM  C10S12232   5.580   2.570   8.236  0.7406  0.2162 -0.7894
   9123SM  H10S12233   5.481   2.522   8.219  0.8869 -1.4938  2.3506
   9123SM  H10T12234   5.560   2.671   8.278 -0.6873 -0.5138  0.4010
   9123SM  C11S12235   5.647   2.491   8.337 -0.2858  0.2393 -0.7733
   9123SM  H11S12236   5.747   2.536   8.353 -1.3298  3.2932 -2.0997
   9123SM  H11T12237   5.661   2.384   8.310 -2.3074 -0.5063  0.8242
   9123SM  C12S12238   5.570   2.491   8.476  0.9683 -0.5398 -0.5425
   9123SM  H12S12239   5.485   2.420   8.463  1.3427 -1.0271 -0.3450
   9123SM  H12T12240   5.526   2.590   8.504  1.7966 -0.8509  2.2030
   9123SM  C13S12241   5.673   2.445   8.579 -0.0333  0.0967 -0.2425
   9123SM  H13S12242   5.744   2.530   8.580  0.3176 -0.1933 -0.0145
   9123SM  H13T12243   5.726   2.354   8.541  0.8617  0.4767  0.0634
   9123SM  C14S12244   5.612   2.436   8.723 -0.3267  0.0105 -0.4851
   9123SM  H14S12245   5.540   2.351   8.720  1.0116 -1.1290 -1.4309
   9123SM  H14T12246   5.540   2.518   8.744 -0.3589  0.0281 -0.6682
   9123SM  C15S12247   5.712   2.421   8.840  0.1433 -0.4163 -0.0839
   9123SM  H15S12248   5.787   2.503   8.836  2.7091 -2.6784 -0.9850
   9123SM  H15T12249   5.762   2.325   8.814  0.4958 -0.3838  0.4578
   9123SM  C16S12250   5.644   2.428   8.976 -0.0736  0.0882  0.3062
   9123SM  H16S12251   5.576   2.341   8.983  1.2158 -0.8215  2.9524
   9123SM  H16T12252   5.587   2.523   8.984 -0.0984  0.1877 -0.9117
   9123SM  C17S12253   5.746   2.426   9.091 -0.4074  0.6732  0.2986
   9123SM  H17S12254   5.810   2.516   9.100 -0.1463  0.3867  1.4574
   9123SM  H17T12255   5.820   2.348   9.062 -1.5725 -0.4523  0.2839
   9123SM  C18S12256   5.688   2.395   9.225 -0.3397  0.3143 -0.0927
   9123SM  H18S12257   5.774   2.380   9.293  0.8521  1.3644 -1.3072
   9123SM  H18T12258   5.619   2.308   9.234  1.3442 -0.9030  1.7911
   9123SM  H18U12259   5.624   2.477   9.262  0.5687  0.0899  2.1498
   9123SM   C1F12260   6.075   2.821   7.592  0.0402  0.4349  0.4524
   9123SM    OF12261   6.096   2.933   7.548 -0.4634 -0.6774 -0.3654
   9123SM   C2F12262   6.161   2.763   7.701 -0.0227 -0.2077 -0.2719
   9123SM   H2F12263   6.260   2.814   7.704 -0.1064 -0.0515 -0.1327
   9123SM   H2G12264   6.189   2.659   7.677  0.1860 -0.6066  1.5848
   9123SM   C3F12265   6.091   2.766   7.842 -0.4669 -0.4258  0.7127
   9123SM   H3F12266   6.165   2.722   7.912  0.1488 -0.7601 -0.1277
   9123SM   H3G12267   6.003   2.700   7.823  0.0679 -0.7303 -0.8994
   9123SM   C4F12268   6.040   2.898   7.893  0.1228 -0.3143 -0.1644
   9123SM   H4F12269   5.999   2.948   7.803 -0.7158 -0.3328  0.2016
   9123SM   H4G12270   6.114   2.968   7.938 -0.3554  0.7163 -0.9397
   9123SM   C5F12271   5.929   2.888   8.006  0.3781  0.3963  0.1529
   9123SM   H5F12272   5.847   2.816   7.983 -0.0815  1.0424 -0.2567
   9123SM   H5G12273   5.885   2.985   8.035  0.0201  0.2256  0.1791
   9123SM   C6F12274   5.989   2.825   8.131 -0.2235  1.0339 -0.6867
   9123SM   H6F12275   6.091   2.866   8.148 -0.2102  0.5932  0.3772
   9123SM   H6G12276   6.015   2.719   8.109 -1.1057  0.8916 -1.0765
   9123SM   C7F12277   5.926   2.853   8.263  0.2915 -0.1265 -0.2255
   9123SM   H7F12278   5.817   2.832   8.258  0.4112 -0.5354 -1.1556
   9123SM   H7G12279   5.921   2.961   8.289 -0.9425 -0.4654  1.0638
   9123SM   C8F12280   5.998   2.784   8.384  0.1990  0.4949 -0.0983
   9123SM   H8F12281   6.108   2.800   8.378  0.3652 -0.8321 -1.0781
   9123SM   H8G12282   5.998   2.674   8.370  0.8457  0.3929  0.6313
   9123SM   C9F12283   5.935   2.837   8.519 -0.8075  0.2348 -0.4195
   9123SM   H9F12284   5.826   2.817   8.506 -0.5540 -0.9868 -0.7851
   9123SM   H9G12285   5.956   2.946   8.524 -0.4744  0.1200  1.8437
   9123SM  C10F12286   5.994   2.766   8.641 -0.1704 -0.0821 -0.2866
   9123SM  H10F12287   6.105   2.773   8.642 -0.2656  2.0234  0.2614
   9123SM  H10G12288   5.971   2.658   8.626  2.2833 -0.9721  1.6392
   9123SM  C11F12289   5.947   2.828   8.775 -0.2236 -0.1269  0.2413
   9123SM  H11F12290   5.852   2.780   8.809 -0.0575 -0.5390  0.1273
   9123SM  H11G12291   5.930   2.937   8.760  0.2358 -0.2028 -0.9361
   9123SM  C12F12292   6.043   2.808   8.892  0.5266  0.2688  0.0648
   9123SM  H12F12293   6.079   2.703   8.894  1.7989  0.6844 -0.0598
   9123SM  H12G12294   5.992   2.829   8.988 -0.2721  1.0650 -0.5160
   9123SM  C13F12295   6.160   2.899   8.876  0.2576 -0.5031 -0.2972
   9123SM  H13F12296   6.133   3.007   8.881  2.1947  0.0183 -0.2646
   9123SM  H13G12297   6.180   2.894   8.767 -0.6485  3.0797 -0.7630
   9123SM  C14F12298   6.282   2.873   8.969 -0.0075  0.0237  0.3692
   9123SM  H14F12299   6.373   2.915   8.922  1.5723 -0.8722  2.4780
   9123SM  H14G12300   6.308   2.765   8.972 -0.2111 -0.0028  2.0879
   9123SM  C15F12301   6.290   2.942   9.101  0.0535  0.2803 -0.3062
   9123SM  H15F12302   6.215   2.897   9.169  0.2751 -0.7630 -0.7482
   9123SM  H15G12303   6.268   3.051   9.099  1.3997  0.5755  0.1606
   9123SM  C16F12304   6.427   2.931   9.165  0.3507  0.0127 -0.4208
   9123SM  H16F12305   6.512   2.956   9.097 -0.1241  1.1175 -0.6378
   9123SM  H16G12306   6.434   2.828   9.204  0.2379  1.2161  3.1905
   9123SM  C17F12307   6.446   3.031   9.280 -0.0124  0.0520  0.0931
   9123SM  H17F12308   6.422   3.138   9.264  0.6307  0.2749  0.5534
   9123SM  H17G12309   6.555   3.037   9.299  0.0988  2.7397 -1.0009
   9123SM  C18F12310   6.372   3.001   9.409  0.1367  0.1406  0.1230
   9123SM  H18F12311   6.264   2.983   9.386  0.2434  0.1693 -0.4206
   9123SM  H18G12312   6.393   3.089   9.474 -2.0787 -1.3030  3.0559
   9123SM  C19F12313   6.426   2.876   9.480 -0.1191 -0.6358  0.5878
   9123SM  H19F12314   6.535   2.896   9.484 -0.0555 -0.9425  0.4105
   9123SM  H19G12315   6.412   2.784   9.420 -1.8250  1.2057 -2.0171
   9123SM  C20F12316   6.367   2.850   9.620 -0.5775  0.9626  0.2408
   9123SM  H20F12317   6.260   2.836   9.596 -0.1514 -1.3045 -0.5451
   9123SM  H20G12318   6.387   2.940   9.682  1.8667  1.8740 -1.7210
   9123SM  C21F12319   6.427   2.727   9.696 -0.4732 -0.1834 -0.2848
   9123SM  H21F12320   6.530   2.744   9.735 -0.1907  0.4042 -1.2576
   9123SM  H21G12321   6.443   2.651   9.617  0.1807  0.4887 -0.8220
   9123SM  C22F12322   6.336   2.668   9.802 -0.2123  0.0775  0.5730
   9123SM  H22F12323   6.235   2.644   9.762 -0.2187 -1.7084  1.5803
   9123SM  H22G12324   6.320   2.747   9.878 -1.1312 -1.6000  2.2139
   9123SM  C23F12325   6.398   2.541   9.873 -0.4389 -0.2168  0.1979
   9123SM  H23F12326   6.490   2.576   9.924 -1.3348  0.9078  1.0937
   9123SM  H23G12327   6.426   2.460   9.803  2.5046  0.6064  0.3043
   9123SM  H23H12328   6.316   2.512   9.943  0.1849 -0.8631  0.6820
   9223SM     N12329   5.181   7.516   6.694 -0.4057 -0.1190  0.2088
   9223SM   C1512330   5.207   7.461   6.835 -0.2080 -0.1756 -0.0071
   9223SM  H15A12331   5.293   7.516   6.870 -1.6449  2.7066 -0.7428
   9223SM  H15B12332   5.231   7.356   6.825  0.0651 -0.0083 -1.2648
   9223SM  H15C12333   5.121   7.485   6.896  2.6166  1.3337  3.8438
   9223SM   C1412334   5.156   7.661   6.723 -0.5352 -0.2900  0.0527
   9223SM  H14A12335   5.082   7.667   6.801  0.7167 -2.0423  1.4473
   9223SM  H14B12336   5.126   7.724   6.640  2.0014  2.3066  0.9390
   9223SM  H14C12337   5.245   7.707   6.763  0.7067  0.1955 -3.0250
   9223SM   C1312338   5.304   7.508   6.610 -0.0768 -0.0781 -0.8584
   9223SM  H13A12339   5.377   7.575   6.652 -0.3711 -0.2828 -0.0030
   9223SM  H13B12340   5.284   7.545   6.510 -0.0407 -0.9277 -1.1934
   9223SM  H13C12341   5.353   7.411   6.609 -1.5514 -1.0491  2.8371
   9223SM   C1212342   5.070   7.444   6.631  0.0877  0.0501  0.1988
   9223SM  H12A12343   5.087   7.338   6.624 -1.6038 -0.1940 -0.6949
   9223SM  H12B12344   5.056   7.463   6.525  1.0402  1.4695  0.2959
   9223SM   C1112345   4.927   7.449   6.694 -0.6156 -0.6037  0.0389
   9223SM  H11A12346   4.859   7.419   6.611  1.1913 -0.4271 -1.5917
   9223SM  H11B12347   4.889   7.547   6.730 -1.7342 -0.8766 -0.3435
   9223SM     P12348   4.900   7.201   6.790  0.2769  0.2882  0.0660
   9223SM   O1312349   4.772   7.178   6.721  0.0551 -0.1176 -0.3030
   9223SM   O1412350   5.020   7.138   6.733 -0.1328  0.1577  0.1083
   9223SM   O1112351   4.882   7.155   6.937 -0.2663  0.0995  0.4085
   9223SM   O1212352   4.918   7.356   6.803  0.3073 -0.2539  0.6175
   9223SM   C1S12353   4.804   7.222   7.039 -0.0864  0.6518  0.2354
   9223SM   H1S12354   4.695   7.203   7.025  0.4119 -2.2198 -0.3997
   9223SM   H1T12355   4.827   7.331   7.033  1.8283  0.3620  1.4052
   9223SM    NF12356   4.760   7.239   7.289 -0.1871  0.1047 -0.0520
   9223SM   HNF12357   4.797   7.315   7.343 -2.3721  2.8900 -2.1320
   9223SM   C2S12358   4.836   7.175   7.186 -0.0574 -0.3465  0.0515
   9223SM   H2S12359   4.816   7.068   7.206 -1.0478 -0.1714  0.0584
   9223SM   C3S12360   4.981   7.212   7.214  0.6722  0.6997 -0.0013
   9223SM   H3S12361   5.009   7.319   7.215  0.3744  0.7855 -0.7350
   9223SM    O312362   5.069   7.162   7.116 -0.2250 -0.3333 -0.3967
   9223SM   HO312363   5.012   7.155   7.039  0.2511  0.5548 -0.8532
   9223SM   C4S12364   5.029   7.155   7.346 -0.1525 -0.0004  0.2199
   9223SM   H4S12365   4.981   7.061   7.374 -2.0275  1.0388  0.6706
   9223SM   C5S12366   5.093   7.221   7.438  1.1294  0.0032  0.3227
   9223SM   H5S12367   5.123   7.325   7.421 -0.3635  0.1050 -2.1435
   9223SM   C6S12368   5.116   7.172   7.583  0.0648  0.0655 -0.0320
   9223SM   H6S12369   5.094   7.257   7.651  0.8753 -0.3672  0.7947
   9223SM   H6T12370   5.226   7.162   7.599  0.3121  0.9475 -1.0636
   9223SM   C7S12371   5.053   7.047   7.636  0.3557  0.0239  1.1156
   9223SM   H7S12372   5.113   6.966   7.590  1.0141  0.5107  1.1003
   9223SM   H7T12373   4.953   7.025   7.594  0.3381  0.7548  0.7476
   9223SM   C8S12374   5.055   7.051   7.783  0.2203  0.3210 -0.3147
   9223SM   H8S12375   4.983   7.130   7.814  0.3172 -0.2348  1.4661
   9223SM   H8T12376   5.153   7.092   7.816 -0.7287  2.0350  0.4937
   9223SM   C9S12377   5.010   6.917   7.853 -0.1651  0.1323 -0.1668
   9223SM   H9S12378   5.072   6.832   7.818  0.5129  0.4897  0.1434
   9223SM   H9T12379   4.902   6.905   7.828  0.1202 -0.5809 -1.1090
   9223SM  C10S12380   5.026   6.933   8.000 -0.1985 -0.1235 -0.7338
   9223SM  H10S12381   5.124   6.983   8.013  0.4339 -1.0329 -1.8269
   9223SM  H10T12382   5.024   6.840   8.061 -1.0539  1.7604  2.2883
   9223SM  C11S12383   4.907   7.026   8.066 -0.0417 -0.1384  0.7912
   9223SM  H11S12384   4.802   6.999   8.040  0.4327 -0.5488 -0.8517
   9223SM  H11T12385   4.932   7.128   8.029  0.3864 -0.9138 -1.2291
   9223SM  C12S12386   4.940   7.031   8.215 -0.0107  0.2515 -0.0844
   9223SM  H12S12387   4.893   7.121   8.261 -2.1877 -0.6363 -0.4585
   9223SM  H12T12388   5.048   7.036   8.237 -0.1995  2.3649  0.6006
   9223SM  C13S12389   4.888   6.919   8.305  0.0910 -0.3506  0.2617
   9223SM  H13S12390   4.925   6.828   8.252 -1.0288 -0.5791 -0.1583
   9223SM  H13T12391   4.777   6.913   8.304  0.0890 -0.3899 -1.0483
   9223SM  C14S12392   4.950   6.920   8.442  0.1637 -0.0194 -0.1126
   9223SM  H14S12393   4.935   7.022   8.484  1.7389 -0.1783  0.9171
   9223SM  H14T12394   5.060   6.910   8.437  0.3346  0.2730  1.8994
   9223SM  C15S12395   4.878   6.815   8.528 -0.2573 -0.1993 -0.0244
   9223SM  H15S12396   4.901   6.715   8.485 -1.2916  0.0472 -1.1793
   9223SM  H15T12397   4.769   6.829   8.513 -0.2823 -0.2096  0.1456
   9223SM  C16S12398   4.911   6.814   8.682  0.2672  0.3386 -0.3640
   9223SM  H16S12399   4.827   6.875   8.721 -0.2897 -0.1429 -0.7886
   9223SM  H16T12400   5.012   6.848   8.711 -0.2081  0.4098  1.3232
   9223SM  C17S12401   4.886   6.666   8.744 -0.5282 -1.2367 -0.2865
   9223SM  H17S12402   4.898   6.664   8.855 -3.1412  0.0380  0.1209
   9223SM  H17T12403   4.963   6.597   8.704 -0.9514 -1.1566 -1.2704
   9223SM  C18S12404   4.750   6.603   8.709  0.2516  0.2305 -0.2951
   9223SM  H18S12405   4.657   6.654   8.741  0.3265  1.0788 -1.3606
   9223SM  H18T12406   4.736   6.504   8.758 -0.8057  1.1262  1.3031
   9223SM  H18U12407   4.734   6.592   8.599  1.9169  3.0178 -0.9294
   9223SM   C1F12408   4.628   7.218   7.298  0.7892  0.1955  0.3461
   9223SM    OF12409   4.569   7.131   7.234 -0.5915  0.0846 -0.2005
   9223SM   C2F12410   4.551   7.317   7.373  0.2614 -0.0394 -0.6046
   9223SM   H2F12411   4.528   7.406   7.310 -0.7867  1.2258  1.4534
   9223SM   H2G12412   4.612   7.352   7.459  1.5301 -0.5459 -1.2790
   9223SM   C3F12413   4.418   7.260   7.439 -0.2500 -0.0278  0.2254
   9223SM   H3F12414   4.348   7.237   7.356 -0.0652  0.1516  0.0137
   9223SM   H3G12415   4.374   7.336   7.507  0.0349 -0.5367  0.9805
   9223SM   C4F12416   4.444   7.139   7.527  1.0159 -0.4713  0.0608
   9223SM   H4F12417   4.458   7.046   7.467 -0.4447 -1.4793  1.2308
   9223SM   H4G12418   4.358   7.120   7.594  0.5073  1.3664 -0.0059
   9223SM   C5F12419   4.564   7.148   7.620 -0.6622 -0.4706  0.3037
   9223SM   H5F12420   4.574   7.254   7.653 -0.6572 -0.2710 -0.3280
   9223SM   H5G12421   4.665   7.142   7.573  0.3511 -0.2227  2.3496
   9223SM   C6F12422   4.562   7.064   7.752 -0.4157 -0.2202  0.6833
   9223SM   H6F12423   4.663   7.081   7.795 -0.7119  0.5977  1.0912
   9223SM   H6G12424   4.551   6.955   7.733  1.3060 -0.0909 -1.3525
   9223SM   C7F12425   4.466   7.113   7.855  0.6700 -0.3149  0.1767
   9223SM   H7F12426   4.362   7.085   7.825 -0.5229  0.8031  2.8906
   9223SM   H7G12427   4.480   7.223   7.864  0.8252 -0.4180  1.3514
   9223SM   C8F12428   4.485   7.043   7.987  0.3575  0.2041 -0.2442
   9223SM   H8F12429   4.582   7.069   8.035 -0.0722 -2.0003  2.0158
   9223SM   H8G12430   4.481   6.933   7.979 -1.9190  0.2853 -0.8754
   9223SM   C9F12431   4.368   7.081   8.097 -0.3689 -0.8789 -0.1198
   9223SM   H9F12432   4.268   7.053   8.058 -0.0271  0.0671 -1.7488
   9223SM   H9G12433   4.390   7.190   8.102  1.4445 -1.2032 -0.4051
   9223SM  C10F12434   4.385   7.014   8.239 -0.5254 -0.3829  0.0738
   9223SM  H10F12435   4.313   7.056   8.312  0.9747  0.8105  0.8982
   9223SM  H10G12436   4.487   7.039   8.273 -0.4151 -2.1098  1.1198
   9223SM  C11F12437   4.367   6.863   8.240  0.2460 -0.2178 -0.0281
   9223SM  H11F12438   4.453   6.810   8.193  0.0549  1.9151 -3.0984
   9223SM  H11G12439   4.280   6.840   8.176  1.4118 -1.4404 -1.2512
   9223SM  C12F12440   4.331   6.810   8.383 -0.2488  0.4220 -0.2807
   9223SM  H12F12441   4.223   6.824   8.401 -0.5464 -1.4436 -0.4321
   9223SM  H12G12442   4.384   6.875   8.456  0.7409 -1.7699  1.0185
   9223SM  C13F12443   4.382   6.673   8.420  0.0409  1.2492  0.4993
   9223SM  H13F12444   4.482   6.646   8.379  0.3177 -0.4925  2.2003
   9223SM  H13G12445   4.312   6.599   8.375  0.2407  0.7814  0.9453
   9223SM  C14F12446   4.381   6.649   8.578  0.0113  0.6642  0.5549
   9223SM  H14F12447   4.312   6.720   8.628 -0.9790 -0.3755  0.6997
   9223SM  H14G12448   4.483   6.669   8.616  0.2388  1.7925 -0.5766
   9223SM  C15F12449   4.351   6.497   8.608  0.0359 -0.1979 -0.5197
   9223SM  H15F12450   4.430   6.436   8.560  2.2437  1.4633  0.8063
   9223SM  H15G12451   4.250   6.480   8.566 -1.1264  1.1616  1.5193
   9223SM  C16F12452   4.350   6.459   8.766 -0.4301  0.1342  0.7538
   9223SM  H16F12453   4.432   6.521   8.808  1.6134 -2.1242  0.3238
   9223SM  H16G12454   4.382   6.354   8.777 -2.7010 -0.7061 -0.0271
   9223SM  C17F12455   4.208   6.466   8.824  0.3689  0.1886  0.1973
   9223SM  H17F12456   4.144   6.397   8.766  0.8548 -0.0762 -0.0365
   9223SM  H17G12457   4.182   6.569   8.791  0.7506  0.3276  0.3144
   9223SM  C18F12458   4.206   6.442   8.980  0.0069 -0.7641  0.4616
   9223SM  H18F12459   4.306   6.465   9.023  0.0546 -2.2410  1.1948
   9223SM  H18G12460   4.196   6.332   8.995  2.5403 -0.6660  4.3794
   9223SM  C19F12461   4.103   6.511   9.065  0.1379  0.3824  0.4801
   9223SM  H19F12462   4.091   6.469   9.167 -1.4466  2.5084  1.2236
   9223SM  H19G12463   4.004   6.487   9.020  0.2811  0.2414  0.2349
   9223SM  C20F12464   4.118   6.668   9.071  0.0442  0.4413 -0.1791
   9223SM  H20F12465   4.121   6.708   8.968 -1.8765  1.2329  0.0268
   9223SM  H20G12466   4.215   6.685   9.123  0.3200 -1.2345 -0.0626
   9223SM  C21F12467   4.002   6.735   9.150  0.5159  0.4747  0.2330
   9223SM  H21F12468   4.019   6.723   9.259  1.8942  1.5552  0.1734
   9223SM  H21G12469   3.910   6.678   9.127  1.2194  0.0621 -1.7715
   9223SM  C22F12470   3.987   6.885   9.121  0.0557  0.4606 -0.0928
   9223SM  H22F12471   3.973   6.907   9.013  1.5005  3.1263  0.1809
   9223SM  H22G12472   4.078   6.938   9.156 -0.5637  0.6955  1.2282
   9223SM  C23F12473   3.867   6.939   9.208 -0.0329 -0.5160  0.3744
   9223SM  H23F12474   3.900   6.940   9.314 -1.2406 -0.4663  0.7621
   9223SM  H23G12475   3.772   6.882   9.200 -0.0992 -0.3663  0.0554
   9223SM  H23H12476   3.847   7.039   9.164  1.6717 -0.7348 -0.9967
   9323SM     N12477   6.602   2.672   6.564  0.4757 -0.7109  0.0219
   9323SM   C1512478   6.553   2.731   6.433 -0.6977 -0.0220 -0.0548
   9323SM  H15A12479   6.445   2.742   6.436 -0.6111  0.7042  2.0702
   9323SM  H15B12480   6.581   2.655   6.361  2.3853  0.0714  0.9155
   9323SM  H15C12481   6.590   2.830   6.411 -0.3449 -0.4063 -1.2828
   9323SM   C1412482   6.525   2.533   6.575 -0.8559 -0.1886  0.5201
   9323SM  H14A12483   6.556   2.479   6.487  0.3337  2.0349 -0.5124
   9323SM  H14B12484   6.417   2.546   6.574 -0.6716  1.6708  0.1951
   9323SM  H14C12485   6.559   2.482   6.663  1.8861  1.0245  0.2623
   9323SM   C1312486   6.747   2.646   6.563  0.3410  0.5894 -0.2912
   9323SM  H13A12487   6.796   2.741   6.548  0.1010  0.6485 -0.7064
   9323SM  H13B12488   6.774   2.580   6.482 -0.8529 -1.8201  1.1741
   9323SM  H13C12489   6.775   2.591   6.651  0.3789  0.8111 -0.1632
   9323SM   C1212490   6.559   2.760   6.679 -0.0803  0.8379 -0.2043
   9323SM  H12A12491   6.455   2.778   6.653  0.1369 -0.6463 -2.4169
   9323SM  H12B12492   6.618   2.849   6.690  1.1530  0.1165 -0.7924
   9323SM   C1112493   6.559   2.698   6.822  0.0365 -0.2071 -0.2104
   9323SM  H11A12494   6.488   2.613   6.834 -0.7279  0.4730  0.2885
   9323SM  H11B12495   6.525   2.773   6.898 -0.0116 -0.9796  0.5516
   9323SM     P12496   6.813   2.739   6.903  0.0616  0.0090  0.0592
   9323SM   O1312497   6.925   2.655   6.856  0.4724 -0.0008  0.0407
   9323SM   O1412498   6.799   2.873   6.849 -0.2102 -0.2694 -0.0137
   9323SM   O1112499   6.812   2.731   7.059 -0.2376 -0.2607 -0.2804
   9323SM   O1212500   6.685   2.654   6.871 -0.6111  0.2377  0.7330
   9323SM   C1S12501   6.692   2.725   7.137  0.2271  0.9449 -0.5571
   9323SM   H1S12502   6.623   2.652   7.089 -0.4652  1.5957 -0.5647
   9323SM   H1T12503   6.651   2.828   7.124  2.5330  1.9204 -0.5637
   9323SM    NF12504   6.585   2.690   7.353  0.2871 -0.2306  0.1687
   9323SM   HNF12505   6.553   2.757   7.419 -1.6982  0.7349 -1.6677
   9323SM   C2S12506   6.716   2.695   7.291 -0.9369 -0.8007  0.0359
   9323SM   H2S12507   6.768   2.597   7.296  0.1488 -0.4904 -2.9993
   9323SM   C3S12508   6.819   2.800   7.349 -0.0996 -0.7529  0.9478
   9323SM   H3S12509   6.769   2.899   7.355  0.2370 -0.4957 -0.3387
   9323SM    O312510   6.935   2.821   7.269  0.2045 -0.4728  0.0104
   9323SM   HO312511   6.901   2.782   7.188  1.6626 -0.5941 -0.5843
   9323SM   C4S12512   6.862   2.762   7.481  0.6048 -0.5083 -0.1512
   9323SM   H4S12513   6.923   2.672   7.501  0.5347 -0.5812 -0.2677
   9323SM   C5S12514   6.806   2.816   7.591 -0.4617  0.6855  0.4242
   9323SM   H5S12515   6.736   2.900   7.582 -0.0202  0.9132 -1.1191
   9323SM   C6S12516   6.842   2.785   7.730  0.0395  0.2698  0.2206
   9323SM   H6S12517   6.933   2.721   7.727  0.6695  1.0572 -4.0798
   9323SM   H6T12518   6.764   2.730   7.787  0.0506  1.2106  1.1574
   9323SM   C7S12519   6.880   2.919   7.798  0.5064 -0.1123  0.8451
   9323SM   H7S12520   6.797   2.993   7.796  1.1115  0.6881  2.8447
   9323SM   H7T12521   6.969   2.970   7.756 -0.5533  0.3149 -1.0295
   9323SM   C8S12522   6.925   2.903   7.942 -0.6126 -0.1667 -0.1179
   9323SM   H8S12523   7.005   2.827   7.956 -1.5591 -0.7901  2.6069
   9323SM   H8T12524   6.838   2.858   7.994  1.3229 -1.7799  1.9239
   9323SM   C9S12525   6.975   3.035   8.012  0.1323 -0.2134 -0.3752
   9323SM   H9S12526   6.912   3.123   7.989  2.1639  1.2468 -0.6973
   9323SM   H9T12527   7.079   3.044   7.974  0.1645 -0.9883 -0.4883
   9323SM  C10S12528   6.980   3.013   8.163 -0.6340  0.1047  0.4805
   9323SM  H10S12529   7.049   3.084   8.214  2.7566  0.3078 -3.7690
   9323SM  H10T12530   7.021   2.911   8.183  2.6195  0.7615 -1.9278
   9323SM  C11S12531   6.836   3.029   8.222  0.6745 -0.6699  0.1720
   9323SM  H11S12532   6.755   2.970   8.174 -2.2568  2.5337  0.7774
   9323SM  H11T12533   6.791   3.130   8.213 -2.8045 -2.1286 -0.3234
   9323SM  C12S12534   6.851   3.000   8.369  0.2012  0.2260  0.1698
   9323SM  H12S12535   6.932   3.056   8.420 -0.3109  0.5341  0.6501
   9323SM  H12T12536   6.873   2.891   8.375 -1.9711 -0.2141  1.4144
   9323SM  C13S12537   6.726   3.022   8.454  0.2125  0.5312  0.4094
   9323SM  H13S12538   6.641   2.955   8.431  1.3349 -0.1649 -2.0398
   9323SM  H13T12539   6.682   3.119   8.422  0.4348  0.3117 -0.5978
   9323SM  C14S12540   6.742   3.016   8.604 -0.8971 -0.6203 -0.6160
   9323SM  H14S12541   6.793   3.109   8.636 -0.7712 -0.7535 -0.4255
   9323SM  H14T12542   6.786   2.925   8.651  0.2366  0.1248 -0.1649
   9323SM  C15S12543   6.607   3.040   8.668 -0.1520  0.4022 -0.0080
   9323SM  H15S12544   6.574   3.141   8.636 -2.1992 -0.7265 -1.6759
   9323SM  H15T12545   6.522   2.971   8.654 -0.4054  0.1492  2.3765
   9323SM  C16S12546   6.618   3.059   8.815  0.0718  0.2848 -1.2855
   9323SM  H16S12547   6.663   2.971   8.866 -2.9658 -0.5698  0.1397
   9323SM  H16T12548   6.517   3.077   8.856  0.9573  0.6040  0.9292
   9323SM  C17S12549   6.672   3.190   8.870 -0.5218 -0.2399 -0.2088
   9323SM  H17S12550   6.660   3.273   8.798 -1.1484 -0.6947 -0.6408
   9323SM  H17T12551   6.776   3.166   8.900  0.4869  1.0918 -2.4316
   9323SM  C18S12552   6.597   3.242   8.998 -0.6635  0.0663 -0.5799
   9323SM  H18S12553   6.519   3.318   8.977 -1.4606 -0.0098  1.7321
   9323SM  H18T12554   6.674   3.292   9.062  0.0287 -1.1479 -0.4340
   9323SM  H18U12555   6.540   3.163   9.051 -0.7830  1.0222  0.7846
   9323SM   C1F12556   6.510   2.586   7.329  0.1454 -0.0907  0.3938
   9323SM    OF12557   6.540   2.495   7.250 -0.4336  0.0843  0.8878
   9323SM   C2F12558   6.382   2.576   7.405 -0.3170  0.0488 -0.5613
   9323SM   H2F12559   6.313   2.653   7.365 -0.3604 -0.3023 -1.1769
   9323SM   H2G12560   6.404   2.606   7.509  2.3298 -2.4133 -0.2666
   9323SM   C3F12561   6.316   2.436   7.413  0.3293 -0.1578  0.4887
   9323SM   H3F12562   6.284   2.393   7.315  0.5527 -2.8941  1.5042
   9323SM   H3G12563   6.214   2.439   7.458  0.1378  0.5949  0.0104
   9323SM   C4F12564   6.390   2.326   7.498 -0.3399 -0.2989  0.3489
   9323SM   H4F12565   6.487   2.309   7.447 -0.2998  1.9295 -0.3831
   9323SM   H4G12566   6.324   2.236   7.503  1.8946 -2.0043  1.1729
   9323SM   C5F12567   6.420   2.366   7.646 -0.5986 -0.7129  0.2259
   9323SM   H5F12568   6.334   2.424   7.686 -0.0765 -0.2660  0.7322
   9323SM   H5G12569   6.507   2.435   7.648 -1.2244  0.0860  0.2030
   9323SM   C6F12570   6.442   2.245   7.738 -0.4393  0.1375 -0.1460
   9323SM   H6F12571   6.522   2.177   7.699 -0.8123  0.2505 -1.1353
   9323SM   H6G12572   6.349   2.184   7.728  0.0378 -0.3404 -2.2830
   9323SM   C7F12573   6.481   2.292   7.873  0.0574 -0.6045 -0.3714
   9323SM   H7F12574   6.410   2.373   7.899 -2.1409 -2.8575  1.1357
   9323SM   H7G12575   6.571   2.356   7.867  0.6499 -1.0257  2.4704
   9323SM   C8F12576   6.494   2.188   7.988 -0.0020  0.0595 -0.5483
   9323SM   H8F12577   6.580   2.119   7.989 -0.6961 -0.8705  1.6422
   9323SM   H8G12578   6.393   2.141   7.984 -0.1293  0.3227 -0.5247
   9323SM   C9F12579   6.508   2.259   8.129 -0.2758  0.1542  0.4676
   9323SM   H9F12580   6.438   2.346   8.131 -0.8349 -0.2847  0.3861
   9323SM   H9G12581   6.608   2.307   8.130 -0.1598  0.0987 -2.1759
   9323SM  C10F12582   6.473   2.174   8.253  0.1336 -0.7663  0.2117
   9323SM  H10F12583   6.535   2.082   8.252  2.0069  0.4113  1.1469
   9323SM  H10G12584   6.372   2.131   8.248  0.3239 -1.1078 -0.7893
   9323SM  C11F12585   6.492   2.236   8.389  0.5418 -0.8998 -0.4241
   9323SM  H11F12586   6.421   2.321   8.388  2.9621  1.2999  0.5529
   9323SM  H11G12587   6.590   2.288   8.400 -0.4418  0.9899 -0.1185
   9323SM  C12F12588   6.474   2.141   8.513 -0.3177  0.0296 -0.0626
   9323SM  H12F12589   6.549   2.060   8.495  0.1396  0.6155 -0.8940
   9323SM  H12G12590   6.370   2.103   8.518 -1.0468  1.9235 -0.2265
   9323SM  C13F12591   6.508   2.209   8.648  0.9322  0.5229  0.3180
   9323SM  H13F12592   6.433   2.290   8.663 -0.5473 -0.6004 -0.7659
   9323SM  H13G12593   6.604   2.264   8.643  0.6479  1.0374  0.3998
   9323SM  C14F12594   6.493   2.110   8.767 -0.0315 -0.3398  0.0800
   9323SM  H14F12595   6.538   2.010   8.753  1.6777  0.1483  1.6678
   9323SM  H14G12596   6.383   2.097   8.771  0.1724 -2.0245  2.1977
   9323SM  C15F12597   6.544   2.158   8.904  0.0266 -0.0611 -0.4630
   9323SM  H15F12598   6.499   2.258   8.923  0.4768  0.0592 -0.0021
   9323SM  H15G12599   6.653   2.176   8.893  0.4669 -1.2297  1.4771
   9323SM  C16F12600   6.541   2.050   9.014 -0.0503  0.2222 -0.1277
   9323SM  H16F12601   6.616   1.973   8.988  1.8291  2.4784 -1.7947
   9323SM  H16G12602   6.449   1.988   9.027 -0.5699  1.2762  1.5578
   9323SM  C17F12603   6.560   2.110   9.152  0.3573  0.2363  0.3391
   9323SM  H17F12604   6.473   2.171   9.182  1.6307  1.8632  0.8805
   9323SM  H17G12605   6.640   2.186   9.158 -0.3714  1.1719 -1.1900
   9323SM  C18F12606   6.591   2.002   9.263 -0.3006  0.3315 -0.1398
   9323SM  H18F12607   6.694   1.965   9.243 -0.5301  0.2504 -1.2323
   9323SM  H18G12608   6.521   1.917   9.256 -0.7392  0.5770  0.9392
   9323SM  C19F12609   6.584   2.053   9.411  0.1488 -0.5924  0.0946
   9323SM  H19F12610   6.663   2.130   9.423 -0.8085  0.7981 -1.9512
   9323SM  H19G12611   6.629   1.974   9.475  0.4529  0.0002  0.6241
   9323SM  C20F12612   6.446   2.094   9.463  0.1463  0.1094  0.5712
   9323SM  H20F12613   6.367   2.024   9.429  1.0069 -0.3577 -0.5296
   9323SM  H20G12614   6.416   2.187   9.409  3.6601 -0.3199 -2.5035
   9323SM  C21F12615   6.430   2.105   9.614  0.7609 -0.4646  0.2877
   9323SM  H21F12616   6.502   2.181   9.652 -2.1266  1.6219  1.9318
   9323SM  H21G12617   6.448   2.009   9.667  1.6089 -1.3543 -1.5234
   9323SM  C22F12618   6.288   2.167   9.636 -0.1889  0.6997 -1.2058
   9323SM  H22F12619   6.202   2.098   9.620 -2.3678  2.0891  3.0611
   9323SM  H22G12620   6.265   2.258   9.576 -2.4501 -0.3330 -2.0448
   9323SM  C23F12621   6.284   2.207   9.788 -0.5135  0.5289 -0.2247
   9323SM  H23F12622   6.224   2.299   9.803 -0.6711  0.3599  0.2108
   9323SM  H23G12623   6.383   2.231   9.831  0.7837 -0.3019 -2.5661
   9323SM  H23H12624   6.236   2.131   9.853 -2.9216  1.7457 -0.4827
   9423SM     N12625   5.010   4.539   6.691  0.7691 -0.0163 -0.7373
   9423SM   C1512626   5.075   4.669   6.672 -0.0814  0.5146  0.1428
   9423SM  H15A12627   5.164   4.643   6.616  0.2559  1.5441  0.1684
   9423SM  H15B12628   5.097   4.722   6.763 -1.0281  0.6227  0.3105
   9423SM  H15C12629   5.022   4.733   6.603  0.3636  0.1609 -0.5427
   9423SM   C1412630   4.873   4.563   6.752  0.7568  0.0711  0.3603
   9423SM  H14A12631   4.873   4.608   6.851 -0.6240 -2.2892  1.5170
   9423SM  H14B12632   4.820   4.470   6.761 -0.6362  0.6304 -1.5816
   9423SM  H14C12633   4.814   4.631   6.691 -0.4090  0.7527  2.1460
   9423SM   C1312634   5.008   4.464   6.563 -0.4373  0.2636  0.2455
   9423SM  H13A12635   4.964   4.366   6.573 -0.4968 -0.0029 -2.0589
   9423SM  H13B12636   5.100   4.457   6.507 -0.3880  2.8326 -0.1538
   9423SM  H13C12637   4.944   4.521   6.497 -0.7405 -1.8863 -1.4216
   9423SM   C1212638   5.091   4.450   6.784 -0.2044 -1.4296 -0.1482
   9423SM  H12A12639   5.185   4.436   6.732  1.2925  0.4993  1.8686
   9423SM  H12B12640   5.045   4.356   6.808  0.5933 -1.9873 -0.7265
   9423SM   C1112641   5.147   4.507   6.919  0.8398  0.3241  0.1314
   9423SM  H11A12642   5.178   4.612   6.898 -1.0433  1.1709  1.2587
   9423SM  H11B12643   5.230   4.439   6.945 -0.0426 -0.6671  0.4275
   9423SM     P12644   5.023   4.373   7.098 -0.1574  0.1081 -0.1024
   9423SM   O1312645   4.916   4.390   7.196 -0.2796 -0.0295  0.3267
   9423SM   O1412646   5.011   4.260   7.005 -0.9785 -0.2917  0.2422
   9423SM   O1112647   5.156   4.342   7.181 -0.1422  0.4036 -0.4771
   9423SM   O1212648   5.045   4.512   7.022 -0.3163  0.2210  0.5004
   9423SM   C1S12649   5.208   4.424   7.279  0.2906 -0.7931  0.2631
   9423SM   H1S12650   5.144   4.513   7.301 -1.1468 -1.6128 -0.4682
   9423SM   H1T12651   5.296   4.479   7.238 -0.4182  0.0851 -0.1149
   9423SM    NF12652   5.281   4.440   7.506  0.0481  0.4454 -0.5857
   9423SM   HNF12653   5.377   4.463   7.521  0.4921 -2.1849  1.2357
   9423SM   C2S12654   5.244   4.349   7.402  0.4245 -0.1246  0.2307
   9423SM   H2S12655   5.153   4.295   7.437  1.3603 -1.5729  0.5394
   9423SM   C3S12656   5.345   4.236   7.365  0.1233 -0.0667  0.5144
   9423SM   H3S12657   5.434   4.287   7.322  2.4353 -1.7702  2.8780
   9423SM    O312658   5.294   4.134   7.272  0.5698  0.0504  0.2581
   9423SM   HO312659   5.233   4.185   7.219  1.5549  0.6930 -0.2998
   9423SM   C4S12660   5.418   4.175   7.484 -0.3248  0.0745  0.4920
   9423SM   H4S12661   5.505   4.234   7.518  0.8933 -1.7710  0.7075
   9423SM   C5S12662   5.385   4.063   7.553 -0.3526 -0.7142  0.5725
   9423SM   H5S12663   5.297   4.002   7.529 -0.6741 -0.2822  0.6317
   9423SM   C6S12664   5.459   4.019   7.676  0.0047 -0.2426 -0.4119
   9423SM   H6S12665   5.565   4.016   7.644  0.5395 -1.0584  1.3243
   9423SM   H6T12666   5.437   3.912   7.692  0.2684 -0.4434 -1.2998
   9423SM   C7S12667   5.447   4.113   7.799  0.1680  0.1077  0.1669
   9423SM   H7S12668   5.477   4.219   7.781 -0.2731  0.1474 -0.3517
   9423SM   H7T12669   5.515   4.068   7.874  1.0276 -0.6437 -1.0320
   9423SM   C8S12670   5.302   4.114   7.858 -0.4224  0.1227 -0.3044
   9423SM   H8S12671   5.282   4.004   7.862 -1.0085  0.2705  1.3715
   9423SM   H8T12672   5.232   4.161   7.785  1.2173  0.1070 -1.9516
   9423SM   C9S12673   5.286   4.186   7.993 -0.4742 -0.4912 -0.5029
   9423SM   H9S12674   5.310   4.294   8.000  1.0971 -0.8862  1.2626
   9423SM   H9T12675   5.368   4.146   8.058  0.8835  2.2402 -0.3935
   9423SM  C10S12676   5.154   4.162   8.055 -0.6762  0.1892  0.0098
   9423SM  H10S12677   5.130   4.054   8.063  1.2870 -0.2170  0.7869
   9423SM  H10T12678   5.069   4.200   7.994 -1.7401  0.7844  1.7636
   9423SM  C11S12679   5.162   4.216   8.199  0.2932  0.4566 -0.1668
   9423SM  H11S12680   5.266   4.205   8.237  1.1394  0.5947 -2.2894
   9423SM  H11T12681   5.106   4.150   8.268 -0.6004  1.2657 -0.0920
   9423SM  C12S12682   5.108   4.352   8.211 -0.0201  0.0419 -0.8568
   9423SM  H12S12683   5.011   4.351   8.156  0.1336  0.0687 -1.1280
   9423SM  H12T12684   5.176   4.421   8.157  1.2944  1.7076  2.6263
   9423SM  C13S12685   5.088   4.396   8.361 -0.0538  0.3160  0.0535
   9423SM  H13S12686   5.040   4.311   8.414  2.1404 -1.0619 -0.0451
   9423SM  H13T12687   5.019   4.483   8.362 -1.8093 -0.9820 -1.2707
   9423SM  C14S12688   5.229   4.426   8.419  0.3874 -0.5075 -0.1530
   9423SM  H14S12689   5.269   4.508   8.355 -3.1263  0.1386 -1.7487
   9423SM  H14T12690   5.288   4.332   8.414 -0.4269 -0.9416 -2.5100
   9423SM  C15S12691   5.218   4.479   8.566 -0.2933 -0.1460 -0.3340
   9423SM  H15S12692   5.195   4.391   8.631 -0.0128 -1.1898 -1.6048
   9423SM  H15T12693   5.141   4.557   8.580  1.4655  1.3770  1.6157
   9423SM  C16S12694   5.344   4.552   8.622  0.7335 -0.0739  0.4423
   9423SM  H16S12695   5.376   4.630   8.551  0.3481 -1.2821 -1.1197
   9423SM  H16T12696   5.428   4.481   8.637  1.0269 -0.0983 -1.1594
   9423SM  C17S12697   5.320   4.625   8.753 -0.0569 -0.3178  0.6218
   9423SM  H17S12698   5.214   4.650   8.774  0.3392 -0.1862  2.6443
   9423SM  H17T12699   5.379   4.718   8.760 -1.8550  0.7363  3.0213
   9423SM  C18S12700   5.363   4.532   8.868  0.3779  0.8602 -0.1276
   9423SM  H18S12701   5.371   4.591   8.961 -0.1382 -0.5116  0.8108
   9423SM  H18T12702   5.463   4.485   8.858  0.5993  1.3872 -0.4561
   9423SM  H18U12703   5.292   4.450   8.889 -0.5901  1.8712  0.6819
   9423SM   C1F12704   5.200   4.516   7.586 -0.2381  0.5133 -0.6063
   9423SM    OF12705   5.082   4.529   7.559  0.0040  0.4403  0.0740
   9423SM   C2F12706   5.259   4.583   7.713  0.3440  0.5978  0.6661
   9423SM   H2F12707   5.314   4.671   7.670 -1.4318  1.3976 -0.0706
   9423SM   H2G12708   5.334   4.512   7.753 -0.0129 -0.1250  0.0636
   9423SM   C3F12709   5.156   4.640   7.809 -0.4350 -0.4145 -0.0296
   9423SM   H3F12710   5.102   4.551   7.845  2.4513 -1.3833  2.3197
   9423SM   H3G12711   5.088   4.708   7.754 -0.4293  1.3291  1.9756
   9423SM   C4F12712   5.229   4.691   7.931  0.3811 -0.6873  0.2375
   9423SM   H4F12713   5.298   4.774   7.903  0.0809 -0.8876 -1.1849
   9423SM   H4G12714   5.288   4.604   7.968 -1.2255 -2.3141 -0.8895
   9423SM   C5F12715   5.131   4.734   8.042 -0.3357 -0.2430  0.1210
   9423SM   H5F12716   5.059   4.652   8.061 -1.5887  0.7112 -0.3789
   9423SM   H5G12717   5.095   4.828   7.994  1.9085  1.2332  1.1440
   9423SM   C6F12718   5.214   4.764   8.176  0.2746  0.4493 -0.2342
   9423SM   H6F12719   5.316   4.800   8.153 -0.0966  1.5390 -0.2480
   9423SM   H6G12720   5.209   4.674   8.241  0.4492  0.3649 -0.3375
   9423SM   C7F12721   5.152   4.884   8.256 -1.1117 -0.0141 -0.7565
   9423SM   H7F12722   5.042   4.867   8.261 -1.0065 -0.4624  0.1833
   9423SM   H7G12723   5.189   4.977   8.207  3.1404 -1.4813 -0.6945
   9423SM   C8F12724   5.213   4.884   8.402  0.9382 -0.0334 -0.6754
   9423SM   H8F12725   5.319   4.852   8.393  1.4834  1.4819 -0.1057
   9423SM   H8G12726   5.162   4.816   8.473  1.4950 -0.2440 -0.4674
   9423SM   C9F12727   5.218   5.029   8.470 -0.0420  0.0223  0.9326
   9423SM   H9F12728   5.117   5.063   8.501  0.1331  0.7055  0.7818
   9423SM   H9G12729   5.261   5.103   8.399 -0.4760 -0.2511  0.3776
   9423SM  C10F12730   5.311   5.034   8.592 -0.0633 -0.2668  0.1310
   9423SM  H10F12731   5.349   5.138   8.604 -1.1919  0.2650 -0.7591
   9423SM  H10G12732   5.402   4.971   8.576  0.4826  0.7045 -0.6992
   9423SM  C11F12733   5.227   5.011   8.722  0.0617 -0.2883  0.4485
   9423SM  H11F12734   5.181   4.911   8.712  0.8758 -0.6391  0.1066
   9423SM  H11G12735   5.152   5.092   8.737  1.2692  0.7523  1.0707
   9423SM  C12F12736   5.313   5.001   8.849 -0.5509 -0.3286  0.0033
   9423SM  H12F12737   5.352   5.096   8.891  0.2002  0.2664 -1.9520
   9423SM  H12G12738   5.399   4.937   8.820 -0.7018 -0.2030 -0.7487
   9423SM  C13F12739   5.243   4.923   8.954 -0.4712  0.0298  0.2556
   9423SM  H13F12740   5.234   4.819   8.916  1.5429 -0.2827  0.5319
   9423SM  H13G12741   5.140   4.952   8.985 -0.3907 -0.8391  1.4203
   9423SM  C14F12742   5.329   4.905   9.080  0.0099 -0.5699 -0.1026
   9423SM  H14F12743   5.345   5.000   9.135  1.9724 -0.8492 -0.1500
   9423SM  H14G12744   5.431   4.880   9.044  0.8176 -0.7174  2.1241
   9423SM  C15F12745   5.279   4.810   9.187  0.0771  0.5710 -0.2472
   9423SM  H15F12746   5.365   4.799   9.255  0.1876  0.7421 -0.3578
   9423SM  H15G12747   5.253   4.711   9.142 -0.2714  1.6627 -2.6069
   9423SM  C16F12748   5.156   4.858   9.265 -0.2571 -0.1491  0.2591
   9423SM  H16F12749   5.063   4.866   9.203  0.0562  1.7617 -0.0330
   9423SM  H16G12750   5.177   4.962   9.299  0.4404 -0.9327  2.3741
   9423SM  C17F12751   5.102   4.765   9.379  0.1410 -1.1309  0.4788
   9423SM  H17F12752   5.192   4.752   9.443 -0.4485 -1.6142  1.2209
   9423SM  H17G12753   5.068   4.666   9.342 -0.2582 -0.6259 -0.5556
   9423SM  C18F12754   4.984   4.821   9.458  0.1215 -0.5227 -0.6129
   9423SM  H18F12755   4.903   4.833   9.384  0.0116 -1.6047 -0.6824
   9423SM  H18G12756   5.014   4.911   9.515  0.3769 -0.5518 -0.6975
   9423SM  C19F12757   4.934   4.727   9.563 -0.3557 -1.0719  0.0039
   9423SM  H19F12758   5.019   4.696   9.628  1.8261 -0.6553 -2.4800
   9423SM  H19G12759   4.910   4.636   9.503 -0.4604 -0.2342 -1.2729
   9423SM  C20F12760   4.808   4.786   9.631  0.0215 -0.0140 -0.3728
   9423SM  H20F12761   4.735   4.713   9.671 -1.2603  2.2257  1.6455
   9423SM  H20G12762   4.756   4.831   9.543  0.1322 -0.8245 -0.8608
   9423SM  C21F12763   4.825   4.901   9.730  0.1725  0.1077 -0.3050
   9423SM  H21F12764   4.738   4.968   9.711 -0.5295 -0.6745  0.0920
   9423SM  H21G12765   4.912   4.968   9.710 -0.6291  0.8804 -1.2934
   9423SM  C22F12766   4.833   4.856   9.878 -0.0405  0.3269  0.7125
   9423SM  H22F12767   4.739   4.802   9.902  0.5282 -1.4721 -0.8317
   9423SM  H22G12768   4.839   4.947   9.942 -0.2206  1.8609 -1.3389
   9423SM  C23F12769   4.951   4.767   9.913  0.2771 -0.3043  0.3968
   9423SM  H23F12770   5.051   4.809   9.889  0.2942 -0.0886  0.8285
   9423SM  H23G12771   4.935   4.677   9.851 -0.0721 -0.2681  0.4295
   9423SM  H23H12772   4.951   4.739  10.021  2.8043  0.0823  0.5518
   9523SM     N12773   2.003   0.828   7.337  0.3659  0.5510  0.0443
   9523SM   C1512774   2.086   0.709   7.301  0.7713 -0.6870  0.3152
   9523SM  H15A12775   2.045   0.622   7.349  0.1641  1.0664  3.2080
   9523SM  H15B12776   2.188   0.740   7.316  0.1345  1.7144  0.1252
   9523SM  H15C12777   2.076   0.688   7.195 -1.6765 -1.2608  0.5975
   9523SM   C1412778   2.050   0.950   7.268 -0.2094 -0.9277  0.6059
   9523SM  H14A12779   1.978   1.028   7.288  0.4604 -0.6895  2.2100
   9523SM  H14B12780   2.048   0.936   7.161 -1.7395 -1.8147  0.7100
   9523SM  H14C12781   2.138   0.994   7.312 -0.8493  1.6264 -0.4854
   9523SM   C1312782   1.866   0.796   7.284  0.7185 -0.2877 -0.1433
   9523SM  H13A12783   1.821   0.714   7.337  0.3656 -0.4167 -0.6341
   9523SM  H13B12784   1.865   0.767   7.180 -0.8170 -2.1694  0.3397
   9523SM  H13C12785   1.798   0.878   7.299  0.6563 -0.4234  0.3232
   9523SM   C1212786   1.993   0.841   7.483 -0.0639 -0.4183 -0.0883
   9523SM  H12A12787   2.090   0.863   7.525  0.0459  0.2547 -0.6722
   9523SM  H12B12788   1.953   0.751   7.527 -2.0251 -0.3145 -1.5119
   9523SM   C1112789   1.898   0.951   7.538 -0.3398 -0.2959 -0.4710
   9523SM  H11A12790   1.894   0.946   7.648 -1.7336  1.0211 -0.4293
   9523SM  H11B12791   1.796   0.926   7.502 -0.4720  0.6898 -0.8148
   9523SM     P12792   1.837   1.194   7.477  0.4877  0.0074 -0.7183
   9523SM   O1312793   1.900   1.326   7.507  0.1895  0.0267  0.0365
   9523SM   O1412794   1.779   1.172   7.343 -0.4034  0.1680  0.5106
   9523SM   O1112795   1.731   1.163   7.589  0.5607  0.5542 -0.4372
   9523SM   O1212796   1.944   1.081   7.506  0.0516 -0.4229 -0.0137
   9523SM   C1S12797   1.750   1.204   7.725  0.0253 -0.0599  0.4912
   9523SM   H1S12798   1.762   1.315   7.729 -2.2972  0.2137  2.5849
   9523SM   H1T12799   1.835   1.148   7.769 -0.8438 -0.8861  1.1642
   9523SM    NF12800   1.636   1.224   7.937 -0.3245 -0.0694 -0.1561
   9523SM   HNF12801   1.691   1.173   8.004 -0.5988 -0.6331 -0.3482
   9523SM   C2S12802   1.627   1.158   7.810 -0.2161  0.0315  0.0224
   9523SM   H2S12803   1.531   1.190   7.766  0.0246  0.4004 -0.2374
   9523SM   C3S12804   1.629   1.002   7.827 -0.0711 -0.2585  0.4467
   9523SM   H3S12805   1.727   0.978   7.874  0.5958  1.2101 -0.1459
   9523SM    O312806   1.609   0.918   7.712 -0.2132 -0.2340  0.0822
   9523SM   HO312807   1.601   0.980   7.639  1.6857  2.3069  1.8453
   9523SM   C4S12808   1.522   0.955   7.930 -0.0555  0.7559 -0.0116
   9523SM   H4S12809   1.556   0.906   8.022  1.4256  1.0805 -0.3634
   9523SM   C5S12810   1.391   0.977   7.922  0.4285 -0.5412 -0.2445
   9523SM   H5S12811   1.343   1.002   7.826 -1.9652  0.9659  1.2471
   9523SM   C6S12812   1.294   0.946   8.033  0.6692 -0.1864  1.0035
   9523SM   H6S12813   1.215   0.875   7.999  0.2052 -0.2827  2.2464
   9523SM   H6T12814   1.232   1.036   8.050 -2.6607 -2.4586  2.0042
   9523SM   C7S12815   1.339   0.899   8.172 -0.4502 -0.0168 -0.1647
   9523SM   H7S12816   1.386   0.798   8.163 -1.4665 -0.6560  1.2690
   9523SM   H7T12817   1.241   0.894   8.223 -0.4885  0.3431 -0.1990
   9523SM   C8S12818   1.423   0.998   8.252  0.2661  1.0400 -0.1690
   9523SM   H8S12819   1.359   1.088   8.245  0.6019  1.2705 -0.2602
   9523SM   H8T12820   1.517   1.024   8.200  0.5172  1.7680  0.6289
   9523SM   C9S12821   1.450   0.957   8.399 -0.0753 -0.6053 -0.5769
   9523SM   H9S12822   1.510   0.863   8.392  0.1413 -0.3482 -2.9840
   9523SM   H9T12823   1.352   0.939   8.448  0.3440  0.7219  0.7993
   9523SM  C10S12824   1.526   1.082   8.460  0.1609 -0.0562 -0.4818
   9523SM  H10S12825   1.435   1.146   8.471 -0.0732 -0.3730 -0.5611
   9523SM  H10T12826   1.595   1.113   8.379 -0.8765  2.9224 -0.3843
   9523SM  C11S12827   1.587   1.053   8.596  0.5258 -0.3002  0.1864
   9523SM  H11S12828   1.623   0.948   8.603  1.7298 -0.0309 -1.3246
   9523SM  H11T12829   1.504   1.056   8.669  1.5835  0.6901  1.4131
   9523SM  C12S12830   1.692   1.150   8.629 -0.0074  0.3343 -0.2316
   9523SM  H12S12831   1.653   1.254   8.629 -0.1715  0.3516  2.3537
   9523SM  H12T12832   1.779   1.149   8.560 -0.8210  1.8908 -1.3366
   9523SM  C13S12833   1.738   1.130   8.780 -0.4191 -0.1846  0.5095
   9523SM  H13S12834   1.823   1.194   8.811  0.6986 -1.9248  1.1446
   9523SM  H13T12835   1.765   1.024   8.800 -2.7853 -0.6039  1.9711
   9523SM  C14S12836   1.616   1.167   8.872 -0.2906 -0.7441  0.1498
   9523SM  H14S12837   1.554   1.075   8.867  3.6618 -3.8103  2.3990
   9523SM  H14T12838   1.559   1.255   8.833  2.0812  0.3742 -1.0204
   9523SM  C15S12839   1.653   1.209   9.014  0.7321  0.0837  0.1306
   9523SM  H15S12840   1.694   1.312   9.006 -0.0892  0.3988 -0.1384
   9523SM  H15T12841   1.739   1.150   9.052  0.1476 -2.4936 -2.2051
   9523SM  C16S12842   1.533   1.216   9.110 -0.5025 -0.4572  0.3081
   9523SM  H16S12843   1.446   1.265   9.062 -0.8747  0.3675  1.7779
   9523SM  H16T12844   1.561   1.284   9.192  2.3893 -2.0548  0.7972
   9523SM  C17S12845   1.489   1.084   9.171  0.1340 -0.1899  0.5557
   9523SM  H17S12846   1.575   1.057   9.235  1.1660  2.0723  0.1942
   9523SM  H17T12847   1.482   1.002   9.096 -1.4873 -0.8241  1.3561
   9523SM  C18S12848   1.354   1.094   9.236 -0.5137 -0.5483  0.2448
   9523SM  H18S12849   1.278   1.140   9.170 -1.5372 -2.8458 -0.2693
   9523SM  H18T12850   1.367   1.155   9.328  2.6367 -0.8215  0.0993
   9523SM  H18U12851   1.322   0.995   9.277 -0.9217  0.1605  1.7106
   9523SM   C1F12852   1.599   1.353   7.955  0.5850  0.4568  0.2989
   9523SM    OF12853   1.529   1.415   7.870 -0.4623 -0.2675 -0.0742
   9523SM   C2F12854   1.630   1.409   8.090 -1.0686 -0.4594  0.6371
   9523SM   H2F12855   1.712   1.482   8.070 -1.1976 -0.9867 -2.2903
   9523SM   H2G12856   1.666   1.323   8.150  0.5466  0.7161  1.4367
   9523SM   C3F12857   1.508   1.479   8.159 -0.9128  0.4230 -0.3195
   9523SM   H3F12858   1.414   1.421   8.154  0.5336 -2.0458 -0.6235
   9523SM   H3G12859   1.502   1.576   8.104  1.9229  0.3350 -0.9582
   9523SM   C4F12860   1.529   1.496   8.315 -0.3317  0.3268  0.1411
   9523SM   H4F12861   1.507   1.396   8.357  0.4303  0.8376  1.8314
   9523SM   H4G12862   1.453   1.569   8.349 -0.9485  0.3730 -1.2435
   9523SM   C5F12863   1.678   1.535   8.361 -0.3771 -0.2952 -0.6570
   9523SM   H5F12864   1.722   1.616   8.301  1.6585 -0.6405  0.3023
   9523SM   H5G12865   1.739   1.445   8.335 -1.1096 -1.4218  1.2723
   9523SM   C6F12866   1.691   1.566   8.514 -0.2939  0.0432 -0.0166
   9523SM   H6F12867   1.712   1.481   8.582 -0.2188  0.5058  0.5424
   9523SM   H6G12868   1.603   1.621   8.552 -1.1685 -1.7299  0.6271
   9523SM   C7F12869   1.811   1.654   8.537 -0.3035  0.0439  0.1955
   9523SM   H7F12870   1.798   1.735   8.462  0.0501 -1.4924 -1.6002
   9523SM   H7G12871   1.902   1.603   8.498 -0.5300 -0.4726  0.3398
   9523SM   C8F12872   1.836   1.687   8.681 -0.1063 -0.0353  0.0118
   9523SM   H8F12873   1.871   1.601   8.742 -0.7056  1.3949  2.5314
   9523SM   H8G12874   1.746   1.733   8.728 -0.0428  2.2573 -1.9288
   9523SM   C9F12875   1.954   1.792   8.688  0.4124 -0.7616 -0.9926
   9523SM   H9F12876   1.923   1.885   8.637 -2.0681 -1.8351 -1.5676
   9523SM   H9G12877   2.035   1.735   8.637  2.5605 -0.0285  1.4223
   9523SM  C10F12878   2.000   1.815   8.827 -0.6601 -0.1544  0.1922
   9523SM  H10F12879   2.017   1.721   8.883 -0.3397 -0.2126 -0.0026
   9523SM  H10G12880   1.927   1.884   8.876 -0.4770  0.5420 -0.4870
   9523SM  C11F12881   2.130   1.890   8.829 -0.2370 -0.4812 -1.1482
   9523SM  H11F12882   2.107   1.975   8.761  0.1026  0.9344  0.4419
   9523SM  H11G12883   2.212   1.828   8.785  0.8816 -0.9171  1.3852
   9523SM  C12F12884   2.168   1.954   8.967  0.5428  0.2749  0.1629
   9523SM  H12F12885   2.215   1.873   9.027 -0.8033 -1.1819 -0.6646
   9523SM  H12G12886   2.073   1.982   9.018 -1.7431 -1.0278 -3.0334
   9523SM  C13F12887   2.272   2.059   8.943  0.0229  0.0918 -0.0211
   9523SM  H13F12888   2.226   2.138   8.880  1.7896  1.2156  0.0035
   9523SM  H13G12889   2.349   2.012   8.878 -1.0824 -0.5818 -0.8644
   9523SM  C14F12890   2.325   2.114   9.074  1.0876 -0.4549  0.3904
   9523SM  H14F12891   2.365   2.214   9.047 -1.8124  0.7143  0.1046
   9523SM  H14G12892   2.406   2.046   9.109  2.2763  1.4334  1.4597
   9523SM  C15F12893   2.216   2.134   9.184  0.3859  0.6891  0.5144
   9523SM  H15F12894   2.175   2.033   9.209 -0.7314  1.1781  0.7319
   9523SM  H15G12895   2.126   2.184   9.142  0.7669  0.7473 -0.2359
   9523SM  C16F12896   2.261   2.197   9.315 -0.4771 -0.4412  0.4140
   9523SM  H16F12897   2.364   2.154   9.324 -0.9148 -1.8857 -1.0641
   9523SM  H16G12898   2.193   2.186   9.402  1.0166 -1.3569  1.5158
   9523SM  C17F12899   2.295   2.349   9.293 -0.6200 -0.4493  0.2386
   9523SM  H17F12900   2.200   2.400   9.266 -0.1410 -0.2291 -1.1312
   9523SM  H17G12901   2.366   2.376   9.213  2.8694 -1.4672  2.7624
   9523SM  C18F12902   2.346   2.415   9.425  0.5173  0.3677  0.1771
   9523SM  H18F12903   2.426   2.348   9.463  1.8363  1.5496 -0.3989
   9523SM  H18G12904   2.258   2.415   9.493 -0.2947 -1.6974 -0.7987
   9523SM  C19F12905   2.407   2.561   9.415  0.4407 -0.2808  0.3542
   9523SM  H19F12906   2.495   2.541   9.351  0.4078  0.5030  0.0493
   9523SM  H19G12907   2.443   2.604   9.511  0.8493  1.4365 -0.5283
   9523SM  C20F12908   2.321   2.673   9.349  0.0312  0.2377  0.0315
   9523SM  H20F12909   2.311   2.650   9.240  1.1178 -0.9805  0.1631
   9523SM  H20G12910   2.369   2.772   9.367  0.2111  0.1261  0.1684
   9523SM  C21F12911   2.179   2.661   9.409 -0.2611 -0.3514  0.0357
   9523SM  H21F12912   2.193   2.659   9.520 -0.7342  0.8432  0.1295
   9523SM  H21G12913   2.127   2.565   9.390 -1.9530  0.5709 -0.1765
   9523SM  C22F12914   2.086   2.776   9.364  0.5274 -0.2868 -0.2815
   9523SM  H22F12915   2.129   2.877   9.377  0.4268 -0.5779  3.0418
   9523SM  H22G12916   1.988   2.785   9.416 -0.5121  2.0048 -2.4193
   9523SM  C23F12917   2.053   2.757   9.217 -0.1270 -0.7247  0.0753
   9523SM  H23F12918   2.022   2.651   9.212 -0.6720 -0.5128 -1.8369
   9523SM  H23G12919   2.139   2.777   9.151 -0.5364 -1.0700 -0.5712
   9523SM  H23H12920   1.970   2.816   9.172 -0.1749 -0.5454  0.3916
   9623SM     N12921   2.564   6.733   6.701 -0.2443  0.3075 -0.3596
   9623SM   C1512922   2.586   6.858   6.629 -0.1217 -0.1351 -0.2664
   9623SM  H15A12923   2.649   6.927   6.682  0.1721 -2.3009  2.4419
   9623SM  H15B12924   2.490   6.903   6.606  0.5746  0.6126 -1.8494
   9623SM  H15C12925   2.626   6.840   6.530 -1.9487 -0.2238 -1.0328
   9623SM   C1412926   2.469   6.645   6.621 -0.3892 -0.0720 -0.3908
   9623SM  H14A12927   2.506   6.614   6.524  0.2473 -1.8219  0.3795
   9623SM  H14B12928   2.374   6.691   6.596 -0.6723 -0.3564  0.1498
   9623SM  H14C12929   2.452   6.561   6.686  4.1123 -0.4037  0.6665
   9623SM   C1312930   2.693   6.665   6.707  0.0657 -0.2146  0.5219
   9623SM  H13A12931   2.676   6.569   6.754  0.6167 -0.8022 -0.4500
   9623SM  H13B12932   2.766   6.722   6.762  0.5745 -0.5924  0.2415
   9623SM  H13C12933   2.734   6.642   6.610 -1.0089 -0.5773  0.1291
   9623SM   C1212934   2.507   6.759   6.835 -0.2229  0.3830 -0.1104
   9623SM  H12A12935   2.407   6.799   6.825  0.0731  0.8927 -1.1630
   9623SM  H12B12936   2.558   6.845   6.877 -1.1974  0.5865  0.7260
   9623SM   C1112937   2.510   6.648   6.940  0.2177  0.0964  0.0292
   9623SM  H11A12938   2.502   6.685   7.044  0.9742  1.7817 -0.4748
   9623SM  H11B12939   2.610   6.601   6.933  0.5594  0.6889  0.7725
   9623SM     P12940   2.269   6.553   6.934 -0.2120 -0.7063  0.0219
   9623SM   O1312941   2.228   6.698   6.936  0.1966 -0.7394 -0.7434
   9623SM   O1412942   2.189   6.455   6.853 -0.3582 -0.3015 -0.4158
   9623SM   O1112943   2.262   6.503   7.086  0.0669  0.2166  0.1658
   9623SM   O1212944   2.422   6.539   6.900 -0.2181  0.0521  0.3904
   9623SM   C1S12945   2.368   6.456   7.167 -0.0590  0.8705  0.7744
   9623SM   H1S12946   2.435   6.542   7.191  0.1908  1.3997 -1.6183
   9623SM   H1T12947   2.427   6.386   7.104 -1.5310  0.4270 -0.1604
   9623SM    NF12948   2.441   6.342   7.375  0.0545  0.2998  0.0594
   9623SM   HNF12949   2.476   6.249   7.383  1.1447  0.7514  0.8131
   9623SM   C2S12950   2.327   6.375   7.290 -0.8619 -0.3683 -0.0254
   9623SM   H2S12951   2.260   6.439   7.351 -0.9700 -1.6045  1.2084
   9623SM   C3S12952   2.232   6.253   7.251 -0.1371 -0.1171  0.3034
   9623SM   H3S12953   2.298   6.184   7.195  0.3081  1.0835 -0.7270
   9623SM    O312954   2.122   6.295   7.173 -0.0242 -0.1496 -0.9959
   9623SM   HO312955   2.142   6.378   7.130 -2.3736  1.6766  1.1493
   9623SM   C4S12956   2.182   6.182   7.375  0.2538 -0.3253  0.2853
   9623SM   H4S12957   2.145   6.247   7.456  1.6049  2.4341 -1.1545
   9623SM   C5S12958   2.171   6.051   7.396  0.4627  0.3800  1.2090
   9623SM   H5S12959   2.199   5.985   7.313 -0.2579 -0.7538  1.8444
   9623SM   C6S12960   2.126   5.970   7.515  0.2847 -0.0668  0.5488
   9623SM   H6S12961   2.191   5.881   7.533  2.3702  1.4077  0.7535
   9623SM   H6T12962   2.026   5.930   7.490  0.0085  0.7290  0.3322
   9623SM   C7S12963   2.124   6.042   7.654 -0.4378 -0.2608  0.4457
   9623SM   H7S12964   2.058   6.132   7.651  0.8415  0.6790 -0.5090
   9623SM   H7T12965   2.226   6.084   7.667 -0.1309 -1.4548  2.4114
   9623SM   C8S12966   2.093   5.949   7.764  0.4473 -0.3551 -0.0847
   9623SM   H8S12967   2.153   5.856   7.765 -1.0046 -1.3320  0.9156
   9623SM   H8T12968   1.993   5.903   7.746 -0.1426  1.1644 -0.8595
   9623SM   C9S12969   2.092   6.005   7.907  0.1950  0.4626 -0.2732
   9623SM   H9S12970   2.011   6.080   7.904  0.8013  1.1626  0.4729
   9623SM   H9T12971   2.187   6.058   7.932  0.8060 -0.6827 -0.0611
   9623SM  C10S12972   2.062   5.901   8.014  0.4373  0.2435 -0.2052
   9623SM  H10S12973   2.123   5.812   7.991  2.3460  2.0135 -2.5438
   9623SM  H10T12974   1.958   5.863   8.000 -0.1495  1.5482  0.4473
   9623SM  C11S12975   2.073   5.955   8.155  0.6314  0.4055  0.1016
   9623SM  H11S12976   1.996   6.032   8.176 -0.4586 -0.8148  0.7229
   9623SM  H11T12977   2.174   5.999   8.167  1.3290 -0.7389 -1.3656
   9623SM  C12S12978   2.065   5.850   8.260 -0.3495  0.3976 -0.0292
   9623SM  H12S12979   2.141   5.772   8.235 -0.7139 -0.6205  1.8659
   9623SM  H12T12980   1.964   5.803   8.255 -0.2458  0.2524 -1.1331
   9623SM  C13S12981   2.104   5.922   8.388 -0.3172  0.3601 -0.3218
   9623SM  H13S12982   2.027   6.001   8.402 -2.3415 -1.6443  0.4352
   9623SM  H13T12983   2.205   5.967   8.376 -0.2540  0.5852  0.8742
   9623SM  C14S12984   2.097   5.829   8.504 -0.2958 -0.1810  0.0785
   9623SM  H14S12985   2.001   5.772   8.505 -1.0254  0.9655 -0.8649
   9623SM  H14T12986   2.091   5.891   8.595 -2.9963  0.2026 -0.2593
   9623SM  C15S12987   2.212   5.729   8.505 -0.6371 -0.0893 -0.0124
   9623SM  H15S12988   2.283   5.767   8.428 -1.8534 -1.5666 -1.9797
   9623SM  H15T12989   2.175   5.627   8.478  0.6623 -0.6465  0.2136
   9623SM  C16S12990   2.279   5.742   8.643 -0.0235 -0.2620 -0.8422
   9623SM  H16S12991   2.291   5.848   8.675 -1.8161 -0.6361  1.2800
   9623SM  H16T12992   2.383   5.702   8.648  0.5054  0.9615 -1.5832
   9623SM  C17S12993   2.201   5.659   8.754 -0.2350 -0.4808 -0.3685
   9623SM  H17S12994   2.149   5.578   8.699  1.7880 -1.4040 -0.9844
   9623SM  H17T12995   2.130   5.725   8.808  0.8480  1.6002 -1.3418
   9623SM  C18S12996   2.303   5.596   8.858  0.4277 -0.6575  0.4103
   9623SM  H18S12997   2.365   5.668   8.915 -2.6943  0.8815  2.1044
   9623SM  H18T12998   2.369   5.525   8.804  2.2677  2.2484 -1.4074
   9623SM  H18U12999   2.244   5.546   8.938 -0.5217  1.7910  1.3206
   9623SM   C1F13000   2.522   6.433   7.417  0.2455  0.2035 -0.6719
   9623SM    OF13001   2.495   6.553   7.411  0.1011  0.3931 -0.2781
   9623SM   C2F13002   2.655   6.388   7.472  0.1818  0.0828  0.6939
   9623SM   H2F13003   2.742   6.398   7.402 -1.5614  1.1345 -1.4449
   9623SM   H2G13004   2.645   6.278   7.488 -1.5498 -0.0781 -1.0664
   9623SM   C3F13005   2.683   6.447   7.613 -0.1081 -0.0332  0.1458
   9623SM   H3F13006   2.590   6.448   7.673  1.1750  1.4020  2.2494
   9623SM   H3G13007   2.727   6.549   7.605  2.7671 -1.0925  1.0178
   9623SM   C4F13008   2.793   6.371   7.686  1.0656  0.2861  0.3135
   9623SM   H4F13009   2.885   6.369   7.623 -0.9728  1.3422 -2.9624
   9623SM   H4G13010   2.756   6.269   7.707 -1.0129  0.6400 -1.3107
   9623SM   C5F13011   2.816   6.437   7.822  0.1292 -0.4622 -0.0542
   9623SM   H5F13012   2.728   6.427   7.889  0.1300 -0.8775 -0.1128
   9623SM   H5G13013   2.825   6.546   7.803 -1.3545 -0.7384 -2.8303
   9623SM   C6F13014   2.927   6.376   7.899  0.3156  0.4089 -0.0578
   9623SM   H6F13015   2.936   6.266   7.881  0.1408  0.5474 -1.0325
   9623SM   H6G13016   2.934   6.390   8.009  0.6248 -2.2385  0.3373
   9623SM   C7F13017   3.067   6.430   7.857  0.1668  0.6145 -0.1874
   9623SM   H7F13018   3.087   6.533   7.892  1.8156  0.5134 -0.7399
   9623SM   H7G13019   3.077   6.434   7.746 -0.4365  2.0082 -0.2088
   9623SM   C8F13020   3.184   6.351   7.915 -0.8045  0.0151 -0.1083
   9623SM   H8F13021   3.277   6.396   7.874 -2.2093  2.6924 -0.5607
   9623SM   H8G13022   3.181   6.245   7.882 -0.3983 -0.3008  0.8365
   9623SM   C9F13023   3.188   6.365   8.067 -0.0139 -0.4427 -0.0102
   9623SM   H9F13024   3.103   6.308   8.111  0.3267 -0.3796  0.7500
   9623SM   H9G13025   3.180   6.473   8.092  0.3115 -0.0329 -1.6071
   9623SM  C10F13026   3.329   6.321   8.134  0.2410  0.6797  0.0214
   9623SM  H10F13027   3.408   6.391   8.101 -1.7412  3.0072 -0.0786
   9623SM  H10G13028   3.351   6.220   8.092 -0.9320  0.2106  0.4889
   9623SM  C11F13029   3.332   6.320   8.290 -0.2035 -0.2150  0.5478
   9623SM  H11F13030   3.246   6.263   8.332 -0.7620  0.7551  0.7493
   9623SM  H11G13031   3.318   6.422   8.332 -0.6310  0.5019 -1.2545
   9623SM  C12F13032   3.457   6.256   8.347  0.0858  0.3066 -0.0615
   9623SM  H12F13033   3.549   6.296   8.300  0.6910 -0.6170  0.2981
   9623SM  H12G13034   3.460   6.150   8.312 -5.3686 -0.2788  0.4492
   9623SM  C13F13035   3.459   6.253   8.503  0.1056 -0.1012  0.4569
   9623SM  H13F13036   3.517   6.165   8.540  1.1650 -0.8062 -2.5643
   9623SM  H13G13037   3.353   6.248   8.536 -0.6452  2.3291 -1.2877
   9623SM  C14F13038   3.514   6.381   8.569  0.2643  0.6525  0.5131
   9623SM  H14F13039   3.450   6.468   8.541 -0.3794 -0.1339 -0.5195
   9623SM  H14G13040   3.611   6.396   8.518  0.1218  2.6468  0.7346
   9623SM  C15F13041   3.525   6.375   8.717  0.4480  0.7907 -0.2504
   9623SM  H15F13042   3.429   6.331   8.750  1.9940 -2.4961  0.2544
   9623SM  H15G13043   3.535   6.482   8.748  1.3318  1.0884 -1.4775
   9623SM  C16F13044   3.644   6.288   8.771  0.0177  0.4127  0.0200
   9623SM  H16F13045   3.735   6.317   8.715  0.4877 -1.2052 -0.1070
   9623SM  H16G13046   3.613   6.184   8.746  1.3113  0.2683 -1.0627
   9623SM  C17F13047   3.658   6.312   8.918  0.7021 -0.4796 -0.6061
   9623SM  H17F13048   3.570   6.276   8.976  1.0014  2.3471  1.8149
   9623SM  H17G13049   3.653   6.421   8.938 -1.9043 -0.2146 -2.1446
   9623SM  C18F13050   3.782   6.247   8.973 -0.5103 -0.1642 -0.0743
   9623SM  H18F13051   3.863   6.301   8.920 -2.7212  0.8506 -2.6456
   9623SM  H18G13052   3.783   6.144   8.930 -0.8166 -1.2033  2.2145
   9623SM  C19F13053   3.799   6.247   9.122 -0.4729  0.5486 -0.0833
   9623SM  H19F13054   3.815   6.350   9.160  0.1174  0.8513 -1.1231
   9623SM  H19G13055   3.895   6.195   9.144 -0.8692 -0.3000 -0.3033
   9623SM  C20F13056   3.677   6.204   9.203  0.0135 -0.3345  0.2901
   9623SM  H20F13057   3.642   6.107   9.162  1.4811 -2.2438  3.1590
   9623SM  H20G13058   3.597   6.280   9.197  1.0564  0.7176 -0.5560
   9623SM  C21F13059   3.694   6.172   9.352  0.5831  0.0211 -0.3001
   9623SM  H21F13060   3.772   6.093   9.351  1.2958  0.7103 -0.0678
   9623SM  H21G13061   3.601   6.137   9.403  1.5071 -1.7584  0.2435
   9623SM  C22F13062   3.744   6.298   9.427 -0.0764 -0.5186  0.3555
   9623SM  H22F13063   3.695   6.391   9.391  3.7615  2.2182  1.5112
   9623SM  H22G13064   3.852   6.306   9.401 -0.6512 -0.4280 -2.2910
   9623SM  C23F13065   3.740   6.292   9.580 -0.0234  0.4616  0.4650
   9623SM  H23F13066   3.637   6.281   9.619  0.0299 -1.6158  0.1096
   9623SM  H23G13067   3.777   6.390   9.617 -2.3542  1.8419 -0.6222
   9623SM  H23H13068   3.809   6.216   9.622 -0.8681 -0.5958 -0.0222
   9723SM     N13069   3.852   5.057   6.750 -0.1545  0.0571  1.3131
   9723SM   C1513070   3.897   5.185   6.824 -0.3540  0.2566  0.6001
   9723SM  H15A13071   3.886   5.154   6.927  0.4074 -2.8398 -0.1362
   9723SM  H15B13072   3.829   5.264   6.795 -1.0646 -0.4003  0.4407
   9723SM  H15C13073   4.000   5.210   6.804  0.3346 -2.2020  0.8288
   9723SM   C1413074   3.862   5.084   6.598 -0.0574 -0.0624 -0.5264
   9723SM  H14A13075   3.843   4.998   6.535 -2.5598 -0.3434  0.5129
   9723SM  H14B13076   3.966   5.102   6.578 -0.0747 -0.8268 -1.3848
   9723SM  H14C13077   3.792   5.161   6.567 -0.9032 -0.4831  0.2986
   9723SM   C1313078   3.938   4.936   6.779 -0.4221  0.3317  0.9237
   9723SM  H13A13079   3.917   4.852   6.714 -1.9873  0.2428  1.5089
   9723SM  H13B13080   3.915   4.895   6.876  2.0238 -2.1912  0.5641
   9723SM  H13C13081   4.041   4.966   6.766 -0.5685  0.3736 -0.2794
   9723SM   C1213082   3.708   5.035   6.782  0.0023 -0.3025 -0.3375
   9723SM  H12A13083   3.673   4.950   6.726 -0.5971 -0.9426  0.9556
   9723SM  H12B13084   3.645   5.118   6.754 -1.0399 -1.4892 -1.6159
   9723SM   C1113085   3.678   4.990   6.928  0.6071  0.4608  0.0284
   9723SM  H11A13086   3.741   4.901   6.950  1.3767  0.3686 -2.2677
   9723SM  H11B13087   3.573   4.955   6.935  0.6056 -0.3006 -2.6175
   9723SM     P13088   3.614   5.217   7.041  0.1746 -0.2053 -0.0855
   9723SM   O1313089   3.671   5.345   6.989  0.0733  0.4804  0.2249
   9723SM   O1413090   3.469   5.194   7.012 -0.5508 -0.6206 -0.4421
   9723SM   O1113091   3.621   5.225   7.198  0.0650 -0.1316 -0.3793
   9723SM   O1213092   3.710   5.089   7.021 -0.1766  0.3343 -0.0944
   9723SM   C1S13093   3.619   5.111   7.279 -0.2890  0.3008  0.2406
   9723SM   H1S13094   3.704   5.043   7.257 -1.2752 -0.2614 -2.1994
   9723SM   H1T13095   3.532   5.045   7.255  1.1171 -1.2657 -0.7379
   9723SM    NF13096   3.637   5.032   7.511  0.1929  0.4039  0.1545
   9723SM   HNF13097   3.557   5.013   7.566  0.0491  0.8808  0.1128
   9723SM   C2S13098   3.628   5.150   7.431  0.3846  0.0121  0.7228
   9723SM   H2S13099   3.725   5.201   7.445  0.2058  1.0433 -1.4113
   9723SM   C3S13100   3.507   5.238   7.468  0.2623  0.5575 -0.5626
   9723SM   H3S13101   3.421   5.170   7.455 -0.4089  1.8605 -4.0187
   9723SM    O313102   3.479   5.350   7.383  0.2535  0.2320 -0.5760
   9723SM   HO313103   3.544   5.337   7.314 -0.7600 -1.9427 -1.2217
   9723SM   C4S13104   3.502   5.280   7.606  0.8503  0.7150 -0.3957
   9723SM   H4S13105   3.452   5.210   7.674  2.9996 -0.5010  0.0556
   9723SM   C5S13106   3.555   5.390   7.655  0.4607 -0.0996  0.7460
   9723SM   H5S13107   3.612   5.458   7.590 -0.8761 -0.4743 -0.8818
   9723SM   C6S13108   3.566   5.435   7.801 -0.9272  0.1271 -0.2882
   9723SM   H6S13109   3.505   5.527   7.812 -0.8338  0.1116  0.4033
   9723SM   H6T13110   3.674   5.452   7.820  0.1462 -4.1593 -1.3825
   9723SM   C7S13111   3.527   5.338   7.906 -0.1900 -0.1617  0.0424
   9723SM   H7S13112   3.603   5.256   7.916 -0.7843 -0.8003 -0.5798
   9723SM   H7T13113   3.434   5.281   7.882 -0.1570 -1.5092  2.7179
   9723SM   C8S13114   3.508   5.397   8.045 -0.8553 -0.3737 -0.2518
   9723SM   H8S13115   3.430   5.476   8.043  0.8556  1.3846 -1.6322
   9723SM   H8T13116   3.605   5.445   8.072  0.1198 -2.0622 -0.6284
   9723SM   C9S13117   3.464   5.301   8.153 -0.0272  0.3151  0.2984
   9723SM   H9S13118   3.521   5.208   8.130 -1.4958 -0.8804  1.3581
   9723SM   H9T13119   3.360   5.269   8.132 -0.9285  2.8675  0.5776
   9723SM  C10S13120   3.483   5.355   8.300  0.0052 -0.4709  0.1465
   9723SM  H10S13121   3.452   5.462   8.301  2.4652  0.3124  1.3913
   9723SM  H10T13122   3.591   5.359   8.328  0.0563  2.3875 -0.1070
   9723SM  C11S13123   3.404   5.284   8.406  0.2983 -0.0497  0.1663
   9723SM  H11S13124   3.447   5.186   8.437 -3.3146 -2.3845 -1.5050
   9723SM  H11T13125   3.303   5.260   8.365  0.0640  0.2760  0.5447
   9723SM  C12S13126   3.371   5.377   8.527 -0.5473  0.4537  0.0877
   9723SM  H12S13127   3.320   5.464   8.480 -1.6015 -0.2442 -0.1029
   9723SM  H12T13128   3.466   5.415   8.569 -0.4607 -1.1970  1.5051
   9723SM  C13S13129   3.299   5.318   8.650  0.3553 -0.3636  0.5751
   9723SM  H13S13130   3.353   5.233   8.697 -2.2723 -1.9654  0.8829
   9723SM  H13T13131   3.198   5.280   8.624  0.3139 -0.2979  0.6384
   9723SM  C14S13132   3.290   5.418   8.767  0.0594 -0.2346  0.6925
   9723SM  H14S13133   3.212   5.491   8.740  1.6784  0.7004 -1.7267
   9723SM  H14T13134   3.382   5.481   8.766 -0.5309  0.7195  2.2227
   9723SM  C15S13135   3.292   5.358   8.905 -0.3949 -0.2374 -0.1459
   9723SM  H15S13136   3.339   5.433   8.973  0.4007  0.2105 -1.1613
   9723SM  H15T13137   3.353   5.266   8.900  1.6351  1.0370  0.2195
   9723SM  C16S13138   3.160   5.309   8.963  0.1809  0.0130  0.8059
   9723SM  H16S13139   3.106   5.242   8.891 -1.1595 -0.3676  2.1056
   9723SM  H16T13140   3.088   5.392   8.977 -1.6311 -1.3259 -0.0472
   9723SM  C17S13141   3.170   5.233   9.098  0.2365 -0.3040  0.1659
   9723SM  H17S13142   3.259   5.168   9.091  2.1606  1.6703  3.4516
   9723SM  H17T13143   3.073   5.185   9.122 -0.8729  1.8696  0.3001
   9723SM  C18S13144   3.215   5.315   9.217 -0.5271  0.6416 -0.6329
   9723SM  H18S13145   3.218   5.256   9.311 -0.5550  0.5135 -0.7117
   9723SM  H18T13146   3.141   5.395   9.239 -0.2850  0.6090  0.3110
   9723SM  H18U13147   3.320   5.346   9.197 -1.0107  1.8463 -1.3791
   9723SM   C1F13148   3.743   4.956   7.527  0.5383 -0.1871  0.1060
   9723SM    OF13149   3.837   4.964   7.454 -0.9936 -0.2160 -0.2271
   9723SM   C2F13150   3.737   4.853   7.627 -0.5745  0.2468  0.7772
   9723SM   H2F13151   3.810   4.774   7.598  0.1951  0.3415  2.3434
   9723SM   H2G13152   3.641   4.799   7.608 -0.2133  0.1950 -1.1328
   9723SM   C3F13153   3.755   4.896   7.776  0.4527 -0.0726  0.1425
   9723SM   H3F13154   3.673   4.963   7.810  0.3082  0.3145 -0.9155
   9723SM   H3G13155   3.851   4.948   7.798 -0.8285  2.2609  0.5544
   9723SM   C4F13156   3.740   4.763   7.864  0.6234 -0.5463  0.1440
   9723SM   H4F13157   3.824   4.693   7.844  0.6497 -0.6419  0.5651
   9723SM   H4G13158   3.640   4.729   7.830  0.2101  1.5812 -0.9102
   9723SM   C5F13159   3.732   4.797   8.014  0.4242  0.3720 -0.2483
   9723SM   H5F13160   3.686   4.896   8.035  0.7746 -0.2176  4.4866
   9723SM   H5G13161   3.830   4.796   8.067 -0.3185  1.0792  1.1925
   9723SM   C6F13162   3.639   4.697   8.093 -0.3524  0.4748 -0.2368
   9723SM   H6F13163   3.691   4.608   8.134 -3.9756 -1.7039  0.0616
   9723SM   H6G13164   3.559   4.655   8.028 -0.1594 -4.0185  2.0151
   9723SM   C7F13165   3.562   4.753   8.215 -0.5680  0.2002  0.2132
   9723SM   H7F13166   3.495   4.679   8.263  0.6126  0.2383  2.0322
   9723SM   H7G13167   3.514   4.844   8.175  0.4336  0.8733  0.5008
   9723SM   C8F13168   3.647   4.806   8.334 -0.1594  0.3207 -0.3940
   9723SM   H8F13169   3.715   4.884   8.293 -0.9608  0.6359 -1.1532
   9723SM   H8G13170   3.712   4.718   8.351  0.9565  0.7113 -2.3309
   9723SM   C9F13171   3.552   4.852   8.440 -0.2076 -0.0156  1.0922
   9723SM   H9F13172   3.460   4.790   8.447 -0.5792  0.3509 -0.2481
   9723SM   H9G13173   3.502   4.945   8.403 -2.2269 -1.8673 -1.1523
   9723SM  C10F13174   3.617   4.884   8.573  0.3041  0.1456 -0.2120
   9723SM  H10F13175   3.708   4.937   8.541  2.4077 -1.9992  1.8147
   9723SM  H10G13176   3.647   4.792   8.629 -1.1319  0.3514  0.9840
   9723SM  C11F13177   3.525   4.954   8.669 -0.0298  0.1218 -0.4001
   9723SM  H11F13178   3.459   4.872   8.703 -0.2570  0.0023 -1.1044
   9723SM  H11G13179   3.468   5.030   8.610 -0.9328  0.1044  0.4140
   9723SM  C12F13180   3.572   5.038   8.791  0.5733 -0.2418  0.3442
   9723SM  H12F13181   3.633   4.976   8.860  0.7706  0.4929  0.8407
   9723SM  H12G13182   3.487   5.091   8.837 -0.2697  0.4131 -1.8223
   9723SM  C13F13183   3.668   5.158   8.751  0.4193  0.3508  1.2448
   9723SM  H13F13184   3.635   5.210   8.659  1.3821  0.8581  1.1700
   9723SM  H13G13185   3.753   5.091   8.727  0.5310  1.2625 -1.2135
   9723SM  C14F13186   3.686   5.251   8.868 -1.0921 -0.7125 -0.7536
   9723SM  H14F13187   3.725   5.189   8.952  1.7624  1.9212  0.0600
   9723SM  H14G13188   3.594   5.310   8.887 -1.7328 -1.7685 -0.5352
   9723SM  C15F13189   3.798   5.355   8.842  0.9023  0.1371  0.1586
   9723SM  H15F13190   3.896   5.310   8.819  0.5437  0.3195 -1.9078
   9723SM  H15G13191   3.815   5.419   8.932  0.2748 -0.1272  0.4779
   9723SM  C16F13192   3.759   5.462   8.732  0.5856  0.5373 -0.9292
   9723SM  H16F13193   3.661   5.511   8.754  0.1685 -0.5312 -0.3165
   9723SM  H16G13194   3.760   5.424   8.628 -1.3342 -0.0859 -0.7660
   9723SM  C17F13195   3.857   5.585   8.734  1.0036 -0.3882  0.0218
   9723SM  H17F13196   3.842   5.624   8.632  3.2360  0.4131 -0.0565
   9723SM  H17G13197   3.963   5.555   8.749  0.5640 -1.1205  1.9912
   9723SM  C18F13198   3.815   5.707   8.834 -0.1951  0.0771  0.2552
   9723SM  H18F13199   3.899   5.779   8.828 -1.9951  2.5367  2.2458
   9723SM  H18G13200   3.805   5.657   8.933  1.8609 -3.1200 -0.9917
   9723SM  C19F13201   3.685   5.787   8.818 -0.2764  0.0474 -0.2144
   9723SM  H19F13202   3.600   5.717   8.804 -0.7590  1.0145 -2.5348
   9723SM  H19G13203   3.696   5.849   8.727 -2.5373  0.0477 -0.5474
   9723SM  C20F13204   3.645   5.895   8.922 -1.0509  0.6225 -0.0581
   9723SM  H20F13205   3.595   5.978   8.867 -0.3317  4.6715  4.6918
   9723SM  H20G13206   3.742   5.923   8.968 -0.4400 -2.2209  0.5794
   9723SM  C21F13207   3.557   5.844   9.034  0.0495  0.4216 -0.0964
   9723SM  H21F13208   3.537   5.923   9.110  0.3516  0.8361 -0.4425
   9723SM  H21G13209   3.604   5.753   9.077  0.6322 -0.5984 -2.7056
   9723SM  C22F13210   3.416   5.800   8.985  0.3709 -0.5809  0.0157
   9723SM  H22F13211   3.417   5.728   8.900 -0.6255 -1.3705  0.6497
   9723SM  H22G13212   3.371   5.891   8.940 -0.4220 -1.7144 -1.5786
   9723SM  C23F13213   3.326   5.755   9.101  0.2733  0.3232  0.2315
   9723SM  H23F13214   3.318   5.829   9.184 -2.6425 -1.5507  1.8086
   9723SM  H23G13215   3.375   5.665   9.144  0.2049 -0.0539 -0.4753
   9723SM  H23H13216   3.227   5.718   9.065  2.0590 -2.7179 -1.9642
   9823SM     N13217   6.175   6.499   6.811  0.1301 -0.1057  0.1023
   9823SM   C1513218   6.290   6.593   6.844 -0.5615  0.4108  0.4266
   9823SM  H15A13219   6.383   6.539   6.835 -0.8425  0.1379 -1.1532
   9823SM  H15B13220   6.288   6.639   6.942  1.8116 -1.1911  1.3200
   9823SM  H15C13221   6.296   6.674   6.773  3.2237  0.2323  0.3541
   9823SM   C1413222   6.049   6.579   6.823 -0.1777  0.8837  0.0450
   9823SM  H14A13223   5.984   6.525   6.757  0.4377  1.1864 -0.8217
   9823SM  H14B13224   6.057   6.682   6.793  2.2132  0.7083 -0.0855
   9823SM  H14C13225   6.004   6.573   6.921 -0.8864 -0.5087 -0.3398
   9823SM   C1313226   6.208   6.457   6.673 -0.1469 -0.9636  0.1964
   9823SM  H13A13227   6.142   6.377   6.643 -1.4223 -0.0646  0.5331
   9823SM  H13B13228   6.306   6.414   6.682  0.4274 -0.1105 -1.5158
   9823SM  H13C13229   6.202   6.539   6.603 -0.5460 -1.0213  0.1604
   9823SM   C1213230   6.172   6.374   6.896 -0.8256 -0.4536  0.4338
   9823SM  H12A13231   6.246   6.306   6.856 -0.4772 -0.9377  1.8418
   9823SM  H12B13232   6.076   6.324   6.885 -0.8365 -0.0507 -1.8449
   9823SM   C1113233   6.210   6.385   7.044 -0.1863 -0.0638 -0.6099
   9823SM  H11A13234   6.310   6.431   7.059  0.0463 -0.3107 -1.3829
   9823SM  H11B13235   6.217   6.281   7.085  0.0472 -0.0487 -0.6109
   9823SM     P13236   5.973   6.389   7.153 -0.2311  0.3925 -0.1370
   9823SM   O1313237   5.896   6.494   7.224  0.6630 -0.2658 -0.8884
   9823SM   O1413238   5.911   6.348   7.025 -0.3963 -0.4478  0.0432
   9823SM   O1113239   6.002   6.268   7.244 -0.3194  0.2150 -0.1320
   9823SM   O1213240   6.113   6.451   7.122  0.4544 -0.1989 -0.1582
   9823SM   C1S13241   6.081   6.261   7.367 -0.2504  0.6182 -0.4041
   9823SM   H1S13242   6.133   6.356   7.391  0.2672  0.2551 -0.0665
   9823SM   H1T13243   6.164   6.187   7.366  0.3219  1.2368  0.1710
   9823SM    NF13244   6.059   6.219   7.618  0.0252  0.4257  0.7607
   9823SM   HNF13245   6.091   6.132   7.654  0.3499 -0.4923 -1.5496
   9823SM   C2S13246   5.991   6.214   7.488 -0.2464 -0.2075  0.3140
   9823SM   H2S13247   5.898   6.275   7.483 -0.4675 -0.6367 -2.1993
   9823SM   C3S13248   5.927   6.078   7.459 -0.0084  0.5389  0.1708
   9823SM   H3S13249   6.010   6.004   7.452 -2.0893 -1.7662 -2.8606
   9823SM    O313250   5.865   6.060   7.332  0.8565 -0.0125  0.4140
   9823SM   HO313251   5.899   6.130   7.275 -1.7846  2.2786  1.3971
   9823SM   C4S13252   5.824   6.042   7.562  0.0852  0.2596  0.5177
   9823SM   H4S13253   5.743   6.116   7.561  2.1350  2.6565 -1.0545
   9823SM   C5S13254   5.814   5.933   7.636  0.2853  0.0912 -0.3503
   9823SM   H5S13255   5.883   5.848   7.626  1.0245  0.1078  3.2340
   9823SM   C6S13256   5.701   5.897   7.732  0.2121 -0.5147 -0.3846
   9823SM   H6S13257   5.666   5.797   7.700  3.2143 -1.7464 -0.0921
   9823SM   H6T13258   5.618   5.971   7.733  0.9930  0.4335 -1.4613
   9823SM   C7S13259   5.744   5.871   7.879  0.7320 -0.1282 -0.8581
   9823SM   H7S13260   5.833   5.805   7.882  1.2878  0.5964 -1.1363
   9823SM   H7T13261   5.661   5.826   7.939  0.0644  2.0331 -0.0652
   9823SM   C8S13262   5.784   5.997   7.957 -0.1358  0.1842  0.7007
   9823SM   H8S13263   5.717   6.076   7.916 -0.4894 -0.8273 -0.7479
   9823SM   H8T13264   5.880   6.022   7.907 -0.4101 -0.6285 -0.2451
   9823SM   C9S13265   5.781   5.993   8.111 -0.1894 -0.6332 -0.1929
   9823SM   H9S13266   5.843   5.903   8.128 -0.4661 -0.3316  3.0048
   9823SM   H9T13267   5.679   5.973   8.150  0.7991  0.4899  3.2934
   9823SM  C10S13268   5.839   6.122   8.184  0.0459  0.3534 -0.6394
   9823SM  H10S13269   5.761   6.201   8.188 -1.7284 -1.3520  1.9525
   9823SM  H10T13270   5.920   6.159   8.119  2.2387 -2.0897  0.5133
   9823SM  C11S13271   5.890   6.094   8.334 -0.1113  0.2735  0.7774
   9823SM  H11S13272   5.958   6.178   8.361 -0.7654  0.8417  0.6658
   9823SM  H11T13273   5.950   6.000   8.336  0.0632  0.3864  2.4678
   9823SM  C12S13274   5.773   6.086   8.442 -0.2258  0.8588  0.5501
   9823SM  H12S13275   5.697   6.013   8.406  2.1445 -1.6525  0.3425
   9823SM  H12T13276   5.729   6.188   8.446 -2.1812  0.0759  0.0714
   9823SM  C13S13277   5.824   6.047   8.583 -0.0968 -0.3372 -0.0882
   9823SM  H13S13278   5.768   6.103   8.660 -1.3383 -0.9239 -0.5344
   9823SM  H13T13279   5.927   6.087   8.583  0.3663 -1.3755  2.4309
   9823SM  C14S13280   5.823   5.904   8.618  0.4386  0.7850 -0.1884
   9823SM  H14S13281   5.901   5.848   8.561 -0.7074 -2.0774  0.8549
   9823SM  H14T13282   5.731   5.847   8.591  2.4457 -3.0762  0.3315
   9823SM  C15S13283   5.850   5.900   8.766 -0.3353 -0.2996 -1.0678
   9823SM  H15S13284   5.789   5.971   8.825  0.3468 -0.7201  0.1761
   9823SM  H15T13285   5.960   5.906   8.780 -0.2907 -1.7189 -0.6828
   9823SM  C16S13286   5.811   5.764   8.830  0.1574 -0.7063  0.0159
   9823SM  H16S13287   5.885   5.683   8.811  0.8656 -0.2938  0.9153
   9823SM  H16T13288   5.711   5.735   8.792 -0.3200 -1.4076  1.7399
   9823SM  C17S13289   5.795   5.768   8.991  0.0215 -0.7659 -0.0921
   9823SM  H17S13290   5.720   5.849   9.000  2.7138  1.8205  0.5242
   9823SM  H17T13291   5.893   5.803   9.029  0.7349 -2.7153  0.0003
   9823SM  C18S13292   5.773   5.633   9.040  0.3161 -0.1596 -0.7841
   9823SM  H18S13293   5.690   5.589   8.980 -1.3047  1.4991  0.1193
   9823SM  H18T13294   5.758   5.638   9.150  1.3340  2.7601 -0.7012
   9823SM  H18U13295   5.867   5.576   9.028 -1.1113 -2.9177  0.0308
   9823SM   C1F13296   6.097   6.328   7.681  0.3247 -0.5631  1.4063
   9823SM    OF13297   6.068   6.437   7.636 -0.3742  0.0497  0.2231
   9823SM   C2F13298   6.180   6.320   7.811  0.0459 -0.0855  1.0160
   9823SM   H2F13299   6.172   6.422   7.852  1.9955  0.6476 -0.2475
   9823SM   H2G13300   6.287   6.300   7.785 -0.9162 -0.8055 -3.0696
   9823SM   C3F13301   6.117   6.214   7.906  0.4592  0.6019 -0.0688
   9823SM   H3F13302   6.113   6.119   7.847  0.6255  0.1341  0.6676
   9823SM   H3G13303   6.014   6.247   7.933  0.6340  0.7430  0.4329
   9823SM   C4F13304   6.193   6.191   8.034  0.1615  0.1316  0.8379
   9823SM   H4F13305   6.300   6.167   8.019 -0.3421 -1.2293 -0.8716
   9823SM   H4G13306   6.140   6.105   8.080  3.3963 -1.5026  1.8146
   9823SM   C5F13307   6.169   6.314   8.117  0.0938 -0.3960  0.1141
   9823SM   H5F13308   6.060   6.335   8.121  0.0355 -0.8495  2.0016
   9823SM   H5G13309   6.224   6.401   8.076  0.5106 -0.5845  0.2644
   9823SM   C6F13310   6.222   6.289   8.264  0.1073  0.5659 -0.5185
   9823SM   H6F13311   6.322   6.242   8.254 -0.0111  0.5080 -1.5519
   9823SM   H6G13312   6.154   6.213   8.309 -1.4761  2.0359 -0.3225
   9823SM   C7F13313   6.211   6.410   8.362  0.3670  0.0166 -0.6871
   9823SM   H7F13314   6.104   6.435   8.347  0.0003 -1.0603  0.0429
   9823SM   H7G13315   6.280   6.492   8.334 -0.8008  1.5418  0.7247
   9823SM   C8F13316   6.226   6.382   8.513 -0.7839  0.1061  0.2240
   9823SM   H8F13317   6.204   6.473   8.571  1.9677 -0.0836  1.7246
   9823SM   H8G13318   6.337   6.374   8.524 -0.4439  0.3700 -2.2587
   9823SM   C9F13319   6.149   6.257   8.568 -0.6430  0.2070  0.5479
   9823SM   H9F13320   6.183   6.158   8.530 -1.3359  0.4112 -0.6371
   9823SM   H9G13321   6.045   6.275   8.533 -0.1934  3.5103  0.6218
   9823SM  C10F13322   6.164   6.248   8.728 -0.9724  0.2752  0.6517
   9823SM  H10F13323   6.084   6.176   8.755  1.6083 -2.3834  1.7056
   9823SM  H10G13324   6.131   6.342   8.779  0.0675  1.1921 -0.3045
   9823SM  C11F13325   6.298   6.197   8.780  0.6931  0.5749  0.1961
   9823SM  H11F13326   6.365   6.285   8.783 -0.5157  1.5663 -0.6506
   9823SM  H11G13327   6.323   6.118   8.705  0.2419  0.6392 -0.0247
   9823SM  C12F13328   6.270   6.135   8.918 -0.1640  0.6978  0.0407
   9823SM  H12F13329   6.191   6.059   8.902 -0.0226  0.1357  1.8282
   9823SM  H12G13330   6.228   6.207   8.992  1.6774  0.6699  1.1864
   9823SM  C13F13331   6.399   6.072   8.974  0.2034 -0.6562  0.1341
   9823SM  H13F13332   6.483   6.143   8.963 -0.1468 -0.5160 -2.0955
   9823SM  H13G13333   6.426   5.987   8.908  1.2435 -0.3142  0.1012
   9823SM  C14F13334   6.387   6.039   9.123 -0.0182 -0.4654 -0.2965
   9823SM  H14F13335   6.471   5.981   9.167 -0.4823 -1.9602 -1.3222
   9823SM  H14G13336   6.296   5.977   9.134 -0.3197 -0.1104 -0.7703
   9823SM  C15F13337   6.385   6.162   9.221  0.2823  0.2413 -0.1969
   9823SM  H15F13338   6.399   6.114   9.320  0.7846  0.6844 -0.0478
   9823SM  H15G13339   6.285   6.211   9.225  0.3183  0.2572  0.7715
   9823SM  C16F13340   6.491   6.264   9.198  0.2902 -0.5374 -0.2733
   9823SM  H16F13341   6.466   6.354   9.138  0.7772 -0.7182 -0.7549
   9823SM  H16G13342   6.577   6.214   9.148  1.7521  0.0752  1.4911
   9823SM  C17F13343   6.550   6.323   9.330 -0.6452 -0.2345 -0.0552
   9823SM  H17F13344   6.619   6.254   9.383 -0.0703 -0.4247 -1.0333
   9823SM  H17G13345   6.474   6.361   9.402 -0.5859 -0.8944  0.3635
   9823SM  C18F13346   6.652   6.440   9.300 -0.5541  0.3666  0.0986
   9823SM  H18F13347   6.589   6.527   9.272 -0.1734  0.8476  0.7122
   9823SM  H18G13348   6.708   6.406   9.210  0.2139  0.7092  0.4338
   9823SM  C19F13349   6.756   6.480   9.404 -0.0024 -0.1747 -0.2657
   9823SM  H19F13350   6.814   6.388   9.429  0.4176  0.3348  0.6627
   9823SM  H19G13351   6.713   6.508   9.502  0.8967 -2.1471  0.7559
   9823SM  C20F13352   6.852   6.587   9.361 -0.0934 -0.0739  0.3099
   9823SM  H20F13353   6.849   6.597   9.250  1.3506  0.7866  0.3162
   9823SM  H20G13354   6.959   6.559   9.373  0.5483 -0.3205 -4.2510
   9823SM  C21F13355   6.814   6.719   9.430  1.2809 -0.3892 -0.0971
   9823SM  H21F13356   6.840   6.719   9.538  0.1587  1.4492  0.2075
   9823SM  H21G13357   6.707   6.740   9.409  1.1308  1.2479  1.9882
   9823SM  C22F13358   6.892   6.851   9.383 -0.0542  0.3113 -0.0281
   9823SM  H22F13359   6.998   6.821   9.376 -0.4961 -1.4000  0.0711
   9823SM  H22G13360   6.880   6.928   9.462 -0.1373  2.7628 -2.2812
   9823SM  C23F13361   6.843   6.912   9.249  0.3590 -0.6939 -0.3065
   9823SM  H23F13362   6.847   6.831   9.173  1.6497  0.6991 -1.7892
   9823SM  H23G13363   6.919   6.988   9.221  0.6255 -1.2712 -1.1777
   9823SM  H23H13364   6.742   6.955   9.262  0.9514  0.0945  2.3562
   9923SM     N13365   6.887   6.328   7.253  0.0106 -0.7476 -0.2581
   9923SM   C1513366   6.889   6.196   7.185  0.0237  0.6360 -0.1228
   9923SM  H15A13367   6.905   6.119   7.260 -2.2094  0.1413 -0.0793
   9923SM  H15B13368   6.978   6.195   7.123  0.8786 -1.1894  1.0071
   9923SM  H15C13369   6.796   6.172   7.137 -2.0214  0.1006  3.6976
   9923SM   C1413370   6.822   6.433   7.165 -0.0778 -0.4741 -0.4140
   9923SM  H14A13371   6.871   6.438   7.069  1.9562  1.0797  0.6469
   9923SM  H14B13372   6.842   6.533   7.199  1.6387 -0.6828 -0.7318
   9923SM  H14C13373   6.721   6.394   7.158  0.0302 -0.5436 -1.7407
   9923SM   C1313374   6.808   6.318   7.378 -0.1255  0.2460 -0.1410
   9923SM  H13A13375   6.860   6.244   7.437  0.7319  0.1889 -0.9303
   9923SM  H13B13376   6.710   6.275   7.363 -0.2449  1.1945 -2.6641
   9923SM  H13C13377   6.813   6.407   7.438  1.1907  0.1033 -0.0069
   9923SM   C1213378   7.023   6.386   7.289 -0.3423  0.2236  1.0065
   9923SM  H12A13379   7.066   6.317   7.361  1.6561 -0.7602 -1.0317
   9923SM  H12B13380   7.015   6.476   7.349 -0.1482  0.5800  0.4948
   9923SM   C1113381   7.127   6.410   7.180  0.5491  0.3277 -0.0785
   9923SM  H11A13382   7.210   6.470   7.225 -0.8703  3.1604 -0.9895
   9923SM  H11B13383   7.084   6.479   7.104 -0.5770  0.4023  0.6017
   9923SM     P13384   7.293   6.206   7.184  0.0276  0.5683  0.1672
   9923SM   O1313385   7.283   6.074   7.130  0.0440 -0.0924 -0.0562
   9923SM   O1413386   7.414   6.280   7.151  0.1658  0.3144 -0.3687
   9923SM   O1113387   7.280   6.194   7.339  0.5173 -0.3149 -0.3358
   9923SM   O1213388   7.163   6.284   7.127 -0.6258 -0.2183 -0.0608
   9923SM   C1S13389   7.204   6.093   7.404 -0.2408 -0.6613 -0.9993
   9923SM   H1S13390   7.219   6.002   7.341  2.2067  0.9611 -2.9477
   9923SM   H1T13391   7.094   6.108   7.402 -0.1408  0.1858 -0.6841
   9923SM    NF13392   7.195   5.958   7.617 -0.2356 -0.3400  0.1108
   9923SM   HNF13393   7.125   5.978   7.685 -1.0326  0.4189 -0.9023
   9923SM   C2S13394   7.251   6.077   7.550  0.0495 -0.2587  0.5940
   9923SM   H2S13395   7.359   6.050   7.553 -0.2107 -1.4672 -0.1838
   9923SM   C3S13396   7.228   6.212   7.627 -0.2761  0.1292  0.3068
   9923SM   H3S13397   7.117   6.219   7.624 -0.2754 -0.1505 -0.6798
   9923SM    O313398   7.272   6.338   7.563  0.0118 -0.1906 -0.4756
   9923SM   HO313399   7.304   6.307   7.478 -1.8930 -1.5881 -0.7623
   9923SM   C4S13400   7.286   6.217   7.769  0.2011 -0.1122  0.1976
   9923SM   H4S13401   7.238   6.151   7.843  1.4293 -1.9443 -0.5795
   9923SM   C5S13402   7.392   6.295   7.815 -0.2250  0.1919  0.6819
   9923SM   H5S13403   7.443   6.365   7.747 -1.9995  0.4486 -0.4480
   9923SM   C6S13404   7.437   6.298   7.957  0.2967  0.2923  0.7916
   9923SM   H6S13405   7.545   6.275   7.969  0.1630  0.0278  1.4788
   9923SM   H6T13406   7.395   6.215   8.017  0.1099 -1.3899 -1.4999
   9923SM   C7S13407   7.396   6.421   8.035 -0.4214  0.0534  0.0037
   9923SM   H7S13408   7.286   6.424   8.047 -0.8027 -1.0454 -2.5581
   9923SM   H7T13409   7.422   6.513   7.977 -0.1446  0.4214  0.6978
   9923SM   C8S13410   7.456   6.433   8.176 -0.1674 -0.6853 -0.2600
   9923SM   H8S13411   7.567   6.439   8.178 -0.2065  1.6133 -1.7240
   9923SM   H8T13412   7.421   6.340   8.226  0.7593 -1.3346 -0.7795
   9923SM   C9S13413   7.409   6.566   8.238 -0.4673 -0.4507  0.4778
   9923SM   H9S13414   7.302   6.591   8.228 -0.4608 -0.4794  0.3456
   9923SM   H9T13415   7.468   6.643   8.185 -2.6696  0.4596 -0.7607
   9923SM  C10S13416   7.435   6.565   8.388 -0.2100  0.2838  0.0580
   9923SM  H10S13417   7.542   6.538   8.400  0.2365  2.0563  0.3427
   9923SM  H10T13418   7.374   6.486   8.437  1.0356 -0.8245 -0.1150
   9923SM  C11S13419   7.415   6.697   8.468  0.1661  0.0800  0.4921
   9923SM  H11S13420   7.320   6.739   8.429  0.4959 -0.5100 -1.0174
   9923SM  H11T13421   7.504   6.757   8.439  1.1482 -1.9848 -1.1176
   9923SM  C12S13422   7.409   6.678   8.621  0.3701  0.7328  0.1199
   9923SM  H12S13423   7.501   6.631   8.662  0.7786  2.2522  1.0243
   9923SM  H12T13424   7.330   6.603   8.643  0.8481  0.1584 -0.1013
   9923SM  C13S13425   7.386   6.809   8.698 -0.1947  0.9819 -0.6910
   9923SM  H13S13426   7.282   6.844   8.681 -0.5173  0.8641  0.9295
   9923SM  H13T13427   7.457   6.889   8.667  0.7104  1.1919  1.7361
   9923SM  C14S13428   7.409   6.791   8.855  0.3662 -0.2641  0.5246
   9923SM  H14S13429   7.515   6.763   8.874 -0.0924 -1.8603  0.8675
   9923SM  H14T13430   7.339   6.708   8.878 -3.0470  1.8074 -1.4633
   9923SM  C15S13431   7.370   6.912   8.939 -0.1020 -0.0011 -0.1026
   9923SM  H15S13432   7.285   6.964   8.891 -1.2184 -0.6209  1.1201
   9923SM  H15T13433   7.464   6.972   8.942  0.2862 -0.6010  0.1131
   9923SM  C16S13434   7.328   6.893   9.086  0.4567  1.1134  0.6699
   9923SM  H16S13435   7.404   6.835   9.143 -0.3127 -1.6166 -0.8911
   9923SM  H16T13436   7.231   6.840   9.099  1.0002 -0.5070 -1.3184
   9923SM  C17S13437   7.321   7.018   9.166  0.5067 -0.6428  0.0964
   9923SM  H17S13438   7.421   7.060   9.142 -0.1766 -0.1840 -2.1646
   9923SM  H17T13439   7.319   7.001   9.276  0.2280 -2.2521 -0.1278
   9923SM  C18S13440   7.200   7.110   9.127 -0.6917  0.7385  0.3767
   9923SM  H18S13441   7.205   7.204   9.187  0.8539 -0.8090  2.8228
   9923SM  H18T13442   7.108   7.062   9.168  0.7051 -0.5914  2.0601
   9923SM  H18U13443   7.187   7.136   9.020  1.5903  1.7640  0.2951
   9923SM   C1F13444   7.219   5.833   7.589  0.0726  0.0562 -0.5224
   9923SM    OF13445   7.285   5.785   7.494  0.1316  0.3171 -0.0077
   9923SM   C2F13446   7.153   5.733   7.684 -0.4811  0.1841  0.4671
   9923SM   H2F13447   7.114   5.649   7.622 -0.6879  0.0374  0.7942
   9923SM   H2G13448   7.058   5.771   7.725 -1.4128 -1.2590 -0.2705
   9923SM   C3F13449   7.249   5.666   7.779 -0.1981 -0.4212  0.6717
   9923SM   H3F13450   7.329   5.620   7.717  0.2009  1.9437 -0.6978
   9923SM   H3G13451   7.199   5.578   7.825 -0.1914 -2.2487 -2.5309
   9923SM   C4F13452   7.293   5.755   7.896 -0.6121  0.0092  0.8640
   9923SM   H4F13453   7.354   5.836   7.851 -1.9009 -0.0271 -1.0604
   9923SM   H4G13454   7.355   5.699   7.969  0.9726 -1.7076 -1.6350
   9923SM   C5F13455   7.182   5.836   7.973 -0.0680  0.4555 -0.2209
   9923SM   H5F13456   7.100   5.767   8.000 -0.4400  1.4603  1.3672
   9923SM   H5G13457   7.135   5.911   7.905 -2.6419  0.4763  1.4407
   9923SM   C6F13458   7.231   5.898   8.099  0.0371  0.2206  0.2277
   9923SM   H6F13459   7.323   5.958   8.084  0.6062  0.1340  2.8286
   9923SM   H6G13460   7.256   5.820   8.174 -0.9078  0.4771  0.8271
   9923SM   C7F13461   7.117   5.984   8.153  0.5897  0.7328  0.3300
   9923SM   H7F13462   7.022   5.931   8.174 -0.0580  2.0721  0.9346
   9923SM   H7G13463   7.099   6.071   8.087  0.0219  0.6741  0.4070
   9923SM   C8F13464   7.160   6.044   8.286 -0.4836 -0.0476 -0.2536
   9923SM   H8F13465   7.083   6.120   8.310  1.4125  1.5278  1.1764
   9923SM   H8G13466   7.259   6.092   8.271 -0.1969 -0.0114  1.5548
   9923SM   C9F13467   7.166   5.936   8.405 -0.1775  0.4361  0.3653
   9923SM   H9F13468   7.259   5.876   8.395 -0.1671  0.4688  0.2682
   9923SM   H9G13469   7.067   5.888   8.391 -0.7189  2.1462 -2.3880
   9923SM  C10F13470   7.160   6.006   8.543 -0.3582  0.5815  0.2364
   9923SM  H10F13471   7.138   5.932   8.623  0.2174  1.8468  1.6304
   9923SM  H10G13472   7.072   6.073   8.537 -1.5527 -1.0124 -0.4951
   9923SM  C11F13473   7.283   6.098   8.586  0.3992 -0.4363 -0.0415
   9923SM  H11F13474   7.274   6.188   8.521  1.6759  0.1024  0.4859
   9923SM  H11G13475   7.376   6.045   8.558  1.4440  1.0208  0.5186
   9923SM  C12F13476   7.290   6.150   8.732  0.0768  0.1522 -0.5197
   9923SM  H12F13477   7.314   6.063   8.798  1.2217  0.2056 -0.8388
   9923SM  H12G13478   7.190   6.190   8.760  0.9072  1.8720  0.0974
   9923SM  C13F13479   7.402   6.256   8.758  0.3710 -0.0644  0.1113
   9923SM  H13F13480   7.418   6.282   8.865 -1.2768  2.9287 -0.2501
   9923SM  H13G13481   7.367   6.353   8.716  0.0797  0.0826  0.6778
   9923SM  C14F13482   7.540   6.198   8.710  0.7235  0.0135  0.0174
   9923SM  H14F13483   7.624   6.267   8.731 -1.2926  2.3621  0.7433
   9923SM  H14G13484   7.525   6.191   8.600  0.6240  0.4407  0.0027
   9923SM  C15F13485   7.586   6.059   8.744 -0.1041 -0.1782 -0.0249
   9923SM  H15F13486   7.689   6.045   8.707  0.6917  3.4197  0.3758
   9923SM  H15G13487   7.522   5.982   8.698 -1.9874  0.7506  0.9031
   9923SM  C16F13488   7.585   6.027   8.895  0.0494 -0.5453  0.1971
   9923SM  H16F13489   7.607   5.918   8.884 -1.8191 -0.9182 -0.2123
   9923SM  H16G13490   7.484   6.030   8.941 -1.1491 -1.0917 -2.2236
   9923SM  C17F13491   7.697   6.092   8.982  0.9350 -0.4455  0.2354
   9923SM  H17F13492   7.658   6.195   8.998 -2.2482 -1.5268  0.1301
   9923SM  H17G13493   7.797   6.094   8.933  1.4117  0.8213  1.2042
   9923SM  C18F13494   7.719   6.017   9.119  0.6274  0.6696  0.3908
   9923SM  H18F13495   7.742   5.910   9.102  0.4927  0.1844  2.8706
   9923SM  H18G13496   7.626   6.022   9.179 -0.0933  0.1488 -0.6439
   9923SM  C19F13497   7.831   6.080   9.208  0.5048  0.0001  0.3174
   9923SM  H19F13498   7.922   6.076   9.144 -1.0818  0.0113 -2.0940
   9923SM  H19G13499   7.842   6.016   9.297  0.1786 -1.5399 -0.7097
   9923SM  C20F13500   7.790   6.218   9.253 -0.5680  0.0348 -0.0608
   9923SM  H20F13501   7.681   6.227   9.271 -0.1290  2.0286  2.2010
   9923SM  H20G13502   7.818   6.289   9.173  1.0557  0.9554  1.2447
   9923SM  C21F13503   7.873   6.253   9.374 -0.1182  0.0269 -0.1292
   9923SM  H21F13504   7.979   6.232   9.349  0.3006  1.8267 -0.0007
   9923SM  H21G13505   7.842   6.203   9.468  2.8241  0.3436  1.1212
   9923SM  C22F13506   7.864   6.403   9.415 -0.1085  0.2631 -0.4155
   9923SM  H22F13507   7.766   6.433   9.456 -0.7008 -0.2782 -1.3948
   9923SM  H22G13508   7.868   6.458   9.318 -0.9454  0.5682 -0.2797
   9923SM  C23F13509   7.972   6.443   9.520 -0.6251 -0.3914  0.2002
   9923SM  H23F13510   7.992   6.551   9.503 -0.5273 -0.5118 -0.4773
   9923SM  H23G13511   8.061   6.377   9.519  0.0092  0.4243  1.0277
   9923SM  H23H13512   7.920   6.431   9.618 -0.1032  0.2703  0.5704
  10023SM     N13513   6.606   7.005   7.329  0.1125 -0.2795 -0.5192
  10023SM   C1513514   6.541   7.091   7.433 -0.3700  0.3789 -0.3715
  10023SM  H15A13515   6.576   7.064   7.531 -1.6888  1.3639  0.4059
  10023SM  H15B13516   6.433   7.086   7.428 -0.3823 -0.9575  0.5825
  10023SM  H15C13517   6.579   7.192   7.429  1.2718 -0.0804  1.6652
  10023SM   C1413518   6.566   6.863   7.341 -0.5192  1.1842 -0.2451
  10023SM  H14A13519   6.460   6.843   7.337 -0.0624 -1.5649 -1.6494
  10023SM  H14B13520   6.592   6.822   7.438 -0.1985  1.7845 -0.0723
  10023SM  H14C13521   6.613   6.796   7.271  0.1421  0.7380  0.6070
  10023SM   C1313522   6.570   7.047   7.198  0.1217 -0.0774  0.4246
  10023SM  H13A13523   6.463   7.049   7.193  0.0480 -1.2862  1.0087
  10023SM  H13B13524   6.614   6.988   7.119 -1.5795  1.2342 -1.5737
  10023SM  H13C13525   6.613   7.146   7.191  0.5574 -0.1427  1.8166
  10023SM   C1213526   6.760   7.026   7.350  0.9834 -0.0729 -0.7293
  10023SM  H12A13527   6.767   7.133   7.349 -4.6508  0.5880 -0.8842
  10023SM  H12B13528   6.804   6.981   7.263  0.9907 -2.1065  0.2595
  10023SM   C1113529   6.835   6.962   7.476 -0.0420 -0.5861 -0.0688
  10023SM  H11A13530   6.780   7.007   7.561  1.1299 -0.0396  0.4258
  10023SM  H11B13531   6.937   7.007   7.475  0.0624 -0.8316 -0.8409
  10023SM     P13532   6.928   6.736   7.394 -0.0153  0.0826 -0.0825
  10023SM   O1313533   6.937   6.610   7.469 -0.7108 -0.1164  0.4198
  10023SM   O1413534   6.882   6.729   7.252  0.1689 -0.4015 -0.0371
  10023SM   O1113535   7.073   6.811   7.393  0.1245 -0.9290 -0.6269
  10023SM   O1213536   6.830   6.825   7.485 -0.3923  0.6630  0.6202
  10023SM   C1S13537   7.139   6.850   7.523  0.5125 -0.8077  0.5406
  10023SM   H1S13538   7.067   6.844   7.607 -0.2621  0.7233  0.0160
  10023SM   H1T13539   7.187   6.950   7.523  1.8233 -1.3860 -1.1405
  10023SM    NF13540   7.323   6.799   7.674 -0.0407  0.1457 -0.3905
  10023SM   HNF13541   7.410   6.847   7.663  1.0942 -2.0633 -1.8975
  10023SM   C2S13542   7.256   6.759   7.548 -1.1367  0.6760 -0.1222
  10023SM   H2S13543   7.212   6.657   7.560  0.7419 -0.3689 -1.5592
  10023SM   C3S13544   7.351   6.742   7.426 -0.2155 -0.3630 -0.0848
  10023SM   H3S13545   7.401   6.841   7.419 -2.4349  1.2932  4.0717
  10023SM    O313546   7.292   6.741   7.296  0.0893 -0.2306  0.5088
  10023SM   HO313547   7.200   6.763   7.309 -0.3685  0.0498 -2.6144
  10023SM   C4S13548   7.449   6.623   7.435  0.3518 -0.3892 -0.3601
  10023SM   H4S13549   7.403   6.525   7.452 -0.2806 -0.2616 -1.2716
  10023SM   C5S13550   7.582   6.618   7.431  0.2508  0.0725  0.5463
  10023SM   H5S13551   7.646   6.706   7.414 -0.3137  0.9029  2.3969
  10023SM   C6S13552   7.672   6.494   7.439 -0.0882 -0.7727 -0.2631
  10023SM   H6S13553   7.756   6.524   7.506 -1.3722  2.3047  0.1783
  10023SM   H6T13554   7.704   6.476   7.335 -0.4534 -0.1425 -0.4944
  10023SM   C7S13555   7.608   6.363   7.480  0.6588 -0.8953  0.4347
  10023SM   H7S13556   7.537   6.323   7.404 -0.4656 -0.4333  1.2091
  10023SM   H7T13557   7.558   6.392   7.575  3.5353  0.4388  1.6673
  10023SM   C8S13558   7.704   6.250   7.524 -0.1205  0.3039 -0.4294
  10023SM   H8S13559   7.765   6.298   7.603 -0.2446  0.6161 -0.5229
  10023SM   H8T13560   7.769   6.233   7.436 -0.2466  2.3342 -0.9792
  10023SM   C9S13561   7.644   6.114   7.563  0.3103 -0.2296 -0.1737
  10023SM   H9S13562   7.563   6.091   7.490 -0.2015  1.6200 -0.2431
  10023SM   H9T13563   7.587   6.130   7.657 -1.5055 -1.1508 -1.0724
  10023SM  C10S13564   7.737   5.991   7.557 -0.5662 -0.8712 -0.0746
  10023SM  H10S13565   7.820   6.013   7.629  0.4807 -3.0994 -0.5283
  10023SM  H10T13566   7.784   5.979   7.458 -1.0755  0.5211 -0.5033
  10023SM  C11S13567   7.680   5.859   7.605 -0.5077  0.0771 -0.2609
  10023SM  H11S13568   7.769   5.792   7.601  2.0389  3.2378 -0.3368
  10023SM  H11T13569   7.602   5.824   7.534 -1.8880 -0.5549  1.4975
  10023SM  C12S13570   7.624   5.854   7.746  0.7064  0.3899 -0.3110
  10023SM  H12S13571   7.575   5.754   7.755 -0.2782  0.9680  1.0986
  10023SM  H12T13572   7.534   5.918   7.755  0.6707  0.6816 -2.3207
  10023SM  C13S13573   7.723   5.890   7.861 -0.1533  1.1052 -0.0130
  10023SM  H13S13574   7.762   5.993   7.843 -0.2706  0.6600 -3.6846
  10023SM  H13T13575   7.798   5.809   7.860 -2.0348 -0.7482 -1.3195
  10023SM  C14S13576   7.648   5.893   7.997 -0.2288 -0.1084 -0.2949
  10023SM  H14S13577   7.620   5.792   8.034  3.1421 -0.5073  1.6044
  10023SM  H14T13578   7.554   5.950   7.991 -0.1762 -0.0369 -0.4382
  10023SM  C15S13579   7.732   5.956   8.112 -0.2735 -0.6930  0.0105
  10023SM  H15S13580   7.784   6.051   8.086  3.5993 -3.0138 -1.6197
  10023SM  H15T13581   7.816   5.884   8.118 -0.0011 -0.2663  3.8443
  10023SM  C16S13582   7.652   5.972   8.246 -0.7776 -0.6238 -0.0757
  10023SM  H16S13583   7.720   5.960   8.334 -0.7917  0.5359  0.1093
  10023SM  H16T13584   7.577   5.890   8.245 -1.0098 -0.4667  1.6021
  10023SM  C17S13585   7.601   6.120   8.264  0.1313 -0.6406  1.1432
  10023SM  H17S13586   7.505   6.103   8.318  1.0622 -1.0926  2.7209
  10023SM  H17T13587   7.588   6.155   8.159  2.1326  0.7780  1.3231
  10023SM  C18S13588   7.686   6.207   8.350 -0.0819 -0.0962 -0.2149
  10023SM  H18S13589   7.718   6.146   8.437  0.8445 -0.2583 -0.6625
  10023SM  H18T13590   7.628   6.300   8.371 -0.5088 -0.5917  0.8898
  10023SM  H18U13591   7.780   6.224   8.294 -1.1202 -1.0377 -2.3724
  10023SM   C1F13592   7.259   6.792   7.794 -0.0091  0.5241  0.3321
  10023SM    OF13593   7.155   6.722   7.819 -0.0917  0.3817  0.0915
  10023SM   C2F13594   7.337   6.858   7.903  0.0199 -0.9045 -0.1182
  10023SM   H2F13595   7.406   6.935   7.864  0.3435 -0.1338  1.8995
  10023SM   H2G13596   7.410   6.788   7.949  0.2016 -0.5716  0.1009
  10023SM   C3F13597   7.240   6.914   8.010  0.5772 -0.3390 -0.1058
  10023SM   H3F13598   7.170   6.837   8.047 -0.2303  0.1237 -0.6354
  10023SM   H3G13599   7.185   7.007   7.981  0.6510 -0.9492 -2.4092
  10023SM   C4F13600   7.328   6.970   8.129  0.5810 -0.1389 -0.0116
  10023SM   H4F13601   7.387   7.057   8.092 -0.4160  0.7084  0.3323
  10023SM   H4G13602   7.406   6.897   8.157 -0.2641 -1.6954 -1.5266
  10023SM   C5F13603   7.248   7.012   8.249  1.1278  0.1869  0.4536
  10023SM   H5F13604   7.190   6.924   8.284 -1.2200  0.6130 -1.9746
  10023SM   H5G13605   7.167   7.085   8.228  1.1489 -0.3998 -1.9522
  10023SM   C6F13606   7.333   7.067   8.365  0.2288 -0.4514  0.2216
  10023SM   H6F13607   7.385   7.161   8.336 -2.2527  0.6897 -0.8932
  10023SM   H6G13608   7.411   6.994   8.393 -0.5436 -1.1801  0.5312
  10023SM   C7F13609   7.241   7.105   8.488 -0.6864  0.7493  0.5249
  10023SM   H7F13610   7.193   7.013   8.529 -0.9446  1.1649  1.1746
  10023SM   H7G13611   7.152   7.158   8.448 -0.9908  0.9102  1.3844
  10023SM   C8F13612   7.310   7.181   8.606 -0.7834 -0.3244  0.1946
  10023SM   H8F13613   7.377   7.257   8.561 -1.1917  0.7307  1.2944
  10023SM   H8G13614   7.369   7.123   8.681 -0.0633 -0.7443 -0.6840
  10023SM   C9F13615   7.200   7.259   8.683  0.6267  0.7176  0.0686
  10023SM   H9F13616   7.135   7.192   8.744 -2.9400  2.3561 -1.6047
  10023SM   H9G13617   7.133   7.301   8.605  0.3241  0.6041  0.2651
  10023SM  C10F13618   7.257   7.358   8.787  0.0922 -0.1605  0.9126
  10023SM  H10F13619   7.310   7.426   8.717  1.8512  0.1082  2.4175
  10023SM  H10G13620   7.326   7.300   8.853  0.8140  1.2345  1.4161
  10023SM  C11F13621   7.150   7.436   8.864 -0.2817 -0.2863 -0.5471
  10023SM  H11F13622   7.192   7.523   8.919 -2.3707  1.6376 -1.8159
  10023SM  H11G13623   7.109   7.360   8.934  0.8730 -2.0242 -1.6648
  10023SM  C12F13624   7.041   7.500   8.780 -0.3300  0.6066  1.0227
  10023SM  H12F13625   6.992   7.413   8.732  0.4447 -0.1248  1.5244
  10023SM  H12G13626   7.084   7.574   8.709  0.7543  0.8401  1.8901
  10023SM  C13F13627   6.939   7.568   8.871 -0.1541  0.4298 -0.6120
  10023SM  H13F13628   6.997   7.652   8.914 -0.4106 -1.2313  3.4595
  10023SM  H13G13629   6.903   7.506   8.956 -0.0934  1.5531  0.2616
  10023SM  C14F13630   6.818   7.625   8.787 -0.2918  0.0624  0.0978
  10023SM  H14F13631   6.769   7.537   8.740 -3.3284  0.3247  2.5136
  10023SM  H14G13632   6.871   7.690   8.715  0.5547 -2.5942 -1.8562
  10023SM  C15F13633   6.710   7.695   8.865  0.4743 -0.2487 -0.7115
  10023SM  H15F13634   6.725   7.804   8.878  1.9726 -0.3210 -1.6456
  10023SM  H15G13635   6.704   7.639   8.961  1.1197 -0.8079 -0.9911
  10023SM  C16F13636   6.577   7.686   8.791 -0.0029  1.0478 -0.0721
  10023SM  H16F13637   6.494   7.694   8.864  0.1725 -1.0402  0.4358
  10023SM  H16G13638   6.559   7.581   8.759 -1.1622  0.2701  2.8230
  10023SM  C17F13639   6.555   7.785   8.681  0.5035 -0.2003  0.3653
  10023SM  H17F13640   6.609   7.755   8.588  1.5517 -0.1250  0.9310
  10023SM  H17G13641   6.593   7.884   8.714  1.5019 -0.6411  0.5839
  10023SM  C18F13642   6.410   7.784   8.641  0.2935 -0.3679 -0.6452
  10023SM  H18F13643   6.400   7.854   8.556 -2.1099 -1.0366 -0.9779
  10023SM  H18G13644   6.345   7.824   8.722 -0.5169 -0.0408 -1.4434
  10023SM  C19F13645   6.343   7.649   8.601 -0.1557 -0.0012 -0.8140
  10023SM  H19F13646   6.235   7.677   8.596 -0.8280 -2.2328  0.0482
  10023SM  H19G13647   6.346   7.577   8.685 -0.7115  1.4721  0.5290
  10023SM  C20F13648   6.385   7.591   8.470  0.1097  0.0041 -0.0249
  10023SM  H20F13649   6.423   7.671   8.402  0.4469 -1.9460 -2.2572
  10023SM  H20G13650   6.299   7.547   8.416  1.1622  0.3089 -2.0658
  10023SM  C21F13651   6.493   7.487   8.498 -0.4422  0.2782  0.4155
  10023SM  H21F13652   6.468   7.432   8.591 -0.2561 -0.4354  0.0522
  10023SM  H21G13653   6.596   7.526   8.515 -0.2608 -0.0440  0.0596
  10023SM  C22F13654   6.510   7.397   8.380 -0.0059 -0.3712  0.1158
  10023SM  H22F13655   6.545   7.452   8.290 -1.6017  0.5551  0.0078
  10023SM  H22G13656   6.412   7.348   8.362 -1.0789  2.2372 -1.8052
  10023SM  C23F13657   6.618   7.298   8.424  0.1218 -0.5878  0.3001
  10023SM  H23F13658   6.707   7.348   8.468  0.2394 -0.3677 -0.1856
  10023SM  H23G13659   6.653   7.239   8.337 -1.8437  0.7126 -1.4747
  10023SM  H23H13660   6.591   7.232   8.510  2.1745 -0.7574  0.8682
  101CHL1    C313661   2.867   3.929  10.505 -0.7946 -0.1117  0.1693
  101CHL1    H313662   2.760   3.945  10.480 -1.4948  0.3177  3.0559
  101CHL1    O313663   2.875   3.880  10.633 -0.1791 -0.0860 -0.2163
  101CHL1   H3'13664   2.802   3.819  10.646  0.8885 -1.1031  1.3155
  101CHL1    C413665   2.929   3.824  10.410  0.1749 -0.5996 -0.3036
  101CHL1   H4A13666   3.023   3.787  10.457 -0.8088 -0.3054  2.0076
  101CHL1   H4B13667   2.856   3.741  10.409 -1.8465  1.0852 -0.0818
  101CHL1    C513668   2.947   3.877  10.265 -0.2034  0.5961 -0.0663
  101CHL1    C613669   2.887   3.811  10.164 -0.4814 -0.4877 -0.6388
  101CHL1    H613670   2.828   3.720  10.183  0.5494 -1.2925 -1.2128
  101CHL1    C713671   2.914   3.849  10.016  0.1960  0.7861  0.7356
  101CHL1   H7A13672   2.926   3.752   9.964  1.6470  0.6747  1.2350
  101CHL1   H7B13673   2.826   3.899   9.969  0.5498  0.4114 -0.3458
  101CHL1    C813674   3.029   3.952  10.004  0.1505 -0.3092 -1.3399
  101CHL1    H813675   3.123   3.896  10.023  0.0972 -0.8989 -2.7121
  101CHL1   C1413676   3.047   4.009   9.863 -0.3595 -0.0661 -0.1293
  101CHL1   H1413677   2.953   4.064   9.840 -0.0690  0.1962 -0.6980
  101CHL1   C1513678   3.056   3.900   9.753 -1.1722 -0.4559  0.2588
  101CHL1  H15A13679   3.118   3.814   9.786 -0.2328 -0.3207 -1.0771
  101CHL1  H15B13680   2.951   3.868   9.736 -1.0041 -0.8495 -0.0487
  101CHL1   C1613681   3.118   3.973   9.638 -0.6707 -0.0994 -0.4226
  101CHL1  H16A13682   3.205   3.909   9.613 -2.7415 -2.9918 -0.7236
  101CHL1  H16B13683   3.055   3.979   9.547 -0.4533  1.2839 -0.5023
  101CHL1   C1713684   3.135   4.123   9.680  0.4417 -0.1209 -0.1840
  101CHL1   H1713685   3.047   4.190   9.667 -0.1250 -1.2047 -2.2681
  101CHL1   C1313686   3.150   4.113   9.840  0.0461  0.3491 -0.3840
  101CHL1   C1813687   3.286   4.068   9.879  0.2003 -0.0452 -0.0708
  101CHL1  H18A13688   3.360   4.150   9.875 -0.8610  1.0870  1.9619
  101CHL1  H18B13689   3.295   4.039   9.986  3.3553  3.3781  0.7937
  101CHL1  H18C13690   3.328   3.983   9.820  0.6167 -0.6421  1.0535
  101CHL1   C1213691   3.108   4.232   9.929  0.0459 -0.0353 -0.5351
  101CHL1  H12A13692   3.167   4.325   9.921  0.3423 -0.0791  0.9126
  101CHL1  H12B13693   3.002   4.255   9.903  0.3966  0.1066 -1.9216
  101CHL1   C1113694   3.091   4.196  10.081  0.2046 -0.2381 -0.1364
  101CHL1  H11A13695   3.192   4.189  10.126 -0.1898  1.9020  1.2389
  101CHL1  H11B13696   3.032   4.279  10.125 -1.0544 -1.7212  1.0822
  101CHL1    C913697   3.008   4.064  10.111 -0.3395  0.6456  0.1140
  101CHL1    H913698   2.901   4.084  10.089 -0.5988 -2.4595 -2.1597
  101CHL1   C1013699   3.022   4.010  10.253 -0.0166 -0.1705 -0.5624
  101CHL1   C1913700   3.167   3.989  10.294 -0.5130 -1.0754 -0.2294
  101CHL1  H19A13701   3.180   3.933  10.389  1.6181 -0.2192  0.0322
  101CHL1  H19B13702   3.237   3.944  10.220  1.3114 -1.0477  1.4087
  101CHL1  H19C13703   3.215   4.086  10.318  0.6136 -2.1640  2.2312
  101CHL1    C113704   2.952   4.111  10.354  0.0641 -0.9717  0.2878
  101CHL1   H1A13705   3.012   4.204  10.345 -3.1610  1.2447 -0.1154
  101CHL1   H1B13706   2.855   4.151  10.317  0.0021  0.1291  1.5674
  101CHL1    C213707   2.943   4.066  10.499 -0.0278  0.0749  0.0681
  101CHL1   H2A13708   2.893   4.142  10.563 -0.1485 -0.2463  0.3557
  101CHL1   H2B13709   3.049   4.051  10.528  0.9316  3.0438 -1.4824
  101CHL1   C2013710   3.253   4.193   9.611 -0.0650 -0.1760 -0.3509
  101CHL1   H2013711   3.340   4.126   9.625  0.1906  0.4390  1.2571
  101CHL1   C2113712   3.273   4.336   9.671  0.2430 -0.0028  0.1271
  101CHL1  H21A13713   3.179   4.396   9.665 -0.3452 -1.0064 -1.4504
  101CHL1  H21B13714   3.342   4.398   9.609 -0.3697  0.1228 -0.4476
  101CHL1  H21C13715   3.311   4.337   9.775  1.2173  1.8965 -0.1975
  101CHL1   C2213716   3.228   4.198   9.459  0.4545 -0.3448 -0.0660
  101CHL1  H22A13717   3.162   4.117   9.424 -1.2691  0.7446  0.4918
  101CHL1  H22B13718   3.178   4.296   9.441  0.1487 -0.5064 -0.0894
  101CHL1   C2313719   3.358   4.190   9.377 -0.0298 -0.4470  0.6215
  101CHL1  H23A13720   3.328   4.221   9.274  2.0362 -1.1708 -0.2668
  101CHL1  H23B13721   3.428   4.271   9.405 -0.3124 -0.1368  0.4377
  101CHL1   C2413722   3.421   4.052   9.376  0.4007 -0.6191  0.2795
  101CHL1  H24A13723   3.456   4.021   9.477 -2.1689 -0.7364  1.2154
  101CHL1  H24B13724   3.346   3.972   9.356 -2.7116  1.6686  1.8397
  101CHL1   C2513725   3.543   4.042   9.285 -0.0080  0.4939 -0.2786
  101CHL1   H2513726   3.509   4.039   9.179 -1.0432  2.8931 -0.1021
  101CHL1   C2613727   3.628   4.174   9.293 -0.3578  0.4368  0.1351
  101CHL1  H26A13728   3.727   4.152   9.246 -0.6254  1.0052 -0.7046
  101CHL1  H26B13729   3.591   4.261   9.235  0.5860  1.8179  1.5065
  101CHL1  H26C13730   3.653   4.207   9.396  1.5034 -1.9815  0.5576
  101CHL1   C2713731   3.630   3.920   9.330 -0.0327  0.1452  0.0601
  101CHL1  H27A13732   3.571   3.827   9.312  0.2266  0.1793 -1.0342
  101CHL1  H27B13733   3.723   3.914   9.270  1.0986  1.0807  1.6595
  101CHL1  H27C13734   3.655   3.914   9.438 -1.2157 -0.1628  0.3407
  102CHL1    C313735   1.826   4.596  10.600  0.1432  0.2717 -0.2967
  102CHL1    H313736   1.871   4.505  10.555 -1.4765 -0.0385 -1.3389
  102CHL1    O313737   1.858   4.606  10.739 -1.2119  0.3911 -0.3863
  102CHL1   H3'13738   1.817   4.531  10.783  0.7592 -0.4863  0.0678
  102CHL1    C413739   1.884   4.718  10.522 -0.2763 -0.1143 -0.0642
  102CHL1   H4A13740   1.845   4.813  10.566  0.4602  0.7884 -1.2936
  102CHL1   H4B13741   1.995   4.719  10.529 -0.2319 -1.1928 -0.4166
  102CHL1    C513742   1.837   4.718  10.377  0.6221  0.1472  0.4209
  102CHL1    C613743   1.925   4.716  10.277 -0.2776 -0.4493  0.6672
  102CHL1    H613744   2.030   4.726  10.309  0.3449 -2.2960 -0.6282
  102CHL1    C713745   1.889   4.727  10.133  0.7527 -0.4834  0.3852
  102CHL1   H7A13746   1.955   4.800  10.081 -1.8488 -0.2483 -2.9333
  102CHL1   H7B13747   1.917   4.629  10.090 -0.5701 -0.5112 -0.4622
  102CHL1    C813748   1.741   4.760  10.112 -0.3076 -0.5024  0.6006
  102CHL1    H813749   1.724   4.867  10.135  0.9227 -0.1474 -0.0230
  102CHL1   C1413750   1.714   4.736   9.968 -0.0060 -0.3028 -0.0179
  102CHL1   H1413751   1.730   4.628   9.950  0.6928  0.0301 -1.5663
  102CHL1   C1513752   1.817   4.790   9.869  0.5383  0.4350  0.7141
  102CHL1  H15A13753   1.848   4.890   9.905  3.7689  0.1063 -0.7948
  102CHL1  H15B13754   1.914   4.736   9.861 -0.3846 -1.2276  0.3391
  102CHL1   C1613755   1.735   4.767   9.741 -0.4208 -0.2952  0.8914
  102CHL1  H16A13756   1.737   4.863   9.685  0.1091 -0.3984  0.7301
  102CHL1  H16B13757   1.788   4.692   9.680 -1.3688 -1.0292  0.9590
  102CHL1   C1713758   1.593   4.728   9.779 -0.1785 -0.1482  0.7210
  102CHL1   H1713759   1.603   4.617   9.773 -1.9281 -0.2271 -1.7937
  102CHL1   C1313760   1.579   4.770   9.922 -0.1002  0.0539 -0.2878
  102CHL1   C1813761   1.557   4.923   9.923  0.7420  0.6566  0.3691
  102CHL1  H18A13762   1.469   4.965   9.870  1.3968  0.7588 -0.6605
  102CHL1  H18B13763   1.537   4.947  10.030  0.1372 -2.0670  0.9318
  102CHL1  H18C13764   1.635   4.984   9.872 -0.3531  1.0077 -0.9377
  102CHL1   C1213765   1.487   4.682  10.009 -0.2335  0.3864 -0.5184
  102CHL1  H12A13766   1.387   4.711   9.970  0.6947  0.6534 -2.9290
  102CHL1  H12B13767   1.509   4.576   9.985 -1.3960  0.2837 -1.1801
  102CHL1   C1113768   1.502   4.700  10.158 -0.7252  0.0347 -0.5506
  102CHL1  H11A13769   1.481   4.805  10.186 -1.9657 -0.6525  1.3281
  102CHL1  H11B13770   1.437   4.629  10.215 -0.9458  0.0961 -0.7220
  102CHL1    C913771   1.652   4.688  10.203 -0.3942  0.4479  0.6565
  102CHL1    H913772   1.675   4.582  10.180 -1.4507  0.0750  1.2783
  102CHL1   C1013773   1.682   4.716  10.357 -0.0463  0.9504 -0.2539
  102CHL1   C1913774   1.633   4.852  10.405  0.3990 -0.1182 -0.7174
  102CHL1  H19A13775   1.529   4.876  10.376  1.1966  1.8154 -2.1816
  102CHL1  H19B13776   1.650   4.858  10.515  0.9670 -0.3758 -0.7859
  102CHL1  H19C13777   1.694   4.934  10.364 -0.7409  1.0033 -0.2349
  102CHL1    C113778   1.617   4.610  10.452  0.2010 -0.6973  0.7116
  102CHL1   H1A13779   1.508   4.632  10.450 -0.1078 -2.1752  0.1782
  102CHL1   H1B13780   1.636   4.509  10.410  0.3430 -0.6940  0.7673
  102CHL1    C213781   1.674   4.605  10.593 -0.4069 -0.4730 -0.2521
  102CHL1   H2A13782   1.633   4.514  10.642  2.1418 -1.1180  0.8191
  102CHL1   H2B13783   1.635   4.695  10.645 -0.7136 -0.2564 -0.8530
  102CHL1   C2013784   1.487   4.772   9.672  0.2559  0.3787  0.8604
  102CHL1   H2013785   1.482   4.883   9.670  0.7121  0.3896 -1.0859
  102CHL1   C2113786   1.345   4.728   9.711  0.0816  0.1549  0.5772
  102CHL1  H21A13787   1.274   4.743   9.627  0.8147  0.3658 -0.0055
  102CHL1  H21B13788   1.295   4.786   9.792 -1.1597 -0.4622  0.2909
  102CHL1  H21C13789   1.341   4.617   9.720  0.9319 -0.2390 -2.7691
  102CHL1   C2213790   1.518   4.727   9.520  0.1599 -0.3827 -0.1720
  102CHL1  H22A13791   1.446   4.777   9.453 -0.1786  2.5084  2.1265
  102CHL1  H22B13792   1.620   4.757   9.486  0.3090 -1.5823 -0.8068
  102CHL1   C2313793   1.505   4.578   9.492 -0.2579 -0.0657 -0.1013
  102CHL1  H23A13794   1.565   4.521   9.567 -1.6408 -0.9306  0.3726
  102CHL1  H23B13795   1.402   4.539   9.487 -0.2411 -0.4083  1.6154
  102CHL1   C2413796   1.576   4.548   9.363 -0.2268  0.0847  0.7729
  102CHL1  H24A13797   1.679   4.586   9.379 -0.0892 -0.0369  0.1872
  102CHL1  H24B13798   1.583   4.442   9.331  0.4971  0.2507  0.3651
  102CHL1   C2513799   1.527   4.614   9.231  0.3110  0.6952 -0.7141
  102CHL1   H2513800   1.511   4.724   9.231 -0.9187  0.5262 -1.1630
  102CHL1   C2613801   1.629   4.589   9.118  0.9212  1.1328 -0.7205
  102CHL1  H26A13802   1.721   4.650   9.128 -0.6413  3.2157  3.6867
  102CHL1  H26B13803   1.659   4.482   9.112  0.9303  0.9351  1.8946
  102CHL1  H26C13804   1.573   4.611   9.024 -0.4116  0.5077 -0.0944
  102CHL1   C2713805   1.390   4.550   9.187  0.7865  0.2166 -0.7220
  102CHL1  H27A13806   1.403   4.440   9.173  0.6688  0.0468  0.3976
  102CHL1  H27B13807   1.315   4.571   9.266 -0.7664 -1.5745 -1.6436
  102CHL1  H27C13808   1.336   4.601   9.105  0.2957  0.7654 -0.0652
  103CHL1    C313809   3.176   2.809  10.565 -0.3864  0.0254  0.7536
  103CHL1    H313810   3.232   2.893  10.517  0.3346 -0.1854  1.2133
  103CHL1    O313811   3.188   2.813  10.704  0.3262 -0.2014 -0.2768
  103CHL1   H3'13812   3.271   2.771  10.729  1.9397  1.7244 -2.0245
  103CHL1    C413813   3.030   2.813  10.533 -0.2246  0.0061  1.2493
  103CHL1   H4A13814   2.972   2.735  10.588  0.8024 -0.5241  1.6114
  103CHL1   H4B13815   2.998   2.912  10.571 -2.5725 -0.4418  0.5975
  103CHL1    C513816   3.006   2.805  10.381  0.0975 -0.2157 -0.1426
  103CHL1    C613817   2.941   2.896  10.306  0.2680 -0.4818  0.2508
  103CHL1    H613818   2.888   2.983  10.347 -2.3710 -1.5715 -0.6348
  103CHL1    C713819   2.912   2.881  10.158  0.0361  0.1054  0.1554
  103CHL1   H7A13820   2.810   2.908  10.123  0.0193 -0.1938 -0.0340
  103CHL1   H7B13821   2.972   2.964  10.115  0.1640 -0.5944 -1.0705
  103CHL1    C813822   2.954   2.749  10.097 -0.0436  0.2411  0.7710
  103CHL1    H813823   2.885   2.665  10.122  0.9027 -0.1708  2.1264
  103CHL1   C1413824   2.975   2.768   9.941  0.0798 -0.6650 -0.4261
  103CHL1   H1413825   3.059   2.839   9.926 -0.3464 -0.4441 -1.9276
  103CHL1   C1513826   2.863   2.827   9.843 -0.2315 -0.0082 -0.2278
  103CHL1  H15A13827   2.767   2.796   9.889 -0.0223 -0.3008  0.0157
  103CHL1  H15B13828   2.869   2.938   9.853  2.4087 -0.2129  1.2944
  103CHL1   C1613829   2.897   2.783   9.701 -0.1151  0.8230 -0.1650
  103CHL1  H16A13830   2.814   2.717   9.669 -0.6418  1.4681 -0.1451
  103CHL1  H16B13831   2.916   2.863   9.626 -3.8319  0.6984 -1.4424
  103CHL1   C1713832   3.030   2.697   9.717  0.5678 -0.2574 -0.2984
  103CHL1   H1713833   3.108   2.776   9.712  2.6383 -2.1546  0.6452
  103CHL1   C1313834   3.027   2.646   9.864 -0.1543 -0.1841 -0.3868
  103CHL1   C1813835   2.925   2.535   9.882 -0.0380 -0.6139  0.7966
  103CHL1  H18A13836   2.900   2.514   9.987 -1.3674 -0.6049  0.4942
  103CHL1  H18B13837   2.835   2.548   9.818  0.2655 -2.1659  0.0010
  103CHL1  H18C13838   2.970   2.446   9.832 -0.5647  0.4014 -1.6522
  103CHL1   C1213839   3.158   2.601   9.920  0.8295 -1.0636  0.9766
  103CHL1  H12A13840   3.190   2.508   9.868  0.7761 -0.3999 -0.2988
  103CHL1  H12B13841   3.230   2.683   9.896 -1.0078  0.1214 -0.8215
  103CHL1   C1113842   3.151   2.586  10.075 -0.1614  0.6015  1.0594
  103CHL1  H11A13843   3.106   2.488  10.100 -0.3895  0.9187  1.9051
  103CHL1  H11B13844   3.256   2.573  10.109  0.2072  0.1447 -0.1888
  103CHL1    C913845   3.087   2.701  10.159  1.0568 -0.4309  0.1544
  103CHL1    H913846   3.159   2.784  10.145  3.4277 -2.4102 -0.0854
  103CHL1   C1013847   3.072   2.687  10.310  0.4890  0.1418 -0.1289
  103CHL1   C1913848   2.979   2.557  10.340  0.0992  0.4080 -0.3397
  103CHL1  H19A13849   3.037   2.463  10.329 -1.1828 -0.3641 -0.6436
  103CHL1  H19B13850   2.957   2.563  10.449  1.5950  1.1061 -0.0443
  103CHL1  H19C13851   2.888   2.557  10.276  1.1765 -0.4887 -1.9199
  103CHL1    C113852   3.214   2.660  10.364  1.0168  0.1232  0.7929
  103CHL1   H1A13853   3.241   2.557  10.332  1.2709  0.6124 -0.6781
  103CHL1   H1B13854   3.285   2.724  10.306  0.4601 -0.1666 -0.2353
  103CHL1    C213855   3.233   2.679  10.517  0.1509  0.2909 -0.0665
  103CHL1   H2A13856   3.341   2.680  10.541  0.2200  0.8962 -0.3962
  103CHL1   H2B13857   3.174   2.597  10.564 -0.3113  0.5462 -0.1938
  103CHL1   C2013858   3.068   2.595   9.608 -0.3463 -0.5864 -1.5187
  103CHL1   H2013859   3.105   2.509   9.667 -1.7355 -0.6831 -0.7459
  103CHL1   C2113860   3.185   2.653   9.521  0.9091 -0.1417 -0.1524
  103CHL1  H21A13861   3.222   2.578   9.448  0.3031  2.3464 -3.2364
  103CHL1  H21B13862   3.271   2.698   9.574  0.6476  0.8795 -0.5745
  103CHL1  H21C13863   3.148   2.738   9.459  0.1607  0.7639  1.4790
  103CHL1   C2213864   2.952   2.553   9.522 -0.1456 -0.2254  0.2900
  103CHL1  H22A13865   2.861   2.529   9.582  0.7669 -0.2833  1.6921
  103CHL1  H22B13866   2.932   2.644   9.461  1.4621  1.1044  1.6646
  103CHL1   C2313867   2.975   2.438   9.424 -0.1099 -0.5591 -0.6535
  103CHL1  H23A13868   3.067   2.461   9.366  0.8490 -1.0000  0.6445
  103CHL1  H23B13869   2.996   2.347   9.484  0.7004 -0.6544 -1.0556
  103CHL1   C2413870   2.857   2.417   9.338 -0.8265 -0.5468  0.1540
  103CHL1  H24A13871   2.765   2.416   9.400 -1.9825  1.6431 -1.3723
  103CHL1  H24B13872   2.848   2.495   9.259 -2.1507 -1.6272 -0.8186
  103CHL1   C2513873   2.858   2.283   9.262 -1.1061 -0.0025  0.0301
  103CHL1   H2513874   2.952   2.289   9.203 -1.3067 -1.5167 -0.5119
  103CHL1   C2613875   2.856   2.152   9.348  0.0101  0.1254 -0.2891
  103CHL1  H26A13876   2.865   2.060   9.286  0.5097  0.1324 -0.2354
  103CHL1  H26B13877   2.939   2.157   9.422 -1.3275 -2.6274  1.5718
  103CHL1  H26C13878   2.753   2.152   9.389  0.2484  0.1373  0.3275
  103CHL1   C2713879   2.738   2.273   9.166  0.0187 -0.8173  0.4083
  103CHL1  H27A13880   2.652   2.215   9.205 -1.8928  0.7893 -1.2350
  103CHL1  H27B13881   2.715   2.374   9.127 -0.2507 -0.9996  0.0993
  103CHL1  H27C13882   2.775   2.216   9.078  0.7700  0.8073 -0.3702
  104CHL1    C313883   6.133   3.408  10.634 -0.8298 -0.2513 -0.2274
  104CHL1    H313884   6.235   3.396  10.592 -0.1366 -0.7460  1.4938
  104CHL1    O313885   6.137   3.431  10.774 -0.5970 -0.1941  0.0126
  104CHL1   H3'13886   6.045   3.432  10.800 -0.8162  0.1789 -0.7625
  104CHL1    C413887   6.084   3.542  10.564  0.1742 -0.1015  0.5127
  104CHL1   H4A13888   6.002   3.594  10.618 -0.1706  1.2339 -1.2148
  104CHL1   H4B13889   6.170   3.613  10.575 -0.3664  0.2974  2.7877
  104CHL1    C513890   6.043   3.520  10.419 -0.6580 -0.2885 -0.9835
  104CHL1    C613891   6.097   3.604  10.329 -0.2329 -0.1082 -0.8731
  104CHL1    H613892   6.167   3.682  10.364 -0.8822  0.5612 -1.0543
  104CHL1    C713893   6.052   3.607  10.185 -0.8715 -0.2802 -0.0901
  104CHL1   H7A13894   6.047   3.712  10.150 -0.6632 -0.8434 -1.8853
  104CHL1   H7B13895   6.128   3.551  10.126 -2.2522 -1.9903 -0.3164
  104CHL1    C813896   5.926   3.515  10.156 -0.5186 -0.6223 -0.4023
  104CHL1    H813897   5.837   3.573  10.187 -0.4801 -0.9037  0.2538
  104CHL1   C1413898   5.919   3.497  10.010  0.5379  0.7004 -0.1411
  104CHL1   H1413899   6.008   3.434   9.992  0.3425  0.3861 -0.0258
  104CHL1   C1513900   5.924   3.622   9.923 -0.4973 -0.3692  0.2532
  104CHL1  H15A13901   5.870   3.709   9.968  0.1988  0.1861  0.0409
  104CHL1  H15B13902   6.032   3.637   9.903 -1.0310  0.5398 -2.2942
  104CHL1   C1613903   5.858   3.581   9.789  0.5560  0.0388  0.1912
  104CHL1  H16A13904   5.770   3.644   9.765  0.9959  0.7126  0.3084
  104CHL1  H16B13905   5.926   3.580   9.701 -0.2738 -1.6485 -0.4742
  104CHL1   C1713906   5.809   3.433   9.808 -0.7518 -0.1992  0.3213
  104CHL1   H1713907   5.900   3.378   9.777 -0.0290  1.9051 -1.6025
  104CHL1   C1313908   5.794   3.415   9.965  0.2642  0.2495  0.0887
  104CHL1   C1813909   5.663   3.488  10.005 -0.5837 -0.4402 -0.7366
  104CHL1  H18A13910   5.673   3.511  10.114  1.4854  0.0539 -0.9729
  104CHL1  H18B13911   5.641   3.579   9.945  0.1672  0.5482  0.4307
  104CHL1  H18C13912   5.580   3.416   9.992  1.3169 -2.9178  0.0483
  104CHL1   C1213913   5.794   3.281  10.037  0.0799 -0.1669 -0.4626
  104CHL1  H12A13914   5.702   3.222  10.018 -0.9116  1.2784 -0.3409
  104CHL1  H12B13915   5.889   3.229  10.011  0.1297 -0.2667 -0.0963
  104CHL1   C1113916   5.800   3.291  10.187  0.0218 -0.7198  0.4719
  104CHL1  H11A13917   5.704   3.329  10.229  0.0391  0.1531 -0.2463
  104CHL1  H11B13918   5.819   3.189  10.227  0.3605 -0.8498 -0.0061
  104CHL1    C913919   5.918   3.383  10.234  0.0537  0.7763  0.3856
  104CHL1    H913920   6.005   3.325  10.194  0.6023  1.2974  0.8044
  104CHL1   C1013921   5.947   3.410  10.385 -0.2375 -0.0355 -0.0081
  104CHL1   C1913922   5.811   3.444  10.448 -0.2852 -0.4474 -0.3135
  104CHL1  H19A13923   5.748   3.353  10.453  1.2682 -1.5079  0.7635
  104CHL1  H19B13924   5.808   3.473  10.555 -0.9245  0.6388 -0.6225
  104CHL1  H19C13925   5.759   3.521  10.388  0.7528  0.5492  0.0262
  104CHL1    C113926   6.010   3.285  10.447 -0.3883 -0.2608  0.2348
  104CHL1   H1A13927   5.942   3.199  10.426  0.3825 -0.6348 -0.8526
  104CHL1   H1B13928   6.105   3.264  10.393 -0.9756 -1.3182 -0.4442
  104CHL1    C213929   6.042   3.292  10.601  0.1179 -0.4569  0.5930
  104CHL1   H2A13930   6.086   3.195  10.632 -1.5824 -1.1803  0.8229
  104CHL1   H2B13931   5.942   3.305  10.648  0.4681 -0.6990  1.4334
  104CHL1   C2013932   5.689   3.383   9.719  0.7118 -1.0204  0.5070
  104CHL1   H2013933   5.593   3.433   9.745  1.0677 -0.1358  0.1726
  104CHL1   C2113934   5.665   3.229   9.740 -0.4977 -0.0915 -0.2926
  104CHL1  H21A13935   5.641   3.202   9.845  4.7853 -0.7882  1.0234
  104CHL1  H21B13936   5.761   3.176   9.721 -0.2788 -0.0723  0.6935
  104CHL1  H21C13937   5.595   3.184   9.668  2.8575 -1.0690 -3.2285
  104CHL1   C2213938   5.715   3.426   9.566 -0.1832  0.4136  0.2749
  104CHL1  H22A13939   5.750   3.531   9.555  0.2261  0.3130  0.5866
  104CHL1  H22B13940   5.801   3.367   9.528 -0.6402  1.0697 -1.9156
  104CHL1   C2313941   5.594   3.412   9.471 -0.5250 -0.0160  0.1957
  104CHL1  H23A13942   5.536   3.319   9.488 -2.6361  1.6072  2.6418
  104CHL1  H23B13943   5.535   3.505   9.493  0.9765  1.0781 -0.2422
  104CHL1   C2413944   5.631   3.432   9.314 -0.9419 -0.7479  0.6518
  104CHL1  H24A13945   5.700   3.518   9.301 -0.8087 -1.0745 -0.9793
  104CHL1  H24B13946   5.697   3.347   9.287 -1.1406 -0.3196 -1.2983
  104CHL1   C2513947   5.513   3.435   9.224  0.5857 -0.4167 -0.0200
  104CHL1   H2513948   5.429   3.377   9.268 -1.5011  0.1649 -2.8815
  104CHL1   C2613949   5.464   3.577   9.191 -0.6294 -0.2936 -0.3525
  104CHL1  H26A13950   5.365   3.563   9.143  0.3215  0.1199 -2.5612
  104CHL1  H26B13951   5.456   3.640   9.282  2.0762  0.2675 -0.4189
  104CHL1  H26C13952   5.529   3.633   9.120 -2.1523  1.7196 -0.2546
  104CHL1   C2713953   5.540   3.367   9.088  0.3525 -0.4379 -0.7714
  104CHL1  H27A13954   5.573   3.263   9.107 -0.5316 -0.5096  0.4958
  104CHL1  H27B13955   5.452   3.381   9.021  0.9462  1.0294 -1.2912
  104CHL1  H27C13956   5.626   3.414   9.036  0.5828  1.2120  0.9859
  105CHL1    C313957   6.040   2.235  10.480 -0.9771 -0.0766 -0.1870
  105CHL1    H313958   5.936   2.223  10.518 -0.8651 -1.9612 -0.4028
  105CHL1    O313959   6.113   2.274  10.600 -0.3758  0.0886 -0.3031
  105CHL1   H3'13960   6.079   2.360  10.626  0.6689  0.8060 -1.2417
  105CHL1    C413961   6.093   2.108  10.416 -0.0277 -0.4970  0.1217
  105CHL1   H4A13962   6.201   2.110  10.390  0.0589 -1.9945  0.3023
  105CHL1   H4B13963   6.094   2.020  10.483  2.1177 -0.4605  0.2141
  105CHL1    C513964   6.002   2.082  10.295  0.4157 -0.5659  0.2529
  105CHL1    C613965   5.921   1.974  10.287 -0.7871 -0.2812  0.1260
  105CHL1    H613966   5.930   1.900  10.368 -0.6574  0.4032  0.7441
  105CHL1    C713967   5.840   1.938  10.171 -0.0797  0.0206  0.0217
  105CHL1   H7A13968   5.853   1.830  10.148  0.3683 -0.0283  0.4800
  105CHL1   H7B13969   5.735   1.943  10.209 -0.5951  0.5610 -1.4152
  105CHL1    C813970   5.869   2.024  10.045  0.2049  0.8979 -0.4784
  105CHL1    H813971   5.959   1.980   9.997 -1.6836 -3.7214 -0.2233
  105CHL1   C1413972   5.759   2.009   9.950 -0.5041 -0.6703  0.4880
  105CHL1   H1413973   5.671   2.045  10.007  0.2688 -0.4008  1.5447
  105CHL1   C1513974   5.722   1.870   9.899 -0.3336 -0.0784 -0.0541
  105CHL1  H15A13975   5.810   1.820   9.852 -0.2136 -0.9055  1.0155
  105CHL1  H15B13976   5.674   1.804   9.974 -0.6420 -0.0179 -0.1988
  105CHL1   C1613977   5.621   1.897   9.785  0.2911  0.4109  0.1756
  105CHL1  H16A13978   5.638   1.828   9.700  1.3391  0.6199  0.2016
  105CHL1  H16B13979   5.515   1.882   9.817  0.9043  0.3624  2.3421
  105CHL1   C1713980   5.644   2.048   9.744  0.1929 -0.2156  0.2898
  105CHL1   H1713981   5.554   2.105   9.776 -1.1410 -1.8851 -0.3397
  105CHL1   C1313982   5.770   2.094   9.827  0.0652  0.3298  0.1539
  105CHL1   C1813983   5.898   2.059   9.746 -0.6837  0.1057  0.5049
  105CHL1  H18A13984   5.901   1.956   9.704  1.0643 -0.3189  1.5459
  105CHL1  H18B13985   5.920   2.124   9.659  1.8621  1.3946  1.9878
  105CHL1  H18C13986   5.987   2.085   9.807 -0.5708  1.3249 -0.1419
  105CHL1   C1213987   5.779   2.239   9.867  0.7008  0.0448 -0.0794
  105CHL1  H12A13988   5.798   2.300   9.776  1.3639  0.7134  0.4973
  105CHL1  H12B13989   5.680   2.268   9.908 -1.0193 -2.2133 -2.3134
  105CHL1   C1113990   5.884   2.266   9.972  0.5383 -0.1305  0.5880
  105CHL1  H11A13991   5.982   2.253   9.922  1.2819 -0.5765  2.0985
  105CHL1  H11B13992   5.870   2.374   9.996  0.6800  0.1378 -0.4986
  105CHL1    C913993   5.881   2.170  10.092  0.6473 -0.5467  0.0443
  105CHL1    H913994   5.787   2.200  10.142  0.4190  0.8021 -1.1356
  105CHL1   C1013995   5.992   2.197  10.194  0.1925 -0.2465  0.6566
  105CHL1   C1913996   6.129   2.207  10.114 -0.1070 -0.2394 -0.4154
  105CHL1  H19A13997   6.216   2.218  10.182 -0.5668 -2.0844  0.5342
  105CHL1  H19B13998   6.152   2.107  10.071  1.0539 -1.3196  2.4747
  105CHL1  H19C13999   6.126   2.284  10.034 -0.6342  0.7001  0.4930
  105CHL1    C114000   5.962   2.337  10.256 -0.1729  0.7124 -0.3186
  105CHL1   H1A14001   5.977   2.424  10.189 -0.3570  1.0975  0.1311
  105CHL1   H1B14002   5.855   2.347  10.287 -0.0852  1.1741 -0.1560
  105CHL1    C214003   6.045   2.364  10.384  0.4422  0.1827  0.1283
  105CHL1   H2A14004   5.991   2.446  10.435 -1.9582 -1.6529  0.7691
  105CHL1   H2B14005   6.147   2.397  10.357 -0.3191  1.6773 -1.0610
  105CHL1   C2014006   5.637   2.079   9.589  0.4222 -0.5678  0.0050
  105CHL1   H2014007   5.736   2.049   9.548  1.8848 -0.4538  3.1496
  105CHL1   C2114008   5.597   2.223   9.560 -0.7964  0.6425  0.1259
  105CHL1  H21A14009   5.583   2.248   9.453  0.2855 -1.6742 -0.6195
  105CHL1  H21B14010   5.677   2.297   9.584 -0.1986  0.1045 -0.1992
  105CHL1  H21C14011   5.499   2.249   9.607 -0.2519  1.3103  0.9391
  105CHL1   C2214012   5.521   1.981   9.513 -0.6019 -0.7902  0.2388
  105CHL1  H22A14013   5.560   1.877   9.510  4.3392  0.6041  3.7353
  105CHL1  H22B14014   5.421   1.994   9.560 -0.2076  3.7456  0.2606
  105CHL1   C2314015   5.492   2.019   9.365  0.4404  0.6581  0.2587
  105CHL1  H23A14016   5.444   2.119   9.362 -2.9513 -0.8588 -0.9654
  105CHL1  H23B14017   5.588   2.030   9.311  1.2317  1.3578  1.7497
  105CHL1   C2414018   5.387   1.931   9.301 -0.2939 -0.0891  0.0602
  105CHL1  H24A14019   5.417   1.825   9.318  2.2273  0.6727  0.9196
  105CHL1  H24B14020   5.301   1.938   9.371  0.5124 -2.1787  1.3606
  105CHL1   C2514021   5.360   1.944   9.149  0.1602 -0.1925 -0.2940
  105CHL1   H2514022   5.454   1.937   9.092  1.2391 -1.8831  1.5653
  105CHL1   C2614023   5.273   1.823   9.099  0.2940  0.1271 -0.1609
  105CHL1  H26A14024   5.329   1.728   9.116 -0.9878 -0.8162 -1.0537
  105CHL1  H26B14025   5.188   1.817   9.171 -0.3451  0.1859 -0.9000
  105CHL1  H26C14026   5.243   1.833   8.992  0.4279  0.2680 -0.1852
  105CHL1   C2714027   5.288   2.079   9.114  0.2651  0.3395  0.5182
  105CHL1  H27A14028   5.365   2.159   9.128  1.5519 -1.0744  1.8543
  105CHL1  H27B14029   5.259   2.067   9.008  0.7442 -0.0758  0.4315
  105CHL1  H27C14030   5.190   2.101   9.161 -0.1819  1.5977 -0.9054
  106CHL1    C314031   1.108   2.018  10.761 -0.1953 -0.2377  0.2959
  106CHL1    H314032   1.182   1.937  10.740 -1.1560 -0.3710 -3.1403
  106CHL1    O314033   1.040   1.988  10.880  0.1747 -0.4758 -0.2619
  106CHL1   H3'14034   0.963   2.045  10.874  0.3814 -0.3347 -2.4476
  106CHL1    C414035   1.191   2.151  10.778  0.1949 -0.2074 -0.1701
  106CHL1   H4A14036   1.120   2.231  10.808 -0.5273 -0.0262 -2.2129
  106CHL1   H4B14037   1.258   2.133  10.865 -1.6819  1.5920  1.7614
  106CHL1    C514038   1.260   2.186  10.648  0.5834  0.2689  0.0835
  106CHL1    C614039   1.388   2.213  10.641  0.5264 -0.7789 -1.3173
  106CHL1    H614040   1.446   2.221  10.734  0.0476  0.2849 -1.0996
  106CHL1    C714041   1.470   2.248  10.520  0.4754  0.3854 -0.5538
  106CHL1   H7A14042   1.537   2.335  10.535  0.1438  0.4014  0.9975
  106CHL1   H7B14043   1.526   2.162  10.479 -1.8198 -2.2547  1.5092
  106CHL1    C814044   1.371   2.292  10.402  0.9958  1.0892  1.0819
  106CHL1    H814045   1.328   2.391  10.430 -0.7467 -0.0893  2.8401
  106CHL1   C1414046   1.440   2.296  10.264  0.1288  0.0476  0.2825
  106CHL1   H1414047   1.466   2.190  10.247  0.5534  0.1332  0.3878
  106CHL1   C1514048   1.571   2.372  10.257 -0.0299 -0.3510 -0.4541
  106CHL1  H15A14049   1.552   2.471  10.304  0.7904 -0.2934 -0.2290
  106CHL1  H15B14050   1.658   2.321  10.305 -0.7971 -0.0148  1.3720
  106CHL1   C1614051   1.592   2.392  10.107 -0.9931  0.0145  0.7387
  106CHL1  H16A14052   1.604   2.500  10.084 -0.1640  0.2046  1.9444
  106CHL1  H16B14053   1.688   2.342  10.081 -1.4664 -0.6128  0.1748
  106CHL1   C1714054   1.460   2.339  10.041  0.2245  0.3232 -0.0511
  106CHL1   H1714055   1.473   2.230  10.025  2.2823  0.5855 -0.4626
  106CHL1   C1314056   1.351   2.338  10.150 -0.1026  0.3000 -0.6269
  106CHL1   C1814057   1.310   2.484  10.167  0.0246  0.1267 -0.3591
  106CHL1  H18A14058   1.254   2.468  10.262  0.0047 -1.9619 -0.6932
  106CHL1  H18B14059   1.400   2.546  10.189  0.2629 -0.4758  0.4293
  106CHL1  H18C14060   1.236   2.517  10.091  0.3458  0.9147 -0.3432
  106CHL1   C1214061   1.232   2.246  10.134 -0.8428  0.3140  0.1849
  106CHL1  H12A14062   1.156   2.280  10.060  0.0292 -1.2664 -1.5212
  106CHL1  H12B14063   1.271   2.148  10.098 -2.4183 -0.8566  1.5142
  106CHL1   C1114064   1.156   2.226  10.261  0.2073 -0.7017 -0.4121
  106CHL1  H11A14065   1.088   2.312  10.280  1.0988  0.0528 -0.5843
  106CHL1  H11B14066   1.088   2.138  10.250 -0.0456 -0.4636 -0.7626
  106CHL1    C914067   1.245   2.208  10.390  0.1519  0.1208 -0.4361
  106CHL1    H914068   1.282   2.105  10.368  0.0755 -0.6387  2.5295
  106CHL1   C1014069   1.165   2.190  10.523  0.4355 -0.2583  0.5107
  106CHL1   C1914070   1.075   2.317  10.538  0.5034  0.5295  1.1819
  106CHL1  H19A14071   1.120   2.402  10.483 -2.3640  0.2809 -1.8415
  106CHL1  H19B14072   0.986   2.296  10.476  1.4679 -1.2377  0.3342
  106CHL1  H19C14073   1.064   2.342  10.646  1.6099 -0.1467  1.4755
  106CHL1    C114074   1.085   2.061  10.508 -0.0655  0.3909  0.0800
  106CHL1   H1A14075   0.999   2.071  10.439 -3.3707 -0.1667  3.7386
  106CHL1   H1B14076   1.148   1.973  10.486  0.7186  1.0537 -0.3929
  106CHL1    C214077   1.011   2.021  10.643  0.0277 -0.5298 -0.5844
  106CHL1   H2A14078   0.963   1.923  10.624 -0.6628  0.2945 -3.6254
  106CHL1   H2B14079   0.942   2.105  10.669  0.2913 -0.0729 -1.3205
  106CHL1   C2014080   1.436   2.401   9.903 -0.2172 -0.0645 -0.6759
  106CHL1   H2014081   1.430   2.510   9.923  2.9424  0.2106 -0.8538
  106CHL1   C2114082   1.304   2.355   9.840 -0.0221 -0.0162  0.1684
  106CHL1  H21A14083   1.226   2.412   9.896  0.9685  2.6153 -0.9704
  106CHL1  H21B14084   1.295   2.244   9.835 -1.0408  0.0962 -0.8286
  106CHL1  H21C14085   1.290   2.400   9.740 -0.5308  0.7736  0.5808
  106CHL1   C2214086   1.567   2.385   9.814  0.0441 -0.4179  0.6267
  106CHL1  H22A14087   1.644   2.451   9.860 -0.7416  2.8077 -2.2567
  106CHL1  H22B14088   1.600   2.282   9.789 -0.6532 -0.4711 -0.1132
  106CHL1   C2314089   1.562   2.456   9.677 -0.3772 -0.5143  0.4469
  106CHL1  H23A14090   1.480   2.402   9.626  0.1241  0.1949 -1.1609
  106CHL1  H23B14091   1.548   2.566   9.688  0.3063 -0.5559  1.9979
  106CHL1   C2414092   1.681   2.423   9.582 -0.7391 -0.2871 -0.2478
  106CHL1  H24A14093   1.675   2.313   9.567 -1.0042 -0.0789 -1.9939
  106CHL1  H24B14094   1.654   2.468   9.484  0.6177  0.7771 -0.1618
  106CHL1   C2514095   1.819   2.462   9.639  0.2436 -0.0682  0.4126
  106CHL1   H2514096   1.834   2.408   9.735  0.9266 -0.7833 -0.0786
  106CHL1   C2614097   1.942   2.422   9.549 -0.2309  0.8385 -0.3181
  106CHL1  H26A14098   1.923   2.474   9.453  1.8906  2.1919 -0.0895
  106CHL1  H26B14099   2.038   2.468   9.581 -0.1402  0.9578 -0.7600
  106CHL1  H26C14100   1.953   2.312   9.539 -1.9410  0.6290 -0.1224
  106CHL1   C2714101   1.823   2.605   9.681 -0.1847 -0.4010  0.1340
  106CHL1  H27A14102   1.750   2.625   9.763 -1.5252 -0.1028 -1.0837
  106CHL1  H27B14103   1.921   2.628   9.728 -1.5964 -0.7691  3.5875
  106CHL1  H27C14104   1.801   2.677   9.599  3.6630  0.9708  0.1212
  107CHL1    C314105   2.676   5.418  10.491 -0.2914 -0.8126 -0.6619
  107CHL1    H314106   2.566   5.420  10.475 -0.7415 -2.3346  1.8040
  107CHL1    O314107   2.695   5.447  10.632  0.1537 -0.7173  0.1954
  107CHL1   H3'14108   2.603   5.459  10.656  0.1208  0.7788 -0.5523
  107CHL1    C414109   2.738   5.282  10.457 -0.3138 -0.5688 -0.3317
  107CHL1   H4A14110   2.843   5.303  10.488 -0.6210  0.7404 -0.0993
  107CHL1   H4B14111   2.683   5.215  10.526 -0.9903  1.7386  1.5088
  107CHL1    C514112   2.732   5.252  10.309  0.4600 -0.5477  0.8142
  107CHL1    C614113   2.669   5.144  10.260 -0.4279 -0.2312  0.2099
  107CHL1    H614114   2.633   5.074  10.337 -2.9604  1.6615  0.8485
  107CHL1    C714115   2.651   5.111  10.115 -0.8246 -0.3773 -0.3512
  107CHL1   H7A14116   2.674   5.006  10.090 -0.8779 -1.1343  2.4162
  107CHL1   H7B14117   2.542   5.114  10.097 -1.1936  3.7757  1.4175
  107CHL1    C814118   2.722   5.209  10.011  0.2598 -0.4909 -0.5002
  107CHL1    H814119   2.824   5.163  10.009  0.5906  0.1089  1.0466
  107CHL1   C1414120   2.656   5.207   9.875  0.4030  0.8682 -0.4132
  107CHL1   H1414121   2.554   5.252   9.877  0.7440  1.7349 -1.6296
  107CHL1   C1514122   2.631   5.066   9.805  0.0948 -0.5990 -0.0843
  107CHL1  H15A14123   2.718   4.998   9.816  1.5947  1.2979  0.3973
  107CHL1  H15B14124   2.537   5.018   9.840  0.0581 -0.2881  0.2479
  107CHL1   C1614125   2.617   5.096   9.655 -0.1341 -0.1661 -0.4852
  107CHL1  H16A14126   2.690   5.031   9.602  1.2875  2.1561 -1.5348
  107CHL1  H16B14127   2.512   5.080   9.622 -0.7231  0.7999  0.8510
  107CHL1   C1714128   2.659   5.241   9.632  0.3577 -1.0473 -0.0214
  107CHL1   H1714129   2.565   5.299   9.620 -0.1127 -2.3791 -4.2938
  107CHL1   C1314130   2.734   5.284   9.762  0.0361  0.5096 -0.3310
  107CHL1   C1814131   2.876   5.230   9.742  0.5128  0.2148 -0.4649
  107CHL1  H18A14132   2.879   5.150   9.665 -1.9893  0.3722 -0.8110
  107CHL1  H18B14133   2.936   5.317   9.707 -0.6483  0.7369 -1.2306
  107CHL1  H18C14134   2.919   5.199   9.839 -0.5018  1.3644  0.3855
  107CHL1   C1214135   2.735   5.427   9.814  0.3308  0.0850  0.2338
  107CHL1  H12A14136   2.788   5.501   9.750  1.1877 -0.4889  0.2634
  107CHL1  H12B14137   2.626   5.449   9.813 -0.1009 -1.7169  1.7840
  107CHL1   C1114138   2.793   5.447   9.953 -0.2535  0.1604  0.2266
  107CHL1  H11A14139   2.902   5.431   9.939  0.0779  2.1638  0.2207
  107CHL1  H11B14140   2.783   5.553   9.984  1.0713  0.6500 -0.8688
  107CHL1    C914141   2.728   5.354  10.058  0.0111  0.6177 -0.1074
  107CHL1    H914142   2.620   5.371  10.074 -0.4115 -3.1222  2.5437
  107CHL1   C1014143   2.782   5.359  10.206 -1.0771  0.2138  0.3789
  107CHL1   C1914144   2.934   5.344  10.206 -0.3254 -0.0867 -0.5345
  107CHL1  H19A14145   2.966   5.257  10.145  0.8085 -1.2138  1.5491
  107CHL1  H19B14146   2.987   5.436  10.171 -1.7582  0.7560 -0.5789
  107CHL1  H19C14147   2.977   5.336  10.308  0.2374 -0.8456 -0.8230
  107CHL1    C114148   2.744   5.504  10.258 -0.0562 -0.5512 -0.5147
  107CHL1   H1A14149   2.794   5.586  10.202  0.1453 -0.6232 -0.4421
  107CHL1   H1B14150   2.638   5.505  10.226  0.1653 -0.7564 -1.2942
  107CHL1    C214151   2.756   5.521  10.409  0.2245 -0.5786 -0.4572
  107CHL1   H2A14152   2.723   5.624  10.435 -2.7936 -1.7811  1.0571
  107CHL1   H2B14153   2.863   5.514  10.437 -0.4682 -3.3939  2.0877
  107CHL1   C2014154   2.720   5.270   9.494 -0.0391  0.8279  0.0899
  107CHL1   H2014155   2.819   5.220   9.499 -0.7319 -0.6151 -0.1839
  107CHL1   C2114156   2.747   5.418   9.462  0.3616 -0.4519  0.6049
  107CHL1  H21A14157   2.647   5.462   9.441  0.0669 -0.8357  1.1779
  107CHL1  H21B14158   2.803   5.427   9.367  0.2622 -1.4809  0.4431
  107CHL1  H21C14159   2.794   5.469   9.550 -2.1391 -0.0086  1.7877
  107CHL1   C2214160   2.648   5.203   9.376 -0.2231 -0.0890  0.9781
  107CHL1  H22A14161   2.645   5.095   9.402 -0.1210  0.1194  1.8714
  107CHL1  H22B14162   2.543   5.240   9.378 -0.5486 -1.0160  1.8273
  107CHL1   C2314163   2.701   5.214   9.231  0.0194 -0.1836  0.0365
  107CHL1  H23A14164   2.733   5.315   9.196  1.3050 -0.8216 -0.6860
  107CHL1  H23B14165   2.792   5.150   9.230  2.0667  2.3915  2.4035
  107CHL1   C2414166   2.601   5.164   9.128  0.1582  0.3000  0.2765
  107CHL1  H24A14167   2.597   5.053   9.128  0.3431  0.2757  2.1227
  107CHL1  H24B14168   2.503   5.204   9.161 -0.2757  1.0079 -1.7072
  107CHL1   C2514169   2.630   5.214   8.989 -0.1045  0.3585 -0.0031
  107CHL1   H2514170   2.670   5.317   8.996  0.5224  0.1117  0.0681
  107CHL1   C2614171   2.747   5.142   8.924 -0.1728  0.1950  0.0393
  107CHL1  H26A14172   2.791   5.191   8.835  0.9659 -1.0112 -0.0935
  107CHL1  H26B14173   2.827   5.146   9.001 -0.7687 -1.0919  0.7420
  107CHL1  H26C14174   2.721   5.040   8.890  0.5054 -1.1637  3.2417
  107CHL1   C2714175   2.506   5.202   8.901 -0.0090  0.3517  0.2917
  107CHL1  H27A14176   2.418   5.256   8.942 -0.1104  1.0990 -0.8671
  107CHL1  H27B14177   2.538   5.243   8.803 -0.6218  0.2306  0.0373
  107CHL1  H27C14178   2.481   5.098   8.874 -0.0722  0.5112 -0.2730
  108CHL1    C314179   6.517   1.805  10.451  0.1424  0.0845 -0.0646
  108CHL1    H314180   6.536   1.909  10.416 -0.6087 -0.1070 -1.0950
  108CHL1    O314181   6.536   1.796  10.590 -0.2464  0.7661 -0.3193
  108CHL1   H3'14182   6.618   1.844  10.603 -0.9677  1.2788  3.8941
  108CHL1    C414183   6.379   1.762  10.417 -1.2157  0.2202 -0.2050
  108CHL1   H4A14184   6.371   1.658  10.455 -2.0130  0.1030 -0.6573
  108CHL1   H4B14185   6.306   1.820  10.477 -1.0649 -0.4895  0.6885
  108CHL1    C514186   6.366   1.767  10.268  0.3084  0.4201 -0.0362
  108CHL1    C614187   6.263   1.828  10.214  0.2880  0.3046 -0.0685
  108CHL1    H614188   6.199   1.884  10.284  0.5502  2.0490 -1.1449
  108CHL1    C714189   6.224   1.825  10.072  0.1010 -0.7449 -0.4799
  108CHL1   H7A14190   6.115   1.805  10.060 -0.6324  1.7930  1.1247
  108CHL1   H7B14191   6.244   1.931  10.043  0.0609 -0.7257 -0.4379
  108CHL1    C814192   6.305   1.735   9.987  0.1593  0.1313 -0.7592
  108CHL1    H814193   6.249   1.640   9.994 -0.5506  0.6371  0.9655
  108CHL1   C1414194   6.306   1.766   9.836  0.3936  0.3632 -0.1912
  108CHL1   H1414195   6.347   1.869   9.827  1.2175 -0.1252 -3.6203
  108CHL1   C1514196   6.172   1.770   9.763 -0.0677 -0.0734  0.9267
  108CHL1  H15A14197   6.105   1.703   9.822 -1.8558  1.1071  0.3007
  108CHL1  H15B14198   6.119   1.867   9.772  0.5700  0.1376  3.1927
  108CHL1   C1614199   6.202   1.732   9.621  0.6622 -0.2493 -0.2151
  108CHL1  H16A14200   6.138   1.644   9.596  0.4519 -0.9054  2.3673
  108CHL1  H16B14201   6.178   1.823   9.561  1.3985  1.0197  1.3435
  108CHL1   C1714202   6.358   1.708   9.609  0.6347 -0.5981 -0.6579
  108CHL1   H1714203   6.407   1.806   9.591  0.5469 -0.4637 -0.1850
  108CHL1   C1314204   6.393   1.667   9.755 -0.7271 -0.0613 -0.2530
  108CHL1   C1814205   6.348   1.529   9.773 -0.2711  0.5063  0.5522
  108CHL1  H18A14206   6.247   1.504   9.735 -0.3127 -0.1034  1.0452
  108CHL1  H18B14207   6.420   1.453   9.737  0.7556  0.8904  1.7209
  108CHL1  H18C14208   6.340   1.502   9.881  0.8135 -0.8258  0.3242
  108CHL1   C1214209   6.536   1.686   9.798 -0.5123 -0.1625  0.3582
  108CHL1  H12A14210   6.609   1.631   9.735 -0.5989  2.4701 -2.2059
  108CHL1  H12B14211   6.571   1.791   9.791  2.6789 -1.1292  0.2206
  108CHL1   C1114212   6.548   1.644   9.945 -0.3283  0.5052  0.1267
  108CHL1  H11A14213   6.540   1.534   9.958 -1.3161  0.4417 -0.8200
  108CHL1  H11B14214   6.651   1.671   9.977 -0.5036 -0.3286  1.4701
  108CHL1    C914215   6.451   1.723  10.039 -0.2570  0.7474  0.0660
  108CHL1    H914216   6.487   1.827  10.036 -0.7016  0.9154  0.3844
  108CHL1   C1014217   6.463   1.683  10.189 -0.3980 -0.1788  0.2957
  108CHL1   C1914218   6.429   1.530  10.201  0.3155  0.3709  0.6919
  108CHL1  H19A14219   6.425   1.512  10.310 -0.1300  0.0332  0.6227
  108CHL1  H19B14220   6.324   1.517  10.167  0.7297  0.8173 -0.8570
  108CHL1  H19C14221   6.509   1.468  10.157  0.3238 -1.4166  3.0387
  108CHL1    C114222   6.612   1.713  10.236  0.3655  0.0937 -0.0482
  108CHL1   H1A14223   6.668   1.624  10.201 -1.7547 -0.8756 -1.1745
  108CHL1   H1B14224   6.648   1.801  10.178  0.8302  0.8158  1.3085
  108CHL1    C214225   6.622   1.713  10.385 -0.2241 -0.2218  0.2024
  108CHL1   H2A14226   6.724   1.743  10.418  0.9697 -1.2389 -2.2915
  108CHL1   H2B14227   6.607   1.609  10.420  0.6489 -0.8942 -1.3407
  108CHL1   C2014228   6.391   1.618   9.485  0.0946  0.2953  0.4994
  108CHL1   H2014229   6.331   1.524   9.486 -0.7948  0.8489  0.9432
  108CHL1   C2114230   6.548   1.600   9.480 -0.0021 -0.2953 -0.1755
  108CHL1  H21A14231   6.590   1.536   9.560  1.6600  0.9166 -0.0333
  108CHL1  H21B14232   6.590   1.703   9.478 -2.7579  1.0041  1.6178
  108CHL1  H21C14233   6.585   1.555   9.385  1.8053  2.0994 -0.6944
  108CHL1   C2214234   6.336   1.684   9.355  0.2182 -0.3922  0.0795
  108CHL1  H22A14235   6.236   1.730   9.373  0.5305 -0.5048  2.3770
  108CHL1  H22B14236   6.406   1.768   9.335 -0.5089  0.4674  1.0626
  108CHL1   C2314237   6.341   1.598   9.227 -0.2291  0.7840 -0.5416
  108CHL1  H23A14238   6.447   1.567   9.218 -0.0435  1.7074 -1.7870
  108CHL1  H23B14239   6.277   1.508   9.239  0.3402  0.6973  2.4590
  108CHL1   C2414240   6.304   1.679   9.108  0.4465  0.2569  0.5616
  108CHL1  H24A14241   6.203   1.721   9.127  0.4227 -0.0370  1.0927
  108CHL1  H24B14242   6.373   1.763   9.084 -0.4203  0.3946 -1.6799
  108CHL1   C2514243   6.302   1.600   8.971 -0.4895 -0.2794  0.4869
  108CHL1   H2514244   6.406   1.570   8.945 -0.7798  0.8621 -2.2503
  108CHL1   C2614245   6.213   1.469   8.974  0.7302 -0.0041  0.0940
  108CHL1  H26A14246   6.115   1.511   9.005  1.4871  2.4466 -0.6095
  108CHL1  H26B14247   6.195   1.427   8.873 -2.2168 -0.3335  0.6830
  108CHL1  H26C14248   6.261   1.397   9.044  0.2564  0.1549  0.5866
  108CHL1   C2714249   6.251   1.695   8.861  0.7034 -0.7020 -0.1933
  108CHL1  H27A14250   6.300   1.794   8.865 -1.7388  0.8725 -4.2229
  108CHL1  H27B14251   6.270   1.654   8.760  0.4536 -1.4080  0.0380
  108CHL1  H27C14252   6.143   1.710   8.880  0.3299 -0.3249 -2.3697
  109CHL1    C314253   2.478   5.832  10.503 -0.9751  0.2442  0.3139
  109CHL1    H314254   2.547   5.746  10.493 -1.3753  0.1189 -1.9062
  109CHL1    O314255   2.413   5.850  10.630  0.2927  0.0768 -0.0281
  109CHL1   H3'14256   2.338   5.908  10.616 -1.9670 -2.3390  1.2696
  109CHL1    C414257   2.560   5.957  10.469  0.0207 -0.1932 -0.3318
  109CHL1   H4A14258   2.487   6.039  10.486  0.6284 -0.1474  2.5637
  109CHL1   H4B14259   2.636   5.968  10.550 -0.8649  0.7260  0.4026
  109CHL1    C514260   2.622   5.965  10.339 -0.4857  0.4114 -0.6333
  109CHL1    C614261   2.752   5.983  10.318  0.3041  0.1826  1.0453
  109CHL1    H614262   2.822   5.996  10.402 -0.2112  1.6466  1.2613
  109CHL1    C714263   2.815   5.994  10.180  0.1454 -0.0216 -0.1885
  109CHL1   H7A14264   2.870   6.089  10.166 -0.3479  0.3066  0.0962
  109CHL1   H7B14265   2.899   5.921  10.175 -1.2666 -2.0647  2.6029
  109CHL1    C814266   2.723   5.983  10.059  0.0430  0.4600  0.3217
  109CHL1    H814267   2.669   6.080  10.051 -2.1928 -0.6651  0.9863
  109CHL1   C1414268   2.791   5.937   9.927 -0.3027 -0.3486 -0.2740
  109CHL1   H1414269   2.845   5.844   9.953 -0.8854 -0.5778  0.1510
  109CHL1   C1514270   2.910   6.027   9.887 -0.4222  0.0695  0.9017
  109CHL1  H15A14271   2.880   6.133   9.895 -1.2551 -0.1596  0.8913
  109CHL1  H15B14272   3.001   6.022   9.950 -0.8266  1.0651  1.5883
  109CHL1   C1614273   2.929   5.992   9.737  0.7841 -0.0989 -0.0198
  109CHL1  H16A14274   2.924   6.083   9.674  0.0549  0.6367  1.0655
  109CHL1  H16B14275   3.025   5.941   9.715  1.8539  0.8685  2.1122
  109CHL1   C1714276   2.809   5.893   9.701 -0.0676  0.3711  0.0686
  109CHL1   H1714277   2.846   5.790   9.722  0.6874  0.8007  0.8781
  109CHL1   C1314278   2.699   5.914   9.809 -0.4812  0.1838  0.2363
  109CHL1   C1814279   2.633   6.052   9.780  0.3995  0.1384  0.6246
  109CHL1  H18A14280   2.571   6.034   9.690  3.2361 -0.6906 -1.3068
  109CHL1  H18B14281   2.562   6.081   9.861  0.3699 -0.1771  0.7125
  109CHL1  H18C14282   2.699   6.141   9.772 -0.0327  0.3878 -0.2864
  109CHL1   C1214283   2.600   5.803   9.849 -0.1442 -0.5288  0.0619
  109CHL1  H12A14284   2.516   5.801   9.776 -0.2136  2.1039 -0.0394
  109CHL1  H12B14285   2.646   5.704   9.868  1.9569 -0.2299 -2.7904
  109CHL1   C1114286   2.523   5.842   9.977 -0.3139  0.3538 -0.3776
  109CHL1  H11A14287   2.443   5.917   9.960 -2.2535 -1.0214  1.8791
  109CHL1  H11B14288   2.484   5.742  10.007 -0.9113 -0.5304 -3.7147
  109CHL1    C914289   2.611   5.886  10.099 -0.3743 -0.5623 -0.5255
  109CHL1    H914290   2.669   5.800  10.137  0.1068  0.1462  0.3713
  109CHL1   C1014291   2.530   5.933  10.221  0.4333  0.4873  0.2235
  109CHL1   C1914292   2.445   6.056  10.189  0.2492  0.0525 -0.6451
  109CHL1  H19A14293   2.373   6.035  10.107 -0.9698  3.7557 -0.7203
  109CHL1  H19B14294   2.380   6.088  10.273  0.9092  1.6063 -0.6892
  109CHL1  H19C14295   2.502   6.149  10.167 -0.7056  0.6300 -0.7178
  109CHL1    C114296   2.437   5.810  10.250 -0.8523 -0.0699 -0.0633
  109CHL1   H1A14297   2.359   5.789  10.173 -1.4558  0.5158  0.3767
  109CHL1   H1B14298   2.498   5.718  10.259 -0.1975  0.3504 -0.1752
  109CHL1    C214299   2.375   5.820  10.389  0.2092  0.3202  1.0316
  109CHL1   H2A14300   2.323   5.725  10.411  0.6551  0.0858  1.1019
  109CHL1   H2B14301   2.305   5.906  10.387 -0.9345 -0.5746 -1.3978
  109CHL1   C2014302   2.764   5.915   9.549  0.1707  0.3866  0.0156
  109CHL1   H2014303   2.714   6.014   9.539 -0.5468  0.1140  0.7694
  109CHL1   C2114304   2.668   5.801   9.518 -0.7406 -0.1034  0.0694
  109CHL1  H21A14305   2.569   5.817   9.567 -0.4744  0.0918  0.5528
  109CHL1  H21B14306   2.713   5.708   9.558 -0.7596 -1.0193 -1.9326
  109CHL1  H21C14307   2.668   5.783   9.408  0.3423  0.0586  0.0321
  109CHL1   C2214308   2.885   5.914   9.450 -0.4957 -0.5651  0.3876
  109CHL1  H22A14309   2.981   5.958   9.483 -0.6891  0.0143  0.1791
  109CHL1  H22B14310   2.907   5.806   9.434 -2.3098 -0.6388 -2.2445
  109CHL1   C2314311   2.858   5.969   9.306 -0.3217  0.1372  0.1865
  109CHL1  H23A14312   2.949   5.957   9.245 -1.4377 -1.2835 -1.2711
  109CHL1  H23B14313   2.774   5.922   9.250 -0.2603 -0.5505  0.6624
  109CHL1   C2414314   2.818   6.122   9.317  0.1138  0.6891  0.1910
  109CHL1  H24A14315   2.720   6.115   9.369 -0.8869 -4.5122 -1.7095
  109CHL1  H24B14316   2.892   6.167   9.386  0.6625 -0.0686  0.1130
  109CHL1   C2514317   2.806   6.187   9.187 -0.4422 -0.0439  0.0399
  109CHL1   H2514318   2.894   6.151   9.129 -0.8132  0.9683 -1.2060
  109CHL1   C2614319   2.688   6.162   9.098 -0.2777 -0.4051 -1.3720
  109CHL1  H26A14320   2.597   6.184   9.158  2.5950  0.3130  3.2502
  109CHL1  H26B14321   2.684   6.228   9.008  1.2109 -0.5974 -1.6015
  109CHL1  H26C14322   2.664   6.058   9.069 -3.3831  0.1571 -1.1758
  109CHL1   C2714323   2.814   6.343   9.200  0.3904 -0.0986  0.2053
  109CHL1  H27A14324   2.796   6.399   9.105 -0.4635  1.7425  1.3948
  109CHL1  H27B14325   2.732   6.370   9.270 -0.6876 -1.2257 -0.5800
  109CHL1  H27C14326   2.912   6.375   9.243  0.2000 -0.9186  1.2721
  110CHL1    C314327   0.790   4.871  10.790  0.1820  0.6665 -0.0801
  110CHL1    H314328   0.687   4.869  10.749 -1.0679 -1.3884  2.8718
  110CHL1    O314329   0.792   4.901  10.925  0.1429  0.0558 -0.2298
  110CHL1   H3'14330   0.882   4.907  10.960  0.3231 -1.7865 -0.2898
  110CHL1    C414331   0.862   4.731  10.769  0.3085 -0.1499  0.4237
  110CHL1   H4A14332   0.960   4.726  10.822  0.4422 -0.6881  0.1341
  110CHL1   H4B14333   0.793   4.666  10.827  2.9187 -1.3690  2.4009
  110CHL1    C514334   0.872   4.691  10.626 -0.4443 -0.8904 -0.1946
  110CHL1    C614335   0.815   4.572  10.591 -0.2309 -0.0496 -0.2352
  110CHL1    H614336   0.767   4.502  10.661  1.2254 -3.2440 -2.2017
  110CHL1    C714337   0.829   4.519  10.451  0.6267 -0.1523 -0.0886
  110CHL1   H7A14338   0.859   4.413  10.461 -0.1718 -0.3001  0.8461
  110CHL1   H7B14339   0.726   4.514  10.411  0.0041 -3.2100  1.6239
  110CHL1    C814340   0.924   4.603  10.364 -0.1532 -0.5363  0.0445
  110CHL1    H814341   1.020   4.561  10.401 -1.1091 -1.3866  1.6905
  110CHL1   C1414342   0.899   4.567  10.222 -0.4379  0.0780 -0.2919
  110CHL1   H1414343   0.797   4.604  10.197 -0.8363 -0.7836  0.0125
  110CHL1   C1514344   0.914   4.415  10.181 -0.2392 -0.1197 -0.3498
  110CHL1  H15A14345   1.001   4.360  10.224  0.1058  0.6704 -0.0145
  110CHL1  H15B14346   0.825   4.364  10.223  1.2659 -1.3475  1.5415
  110CHL1   C1614347   0.929   4.422  10.030  0.1364  0.0419 -0.3050
  110CHL1  H16A14348   1.032   4.384  10.011  0.7270  1.5469 -0.2708
  110CHL1  H16B14349   0.847   4.370   9.978  0.6507 -1.6488  0.4922
  110CHL1   C1714350   0.946   4.573   9.994  0.8829  0.2979 -0.2909
  110CHL1   H1714351   0.847   4.620   9.974  0.7717  0.3374  0.3024
  110CHL1   C1314352   0.998   4.637  10.126  0.7339 -0.0043 -0.1128
  110CHL1   C1814353   1.144   4.598  10.146  0.5148  0.2789  0.3696
  110CHL1  H18A14354   1.211   4.671  10.097  2.0506 -1.5912 -0.4558
  110CHL1  H18B14355   1.170   4.591  10.254 -3.3546 -0.9942  1.3812
  110CHL1  H18C14356   1.176   4.504  10.097 -0.2692  0.7733 -1.1693
  110CHL1   C1214357   0.971   4.789  10.140  0.2055 -0.0212 -0.4543
  110CHL1  H12A14358   1.038   4.842  10.069  0.4852 -1.5254 -1.3597
  110CHL1  H12B14359   0.868   4.807  10.104 -0.1736 -0.1933  0.5104
  110CHL1   C1114360   0.989   4.845  10.277  0.0710  0.3268  0.0087
  110CHL1  H11A14361   1.097   4.840  10.300  0.2604  1.4353 -0.5549
  110CHL1  H11B14362   0.966   4.952  10.297 -1.6512 -0.0484  0.2217
  110CHL1    C914363   0.915   4.756  10.383 -0.1626  0.6045  0.2978
  110CHL1    H914364   0.807   4.778  10.364  0.1937  1.3819 -0.8932
  110CHL1   C1014365   0.932   4.796  10.533  0.3845 -0.3191 -0.1746
  110CHL1   C1914366   1.084   4.806  10.565 -0.0228  0.1709 -0.1158
  110CHL1  H19A14367   1.131   4.885  10.502 -0.5276 -1.1588 -2.2656
  110CHL1  H19B14368   1.095   4.817  10.675  1.6875  2.0804 -0.3964
  110CHL1  H19C14369   1.133   4.711  10.536  1.6576  0.2543  2.1870
  110CHL1    C114370   0.874   4.942  10.566 -0.2603  0.6761  0.4830
  110CHL1   H1A14371   0.932   5.012  10.502 -0.7318  0.2192 -0.4684
  110CHL1   H1B14372   0.767   4.936  10.535 -0.7138  2.4602  1.5338
  110CHL1    C214373   0.872   4.982  10.719  0.7485 -0.2385  0.1343
  110CHL1   H2A14374   0.810   5.074  10.729  2.6203  1.2366 -1.1266
  110CHL1   H2B14375   0.967   5.006  10.771  0.6139  0.4821  0.0519
  110CHL1   C2014376   1.017   4.596   9.855 -0.4920  0.2436 -0.2410
  110CHL1   H2014377   1.125   4.575   9.875 -0.5718  0.6213  0.6629
  110CHL1   C2114378   1.000   4.739   9.808 -0.0064  0.5981  0.4805
  110CHL1  H21A14379   1.047   4.763   9.711 -2.6916 -0.5259 -1.2054
  110CHL1  H21B14380   1.044   4.813   9.878 -0.7179  1.2474  0.2630
  110CHL1  H21C14381   0.891   4.761   9.799 -0.2250 -0.5447  0.2825
  110CHL1   C2214382   0.967   4.492   9.755  0.0794  0.0416 -0.0539
  110CHL1  H22A14383   0.980   4.387   9.790 -1.3704 -0.6604 -1.5127
  110CHL1  H22B14384   0.856   4.498   9.752 -0.0365 -1.4795  0.1557
  110CHL1   C2314385   1.026   4.500   9.613  0.2577 -0.6182 -0.0923
  110CHL1  H23A14386   1.006   4.594   9.557 -1.2340 -1.1674 -0.5072
  110CHL1  H23B14387   1.136   4.505   9.628  0.4990 -1.3201 -1.5178
  110CHL1   C2414388   0.982   4.397   9.518 -0.1628  0.3265 -0.6007
  110CHL1  H24A14389   1.000   4.299   9.567 -0.8466 -0.0380 -1.0573
  110CHL1  H24B14390   0.875   4.422   9.506 -0.3715  0.8948  1.8934
  110CHL1   C2514391   1.066   4.394   9.389 -0.0644  0.1593  0.5603
  110CHL1   H2514392   1.175   4.404   9.406  0.6155 -2.4161 -1.6169
  110CHL1   C2614393   1.042   4.257   9.322  0.1873  0.1652  0.1497
  110CHL1  H26A14394   1.091   4.182   9.387  2.0909  1.8752  0.8044
  110CHL1  H26B14395   0.932   4.245   9.313 -0.4101  3.4461  1.4052
  110CHL1  H26C14396   1.086   4.256   9.220 -1.0553 -1.1875 -0.4074
  110CHL1   C2714397   1.029   4.513   9.295 -0.0464  0.0516 -0.0681
  110CHL1  H27A14398   0.925   4.505   9.258 -0.9376 -0.2931  2.3399
  110CHL1  H27B14399   1.049   4.607   9.351  1.3390  0.0570 -0.5287
  110CHL1  H27C14400   1.087   4.512   9.200  0.0014  2.7102 -0.1451
  111CHL1    C314401   2.586   0.088  10.798  0.1896  0.0211  0.2464
  111CHL1    H314402   2.636  -0.006  10.766 -0.5282 -0.5261  0.7199
  111CHL1    O314403   2.644   0.146  10.918 -0.1341 -0.1107  0.4272
  111CHL1   H3'14404   2.594   0.227  10.936 -0.0270  0.6323 -2.2209
  111CHL1    C414405   2.581   0.200  10.687  0.5095  0.5017 -0.9017
  111CHL1   H4A14406   2.535   0.294  10.726 -0.3333  0.2474 -1.2616
  111CHL1   H4B14407   2.686   0.232  10.669  0.2651  2.1130  0.2115
  111CHL1    C514408   2.512   0.155  10.564  0.3914  0.1016 -0.7589
  111CHL1    C614409   2.574   0.162  10.448 -0.2725 -0.5207  0.3533
  111CHL1    H614410   2.671   0.214  10.448 -0.6994  0.5818  4.2909
  111CHL1    C714411   2.504   0.120  10.321  0.4134  0.3768 -0.1712
  111CHL1   H7A14412   2.525   0.196  10.242 -0.6117  0.6090 -0.2391
  111CHL1   H7B14413   2.543   0.024  10.280  0.7998  0.9370 -1.1646
  111CHL1    C814414   2.355   0.116  10.338  0.0610 -0.4624  0.2248
  111CHL1    H814415   2.319   0.220  10.356 -1.0139 -0.5689 -1.1440
  111CHL1   C1414416   2.290   0.067  10.212  0.3671 -0.8520 -0.1737
  111CHL1   H1414417   2.320  -0.040  10.208 -0.6168 -1.1306 -0.3333
  111CHL1   C1514418   2.316   0.126  10.075  0.3812 -0.1194 -0.6416
  111CHL1  H15A14419   2.315   0.237  10.080  1.8764 -0.0688 -1.0114
  111CHL1  H15B14420   2.411   0.089  10.032  0.3168 -1.0104 -0.0623
  111CHL1   C1614421   2.201   0.083   9.986  0.2296  0.2398 -0.3844
  111CHL1  H16A14422   2.158   0.176   9.944 -0.0492  1.2866  2.0242
  111CHL1  H16B14423   2.243   0.015   9.909  1.5813  0.4920  0.1073
  111CHL1   C1714424   2.097   0.010  10.077  0.2379 -0.6755 -0.3353
  111CHL1   H1714425   2.115  -0.099  10.074 -0.9249 -0.8562 -1.4014
  111CHL1   C1314426   2.140   0.055  10.217 -0.0123  0.4032 -0.4709
  111CHL1   C1814427   2.082   0.199  10.241  0.2890 -0.6188  0.0340
  111CHL1  H18A14428   2.127   0.243  10.333 -0.8383 -0.3634  0.4816
  111CHL1  H18B14429   2.100   0.258  10.149  0.2592 -2.1826 -0.9947
  111CHL1  H18C14430   1.971   0.196  10.246  0.2244  1.1519  0.4539
  111CHL1   C1214431   2.101  -0.047  10.330  0.2406 -0.0229 -0.1946
  111CHL1  H12A14432   1.990  -0.058  10.327  0.3674 -1.3004 -1.6995
  111CHL1  H12B14433   2.158  -0.140  10.312 -1.4050 -0.7198 -2.3123
  111CHL1   C1114434   2.152   0.002  10.470 -0.3027 -0.1182 -0.3485
  111CHL1  H11A14435   2.093   0.089  10.506 -0.2579 -0.4795  0.6205
  111CHL1  H11B14436   2.141  -0.077  10.547  0.6222  1.0213  1.0097
  111CHL1    C914437   2.309   0.038  10.460  0.1788  0.0758 -0.0218
  111CHL1    H914438   2.356  -0.062  10.449 -0.7750 -0.1994 -1.8940
  111CHL1   C1014439   2.370   0.095  10.589 -0.7541 -0.7651 -0.2496
  111CHL1   C1914440   2.287   0.222  10.630  0.0389 -0.0251  0.3286
  111CHL1  H19A14441   2.190   0.181  10.666  0.2346  0.3708  1.3330
  111CHL1  H19B14442   2.339   0.286  10.703  1.4150 -1.6630  0.8542
  111CHL1  H19C14443   2.268   0.297  10.550 -0.7061 -0.6678 -0.1264
  111CHL1    C114444   2.382  -0.009  10.698  0.2267 -0.0953  0.4470
  111CHL1   H1A14445   2.278  -0.047  10.712 -0.1231  0.2410 -1.0296
  111CHL1   H1B14446   2.440  -0.098  10.664  0.8762  0.3634  0.3453
  111CHL1    C214447   2.443   0.042  10.830 -0.3905 -0.5199 -0.5668
  111CHL1   H2A14448   2.434  -0.040  10.904  0.7879  0.0774  0.2660
  111CHL1   H2B14449   2.380   0.127  10.865  0.5151 -0.6778  1.6029
  111CHL1   C2014450   1.950   0.008  10.032  0.0790 -0.2553 -0.2592
  111CHL1   H2014451   1.900  -0.001  10.131  0.5116 -0.6612 -0.0728
  111CHL1   C2114452   1.925  -0.111   9.941 -0.1297 -0.1106 -0.2186
  111CHL1  H21A14453   1.819  -0.107   9.908 -0.7377  2.0000  1.7279
  111CHL1  H21B14454   1.945  -0.203  10.000 -0.4906 -0.3534 -0.4701
  111CHL1  H21C14455   1.995  -0.106   9.856 -0.8096  1.5779 -0.7310
  111CHL1   C2214456   1.896   0.141   9.966  0.0478  1.2277  0.7254
  111CHL1  H22A14457   1.931   0.219  10.037  1.6333  1.5697 -0.3637
  111CHL1  H22B14458   1.942   0.159   9.866  1.8474 -0.5599  1.1768
  111CHL1   C2314459   1.745   0.154   9.952  0.4911  0.6423 -0.2110
  111CHL1  H23A14460   1.711   0.071   9.887  2.3579 -0.1334 -0.2355
  111CHL1  H23B14461   1.692   0.135  10.048  1.8051  2.2574  0.8838
  111CHL1   C2414462   1.713   0.298   9.901  0.3055 -0.9399 -0.8849
  111CHL1  H24A14463   1.771   0.362   9.971  0.9547 -1.1523 -1.2306
  111CHL1  H24B14464   1.763   0.310   9.803  1.8844 -2.1812 -0.2797
  111CHL1   C2514465   1.565   0.328   9.899  0.3961  0.1296 -0.3466
  111CHL1   H2514466   1.519   0.329  10.000  0.1526  2.2392 -0.4244
  111CHL1   C2614467   1.544   0.462   9.822 -0.7713 -0.3612 -0.7113
  111CHL1  H26A14468   1.619   0.536   9.857  0.3650 -0.7304 -2.2284
  111CHL1  H26B14469   1.569   0.459   9.713  0.8186  1.1859 -0.4415
  111CHL1  H26C14470   1.442   0.503   9.836 -0.4560  1.1842 -2.5479
  111CHL1   C2714471   1.484   0.214   9.835  0.5372  0.2556  0.2795
  111CHL1  H27A14472   1.385   0.249   9.799  1.2438  0.7222 -1.3135
  111CHL1  H27B14473   1.531   0.181   9.740 -0.1207  0.6564 -0.1922
  111CHL1  H27C14474   1.477   0.120   9.894 -1.1447  0.3246  0.2188
  112CHL1    C314475   4.401   0.423  10.502 -0.2113 -0.9259 -0.1305
  112CHL1    H314476   4.511   0.429  10.484  0.3322 -3.2541  1.9686
  112CHL1    O314477   4.379   0.432  10.642  0.4038 -0.1139  0.0542
  112CHL1   H3'14478   4.387   0.525  10.664 -1.9426 -0.1640  1.4675
  112CHL1    C414479   4.326   0.537  10.431  0.3536 -0.4827  0.0253
  112CHL1   H4A14480   4.218   0.534  10.457  0.7521 -1.7246  1.6809
  112CHL1   H4B14481   4.369   0.631  10.473 -1.2348 -0.9564  2.9849
  112CHL1    C514482   4.339   0.528  10.282 -0.4647 -0.2175 -0.6915
  112CHL1    C614483   4.392   0.621  10.206 -0.1411 -0.0771  0.0767
  112CHL1    H614484   4.430   0.711  10.258 -0.0047  0.9151 -1.6469
  112CHL1    C714485   4.434   0.618  10.059 -0.1682  0.5919  0.7343
  112CHL1   H7A14486   4.396   0.710  10.010  1.3579  0.9361  0.1453
  112CHL1   H7B14487   4.544   0.609  10.044 -0.4053 -0.8419 -0.3651
  112CHL1    C814488   4.365   0.503   9.987 -0.5218  0.1170  0.2101
  112CHL1    H814489   4.262   0.540   9.968  0.0247  0.9329 -1.2931
  112CHL1   C1414490   4.437   0.471   9.857  0.1467  0.5215 -0.3617
  112CHL1   H1414491   4.536   0.436   9.891  0.0599  1.3090  0.7749
  112CHL1   C1514492   4.459   0.572   9.749  0.4587 -1.1955  0.6299
  112CHL1  H15A14493   4.369   0.637   9.753  0.2084 -1.5579  3.6304
  112CHL1  H15B14494   4.542   0.644   9.768 -1.1526  0.8326  0.3304
  112CHL1   C1614495   4.492   0.497   9.622 -0.3286 -0.5466  0.5102
  112CHL1  H16A14496   4.428   0.535   9.540  3.0124  1.8034 -1.2674
  112CHL1  H16B14497   4.594   0.517   9.582 -0.7185 -1.6146 -1.1433
  112CHL1   C1714498   4.466   0.346   9.655  0.1916  0.4348  0.6091
  112CHL1   H1714499   4.567   0.313   9.688  0.5021 -0.2409 -0.9296
  112CHL1   C1314500   4.379   0.348   9.778  0.1968 -1.0671  0.6419
  112CHL1   C1814501   4.235   0.393   9.734  0.0630  0.2842  0.4367
  112CHL1  H18A14502   4.168   0.310   9.700  0.9227 -0.3435  0.2444
  112CHL1  H18B14503   4.170   0.433   9.815 -1.1828  0.3171 -0.5509
  112CHL1  H18C14504   4.235   0.476   9.660 -3.6608  1.2172  1.2587
  112CHL1   C1214505   4.390   0.221   9.859  0.2181 -0.8459 -0.5574
  112CHL1  H12A14506   4.345   0.135   9.805  0.3437 -0.4921 -1.2405
  112CHL1  H12B14507   4.495   0.198   9.886 -0.4879 -1.6933  1.7499
  112CHL1   C1114508   4.320   0.253   9.997  0.9609  0.1052 -0.4568
  112CHL1  H11A14509   4.213   0.265   9.971  0.6611  0.6957  0.9413
  112CHL1  H11B14510   4.336   0.166  10.065 -1.4580 -0.5178 -0.5818
  112CHL1    C914511   4.363   0.379  10.070 -0.3515  0.6512 -0.5053
  112CHL1    H914512   4.471   0.356  10.080 -0.3652  0.9441  0.4464
  112CHL1   C1014513   4.302   0.394  10.216 -0.6890 -0.0515 -0.3131
  112CHL1   C1914514   4.148   0.369  10.204  0.0481  0.3034 -0.1793
  112CHL1  H19A14515   4.088   0.383  10.296 -0.8839 -1.1080 -0.5349
  112CHL1  H19B14516   4.098   0.430  10.126 -1.2064  0.5153  0.7468
  112CHL1  H19C14517   4.137   0.261  10.180  0.8078  0.2879 -0.5020
  112CHL1    C114518   4.375   0.284  10.301 -0.2925 -0.3016 -0.1676
  112CHL1   H1A14519   4.334   0.186  10.269 -2.8982  1.5144 -3.0041
  112CHL1   H1B14520   4.481   0.274  10.271  0.1950 -1.5391  1.7780
  112CHL1    C214521   4.352   0.291  10.455 -0.0450  0.0832  0.3102
  112CHL1   H2A14522   4.410   0.217  10.514 -2.4665 -0.2107  2.5252
  112CHL1   H2B14523   4.246   0.272  10.484 -1.2499  2.5999 -1.9482
  112CHL1   C2014524   4.421   0.256   9.542  0.2611  0.2004 -0.2072
  112CHL1   H2014525   4.395   0.154   9.577 -0.8950  0.3697 -0.5363
  112CHL1   C2114526   4.544   0.243   9.450  0.3343 -0.5286  0.4088
  112CHL1  H21A14527   4.528   0.162   9.376 -1.2490  0.9532 -0.9452
  112CHL1  H21B14528   4.637   0.220   9.507 -0.6241 -0.3744  2.0955
  112CHL1  H21C14529   4.555   0.341   9.399  2.0920 -0.7761  0.2471
  112CHL1   C2214530   4.309   0.296   9.445  0.4595 -0.4970 -0.3563
  112CHL1  H22A14531   4.254   0.389   9.469 -2.2968 -2.1433  0.1253
  112CHL1  H22B14532   4.355   0.307   9.345 -0.9665 -0.9030 -1.0859
  112CHL1   C2314533   4.204   0.184   9.424 -0.7872  0.0190  0.1298
  112CHL1  H23A14534   4.256   0.102   9.368  0.1166  0.7749 -0.1652
  112CHL1  H23B14535   4.167   0.145   9.521  0.6162 -1.2904  0.1765
  112CHL1   C2414536   4.083   0.232   9.341  0.5119 -0.3181  0.0945
  112CHL1  H24A14537   4.026   0.302   9.406 -1.1967 -1.3824 -0.1944
  112CHL1  H24B14538   4.122   0.280   9.249 -2.0031  1.4923 -0.1043
  112CHL1   C2514539   3.993   0.110   9.300 -0.1965  0.0101 -0.3528
  112CHL1   H2514540   3.895   0.148   9.265  0.4615  0.6819 -1.5446
  112CHL1   C2614541   4.060   0.043   9.175  0.2581  0.5127 -0.7229
  112CHL1  H26A14542   4.002  -0.047   9.145 -2.0337  1.2294  1.2492
  112CHL1  H26B14543   4.062   0.111   9.087  1.5127 -0.6323 -1.6114
  112CHL1  H26C14544   4.166   0.015   9.192  0.0202  0.6128  1.0950
  112CHL1   C2714545   3.964   0.005   9.407  0.4829  0.4045 -0.6095
  112CHL1  H27A14546   4.056  -0.054   9.428 -0.9254 -1.9398 -0.6595
  112CHL1  H27B14547   3.928   0.048   9.503 -0.9564 -1.6143 -0.1665
  112CHL1  H27C14548   3.882  -0.062   9.374 -0.3684  1.0791  0.0858
  113CHL1    C314549   0.563   4.048  10.604 -0.6467 -0.0180  0.9568
  113CHL1    H314550   0.578   3.945  10.566  0.7113  0.0848  1.1614
  113CHL1    O314551   0.575   4.052  10.745 -0.9352 -0.5452 -0.4130
  113CHL1   H3'14552   0.488   4.065  10.784 -0.6279  1.1678 -0.2268
  113CHL1    C414553   0.679   4.133  10.550 -0.8624 -0.5170  0.0918
  113CHL1   H4A14554   0.673   4.239  10.585 -0.4528 -0.7204  0.8193
  113CHL1   H4B14555   0.778   4.103  10.590 -0.9872  1.3684  2.0589
  113CHL1    C514556   0.674   4.130  10.398  0.4584  0.2696  0.0564
  113CHL1    C614557   0.774   4.070  10.333  0.5948  0.2628  0.0988
  113CHL1    H614558   0.858   4.025  10.388 -1.6180 -3.0071  1.0744
  113CHL1    C714559   0.773   4.051  10.184 -0.1697 -0.3056 -0.1243
  113CHL1   H7A14560   0.876   4.075  10.150 -0.1749  0.0971  0.1397
  113CHL1   H7B14561   0.768   3.942  10.165  0.7777 -0.0757 -1.8734
  113CHL1    C814562   0.671   4.135  10.102  0.0267  0.1531 -0.0294
  113CHL1    H814563   0.710   4.238  10.085  3.0256 -1.2800 -3.1264
  113CHL1   C1414564   0.638   4.080   9.962 -0.7350 -0.4677  0.0968
  113CHL1   H1414565   0.592   3.979   9.969  3.1947 -2.4208  0.9632
  113CHL1   C1514566   0.758   4.046   9.871 -0.3070  0.0193 -0.0862
  113CHL1  H15A14567   0.812   4.141   9.853  1.0564 -1.0359 -1.8752
  113CHL1  H15B14568   0.819   3.960   9.905 -1.8298 -1.1993 -0.3052
  113CHL1   C1614569   0.695   4.025   9.736 -0.0691  0.1693 -0.1450
  113CHL1  H16A14570   0.738   4.068   9.643 -2.5589 -3.0648 -3.0380
  113CHL1  H16B14571   0.708   3.916   9.722 -1.5886 -0.5979  3.2871
  113CHL1   C1714572   0.548   4.065   9.747  0.1410 -0.7996  0.3750
  113CHL1   H1714573   0.489   3.973   9.764 -1.2441 -0.2062 -1.0100
  113CHL1   C1314574   0.535   4.157   9.869 -0.0951  0.2590 -0.0490
  113CHL1   C1814575   0.592   4.300   9.835  0.0055  0.8785  0.2750
  113CHL1  H18A14576   0.526   4.360   9.769  1.6598  1.9964 -0.4324
  113CHL1  H18B14577   0.591   4.352   9.934  1.1515 -0.3357  0.9519
  113CHL1  H18C14578   0.697   4.303   9.801  0.5997  1.6471  2.0504
  113CHL1   C1214579   0.407   4.168   9.950  0.3510  0.1643  0.1290
  113CHL1  H12A14580   0.332   4.224   9.891 -0.9183 -2.5499 -1.0092
  113CHL1  H12B14581   0.373   4.062   9.958  0.1596  0.2368  0.2756
  113CHL1   C1114582   0.425   4.222  10.094 -0.6409 -0.3202  0.0904
  113CHL1  H11A14583   0.457   4.328  10.083 -1.5559 -0.0977 -0.5425
  113CHL1  H11B14584   0.328   4.208  10.147 -0.4337 -2.4340  0.0103
  113CHL1    C914585   0.534   4.141  10.176 -0.9494  0.3368 -0.5563
  113CHL1    H914586   0.497   4.037  10.164 -2.2619  0.5392  1.3790
  113CHL1   C1014587   0.544   4.178  10.330 -0.2712 -0.1274  0.6034
  113CHL1   C1914588   0.543   4.327  10.340 -0.4965  0.0499 -0.1239
  113CHL1  H19A14589   0.439   4.362  10.325 -0.5793 -0.0983  0.1132
  113CHL1  H19B14590   0.568   4.369  10.440 -1.3281  1.7008 -0.5690
  113CHL1  H19C14591   0.600   4.384  10.263  1.7785  2.0728  2.8439
  113CHL1    C114592   0.423   4.116  10.407  0.3207  0.3167 -0.7662
  113CHL1   H1A14593   0.331   4.170  10.379  2.1460  3.3080 -1.4887
  113CHL1   H1B14594   0.422   4.009  10.375  3.4919 -0.0270 -0.0856
  113CHL1    C214595   0.432   4.109  10.565 -0.2544 -0.2771 -0.1128
  113CHL1   H2A14596   0.350   4.053  10.613 -0.5854 -0.0251 -0.3822
  113CHL1   H2B14597   0.450   4.215  10.595 -0.1041 -0.5826  0.8908
  113CHL1   C2014598   0.489   4.120   9.614  0.3480  0.1305 -0.1100
  113CHL1   H2014599   0.553   4.208   9.594  2.1292 -1.3230 -1.1062
  113CHL1   C2114600   0.337   4.151   9.610  0.4047 -0.0705  0.1475
  113CHL1  H21A14601   0.275   4.062   9.632 -1.8075  0.4219 -3.4075
  113CHL1  H21B14602   0.316   4.176   9.504 -0.6725  1.6471  0.7206
  113CHL1  H21C14603   0.309   4.243   9.666  0.2494  1.5368 -2.4222
  113CHL1   C2214604   0.526   4.027   9.494  0.4865 -0.9387  0.4876
  113CHL1  H22A14605   0.507   4.082   9.400  2.9247 -1.6679 -0.5163
  113CHL1  H22B14606   0.636   4.011   9.485  0.7391  0.9488 -0.3468
  113CHL1   C2314607   0.452   3.889   9.499  0.3716  0.4487  0.5465
  113CHL1  H23A14608   0.472   3.838   9.595  0.6499 -1.4880 -0.4867
  113CHL1  H23B14609   0.343   3.907   9.504  0.1461 -0.7121  0.0115
  113CHL1   C2414610   0.480   3.793   9.382 -0.2674  0.0505  0.8157
  113CHL1  H24A14611   0.460   3.857   9.293 -0.3976 -0.5952  0.3737
  113CHL1  H24B14612   0.581   3.747   9.373  0.1678  1.2912 -1.3759
  113CHL1   C2514613   0.378   3.677   9.386  0.9501 -0.5199  0.0679
  113CHL1   H2514614   0.411   3.604   9.309  0.2615 -1.1105  0.3127
  113CHL1   C2614615   0.369   3.600   9.522 -0.7215  0.4586  0.0923
  113CHL1  H26A14616   0.331   3.665   9.603  2.6361  0.0017  2.1999
  113CHL1  H26B14617   0.297   3.516   9.535  0.5095 -0.2743  2.7140
  113CHL1  H26C14618   0.473   3.560   9.526 -1.1080 -0.9362 -1.7726
  113CHL1   C2714619   0.233   3.717   9.345  0.4647  0.5667  0.0604
  113CHL1  H27A14620   0.223   3.760   9.243  2.3576  1.1990  0.1074
  113CHL1  H27B14621   0.169   3.627   9.358 -0.3819  1.1415 -0.0044
  113CHL1  H27C14622   0.188   3.788   9.418 -0.1742 -0.4704  0.6955
  114CHL1    C314623   5.143   6.729  10.434  0.2456  0.3005 -0.0703
  114CHL1    H314624   5.222   6.713  10.359 -0.1715  0.1774 -0.4842
  114CHL1    O314625   5.197   6.766  10.557 -0.1290  0.0878  0.0901
  114CHL1   H3'14626   5.123   6.794  10.611 -0.3111  1.5183 -0.8295
  114CHL1    C414627   5.053   6.843  10.397 -0.0220  0.1577  1.5562
  114CHL1   H4A14628   4.967   6.866  10.463 -0.6468 -0.8163  1.0939
  114CHL1   H4B14629   5.112   6.937  10.384  0.1844 -0.3367 -2.0920
  114CHL1    C514630   4.997   6.812  10.257  0.0031  0.1940  0.2873
  114CHL1    C614631   5.021   6.888  10.146  0.1960 -0.1776  0.1266
  114CHL1    H614632   5.080   6.981  10.148  1.1614 -0.7106 -1.5662
  114CHL1    C714633   4.940   6.867  10.021 -0.8546 -0.4105  0.4619
  114CHL1   H7A14634   4.905   6.971  10.009  0.7917  0.3824  2.0326
  114CHL1   H7B14635   5.014   6.856   9.940 -1.5067  2.3298 -0.6249
  114CHL1    C814636   4.832   6.763  10.026 -0.1149  1.1164 -0.4753
  114CHL1    H814637   4.733   6.796  10.065 -0.7557 -1.1085 -0.0985
  114CHL1   C1414638   4.800   6.715   9.882 -0.2666 -0.3984 -0.3144
  114CHL1   H1414639   4.903   6.689   9.848 -0.1523  0.6625 -0.8122
  114CHL1   C1514640   4.757   6.833   9.786  0.5234  0.2624 -0.6007
  114CHL1  H15A14641   4.676   6.899   9.825  1.8449  1.7985 -0.3698
  114CHL1  H15B14642   4.845   6.889   9.750  1.5812 -1.2022 -0.3936
  114CHL1   C1614643   4.704   6.746   9.667 -1.0120 -0.4319 -0.1132
  114CHL1  H16A14644   4.599   6.779   9.649 -0.6295 -0.4840 -2.7536
  114CHL1  H16B14645   4.735   6.778   9.566 -1.2884  2.4538  0.6216
  114CHL1   C1714646   4.710   6.596   9.704  0.3714 -0.3839 -0.0364
  114CHL1   H1714647   4.813   6.568   9.674  0.9932  2.9004 -1.4412
  114CHL1   C1314648   4.702   6.599   9.859 -0.6526  0.5096 -0.2368
  114CHL1   C1814649   4.566   6.644   9.910  0.7522  0.3101 -0.0719
  114CHL1  H18A14650   4.546   6.615  10.015  2.0445 -0.2495  0.0347
  114CHL1  H18B14651   4.561   6.755   9.909  1.3962  0.3940  1.9924
  114CHL1  H18C14652   4.480   6.602   9.853  0.7285 -1.2531  1.0722
  114CHL1   C1214653   4.762   6.480   9.939 -0.3012 -0.3833  0.6102
  114CHL1  H12A14654   4.701   6.387   9.930 -1.0318  0.2812 -2.3774
  114CHL1  H12B14655   4.854   6.448   9.887 -1.7182 -3.3045 -0.3052
  114CHL1   C1114656   4.792   6.517  10.083  0.0457 -1.1624 -0.0545
  114CHL1  H11A14657   4.689   6.528  10.123 -0.3613  1.8135 -1.6656
  114CHL1  H11B14658   4.845   6.429  10.126  1.1845 -0.4472  0.0375
  114CHL1    C914659   4.882   6.640  10.106  0.0856  0.6882 -0.3918
  114CHL1    H914660   4.984   6.614  10.071  0.2316 -0.2262  0.6843
  114CHL1   C1014661   4.914   6.674  10.256 -0.6585  0.5001 -0.3128
  114CHL1   C1914662   4.779   6.687  10.331 -0.2917 -0.2276  0.6160
  114CHL1  H19A14663   4.728   6.777  10.292  2.3562  1.9157  1.8122
  114CHL1  H19B14664   4.714   6.597  10.318 -1.3176  0.9254 -3.4424
  114CHL1  H19C14665   4.789   6.698  10.441 -0.3172  2.7559  0.3838
  114CHL1    C114666   5.000   6.560  10.315  0.0139  0.2314  0.3858
  114CHL1   H1A14667   4.938   6.473  10.346  0.7894  0.0402  1.4598
  114CHL1   H1B14668   5.076   6.518  10.246  1.8792 -2.9324  3.9633
  114CHL1    C214669   5.078   6.595  10.444  0.1371  0.3450  0.7789
  114CHL1   H2A14670   5.162   6.523  10.452  0.8502  1.0572 -0.1311
  114CHL1   H2B14671   5.015   6.590  10.536  0.4728 -2.5419  0.9386
  114CHL1   C2014672   4.603   6.524   9.621  0.3995  0.0072  0.0130
  114CHL1   H2014673   4.503   6.566   9.643  0.6957  0.3566  0.7354
  114CHL1   C2114674   4.613   6.380   9.673  0.4075 -0.1997  0.5199
  114CHL1  H21A14675   4.558   6.387   9.769 -1.0968  0.2906 -0.3510
  114CHL1  H21B14676   4.717   6.343   9.686  1.1184  1.2728 -0.6646
  114CHL1  H21C14677   4.561   6.307   9.608 -0.4580  1.1432 -0.3288
  114CHL1   C2214678   4.623   6.534   9.467  0.7917 -0.7901 -0.0749
  114CHL1  H22A14679   4.618   6.643   9.449  1.0066 -0.8151 -0.2865
  114CHL1  H22B14680   4.727   6.500   9.444  1.0703 -1.0009  1.3934
  114CHL1   C2314681   4.516   6.471   9.372 -0.4025 -0.6660  0.0136
  114CHL1  H23A14682   4.539   6.364   9.352  0.7276 -0.6934  1.2991
  114CHL1  H23B14683   4.416   6.463   9.418 -0.0052  0.4492  1.1373
  114CHL1   C2414684   4.509   6.537   9.237  0.4187  0.1463  0.5147
  114CHL1  H24A14685   4.422   6.487   9.190  0.6173  1.3187 -1.1558
  114CHL1  H24B14686   4.494   6.647   9.234  2.6405  0.5730 -4.6158
  114CHL1   C2514687   4.623   6.514   9.143  0.0733  0.3693  0.2765
  114CHL1   H2514688   4.713   6.517   9.208 -0.5730 -0.9506  1.2672
  114CHL1   C2614689   4.603   6.382   9.070 -1.2430  0.4059 -0.2554
  114CHL1  H26A14690   4.696   6.355   9.016 -1.0407 -0.1221  0.3459
  114CHL1  H26B14691   4.573   6.301   9.140  0.0125 -0.1801 -0.3733
  114CHL1  H26C14692   4.522   6.391   8.994 -0.3776  0.4706 -1.1869
  114CHL1   C2714693   4.632   6.628   9.042 -0.1146 -0.2927  0.3809
  114CHL1  H27A14694   4.712   6.609   8.967 -1.6484 -2.5892 -0.8227
  114CHL1  H27B14695   4.535   6.639   8.987  0.5294 -1.3765 -1.0417
  114CHL1  H27C14696   4.642   6.716   9.108 -1.5249 -0.6050  1.0526
  115CHL1    C314697   2.101   0.604  10.974  0.3059 -0.3769 -0.4391
  115CHL1    H314698   2.206   0.620  10.941  0.7693  2.6658  2.0294
  115CHL1    O314699   2.124   0.582  11.112  0.0184 -0.6492  0.1041
  115CHL1   H3'14700   2.040   0.581  11.159 -0.0416  1.5578  0.1360
  115CHL1    C414701   2.026   0.740  10.953  0.1061 -0.2190  0.2008
  115CHL1   H4A14702   1.925   0.729  10.997  0.5743  0.4965  1.5190
  115CHL1   H4B14703   2.088   0.810  11.013 -1.6577  1.4261  0.1901
  115CHL1    C514704   2.023   0.762  10.801  0.1790 -0.4283 -0.0536
  115CHL1    C614705   2.070   0.881  10.752 -0.0633  0.1731  0.7871
  115CHL1    H614706   2.101   0.958  10.824 -1.0780  1.6825 -0.3085
  115CHL1    C714707   2.061   0.922  10.610 -0.0738  0.3281  0.7536
  115CHL1   H7A14708   2.022   1.025  10.592 -1.2808 -0.1953  0.2072
  115CHL1   H7B14709   2.166   0.934  10.576  0.2745  0.4689  1.8379
  115CHL1    C814710   2.002   0.817  10.517 -0.0105 -0.2856 -0.0852
  115CHL1    H814711   1.893   0.839  10.520 -0.1602 -1.1255  1.0886
  115CHL1   C1414712   2.042   0.831  10.371  0.3023  0.2088 -0.2858
  115CHL1   H1414713   2.150   0.806  10.369 -0.0286 -2.1083  2.7736
  115CHL1   C1514714   2.018   0.970  10.304  0.1449  0.0072 -0.0274
  115CHL1  H15A14715   1.923   1.018  10.337  0.3403 -0.8881  2.0050
  115CHL1  H15B14716   2.104   1.035  10.331  1.3044 -0.0173 -3.3352
  115CHL1   C1614717   2.003   0.933  10.153  0.5777  0.0053  0.1463
  115CHL1  H16A14718   1.896   0.947  10.127  0.2388 -1.1409  0.8736
  115CHL1  H16B14719   2.071   0.984  10.080 -0.6816  2.0730  0.3219
  115CHL1   C1714720   2.027   0.781  10.148 -0.2615 -0.1574  0.8266
  115CHL1   H1714721   2.138   0.774  10.148 -0.3036 -1.2809 -0.5165
  115CHL1   C1314722   1.981   0.726  10.273  0.2195 -0.1760 -0.3504
  115CHL1   C1814723   1.824   0.732  10.271 -0.0172 -0.1055 -0.4685
  115CHL1  H18A14724   1.772   0.736  10.369 -0.3108  0.3959 -0.6420
  115CHL1  H18B14725   1.792   0.825  10.220 -1.8793 -1.7523 -2.4736
  115CHL1  H18C14726   1.782   0.653  10.205 -4.0966  1.5950 -0.1559
  115CHL1   C1214727   2.016   0.583  10.313  0.1438  0.0136  0.2239
  115CHL1  H12A14728   1.947   0.521  10.252  0.2563  0.5467 -0.4656
  115CHL1  H12B14729   2.122   0.564  10.288  0.8423 -0.4601  3.1522
  115CHL1   C1114730   1.983   0.562  10.460 -0.0881  0.1262 -0.0939
  115CHL1  H11A14731   1.872   0.555  10.463  0.0200 -2.8488  0.9437
  115CHL1  H11B14732   2.015   0.465  10.504 -0.8511  0.6352  1.6786
  115CHL1    C914733   2.028   0.668  10.559 -0.1246  0.1563 -1.2179
  115CHL1    H914734   2.139   0.672  10.566 -0.2124  3.2857  0.3201
  115CHL1   C1014735   1.978   0.649  10.704 -0.3102 -0.2095 -0.6053
  115CHL1   C1914736   1.824   0.641  10.713 -0.4697  0.4306  0.7057
  115CHL1  H19A14737   1.771   0.734  10.681  0.4811  1.5383  2.2253
  115CHL1  H19B14738   1.792   0.559  10.646  0.1935  2.9382 -3.0321
  115CHL1  H19C14739   1.792   0.629  10.818 -1.9348 -0.7253  0.1601
  115CHL1    C114740   2.030   0.513  10.753  0.2340  0.1092 -0.5004
  115CHL1   H1A14741   1.972   0.430  10.705  0.0091  1.1497 -2.1169
  115CHL1   H1B14742   2.137   0.505  10.725 -0.0189 -2.0107 -1.0338
  115CHL1    C214743   2.037   0.484  10.907  0.7778 -0.0945  0.0011
  115CHL1   H2A14744   2.103   0.398  10.930  0.7996  0.1213  0.7585
  115CHL1   H2B14745   1.937   0.467  10.952  0.4024  1.9362  0.0024
  115CHL1   C2014746   1.989   0.716  10.016  0.2374  0.7053 -0.5483
  115CHL1   H2014747   1.901   0.651  10.032 -0.3931  0.9857 -2.5386
  115CHL1   C2114748   2.100   0.615   9.975 -0.5064 -0.0126  0.2744
  115CHL1  H21A14749   2.119   0.543  10.058  3.4889  1.8838  1.2558
  115CHL1  H21B14750   2.195   0.668   9.952 -0.6848 -0.0331 -0.5636
  115CHL1  H21C14751   2.074   0.556   9.884  1.7764 -0.7348  0.0246
  115CHL1   C2214752   1.941   0.810   9.908 -0.2108 -0.3980 -0.0543
  115CHL1  H22A14753   1.846   0.858   9.940  0.0591  1.1047 -1.3752
  115CHL1  H22B14754   2.020   0.886   9.887 -0.0310 -0.4736  0.3321
  115CHL1   C2314755   1.909   0.746   9.773 -0.6556 -0.0616  0.3537
  115CHL1  H23A14756   2.005   0.723   9.721 -0.3410 -0.5469  1.1333
  115CHL1  H23B14757   1.861   0.645   9.770 -0.5965 -0.0790 -2.2850
  115CHL1   C2414758   1.817   0.834   9.693  0.2407 -0.5471  0.1907
  115CHL1  H24A14759   1.716   0.843   9.739 -0.9517  3.9020 -2.6891
  115CHL1  H24B14760   1.865   0.934   9.697 -0.3298 -0.2449 -0.2908
  115CHL1   C2514761   1.791   0.788   9.553 -0.2894 -0.3849  0.1663
  115CHL1   H2514762   1.892   0.778   9.509  0.7470  1.9027  1.8330
  115CHL1   C2614763   1.731   0.648   9.539  0.0543 -0.7239 -0.3642
  115CHL1  H26A14764   1.753   0.612   9.436  0.2375 -1.3697 -0.1015
  115CHL1  H26B14765   1.770   0.573   9.610  0.3852 -1.5149 -1.3639
  115CHL1  H26C14766   1.620   0.649   9.540 -0.0085  1.8717 -1.3035
  115CHL1   C2714767   1.702   0.885   9.473 -0.4348 -0.3587  0.0071
  115CHL1  H27A14768   1.762   0.973   9.441 -0.4108 -0.4346 -0.1555
  115CHL1  H27B14769   1.673   0.836   9.377  2.2188  1.0399 -1.6338
  115CHL1  H27C14770   1.612   0.914   9.532 -0.3676  0.2724 -0.1946
  116CHL1    C314771   2.432   0.876  10.960 -0.2750 -0.3762  0.3535
  116CHL1    H314772   2.322   0.868  10.947 -0.0757 -1.6738 -0.6048
  116CHL1    O314773   2.455   0.901  11.100 -0.2512  0.4962  0.1668
  116CHL1   H3'14774   2.550   0.888  11.110 -0.1263 -0.3497 -1.7881
  116CHL1    C414775   2.498   0.745  10.917 -0.5901 -0.3481  0.0726
  116CHL1   H4A14776   2.605   0.752  10.946 -0.9545 -0.0724  1.4537
  116CHL1   H4B14777   2.468   0.659  10.981  2.0218 -0.9132  0.6833
  116CHL1    C514778   2.492   0.724  10.761  0.9019  0.0785 -0.4512
  116CHL1    C614779   2.444   0.606  10.714 -0.5894  1.2979 -0.0579
  116CHL1    H614780   2.401   0.532  10.782  0.2130 -0.8993 -1.8020
  116CHL1    C714781   2.434   0.573  10.566 -0.3218 -0.6940 -0.3310
  116CHL1   H7A14782   2.469   0.469  10.549  1.3568 -0.3422  0.7372
  116CHL1   H7B14783   2.323   0.584  10.559 -0.2026  0.3465 -0.6616
  116CHL1    C814784   2.508   0.671  10.471  0.5399 -0.6656 -0.8494
  116CHL1    H814785   2.616   0.647  10.479  0.8833  1.1821  2.0861
  116CHL1   C1414786   2.468   0.662  10.323  0.4786  0.1462 -0.0970
  116CHL1   H1414787   2.362   0.696  10.320  0.8816  2.2181  3.3007
  116CHL1   C1514788   2.471   0.526  10.250  0.1229  0.9659  0.3400
  116CHL1  H15A14789   2.571   0.479  10.261 -1.4481 -2.5511  0.8130
  116CHL1  H15B14790   2.397   0.445  10.268  2.3356 -0.9641  1.3293
  116CHL1   C1614791   2.450   0.564  10.100  0.2616  0.1918  0.3058
  116CHL1  H16A14792   2.511   0.513  10.022 -2.2031 -1.7956 -0.4080
  116CHL1  H16B14793   2.346   0.542  10.071  0.1447 -1.0563  1.5606
  116CHL1   C1714794   2.481   0.714  10.092  0.3427  0.1838 -0.0597
  116CHL1   H1714795   2.383   0.766  10.081  1.1818  1.8876  0.3255
  116CHL1   C1314796   2.544   0.759  10.230  0.2809 -0.7641 -0.3383
  116CHL1   C1814797   2.692   0.724  10.222  0.3038 -0.0064 -0.4069
  116CHL1  H18A14798   2.717   0.624  10.179  2.0670 -0.4704  1.5135
  116CHL1  H18B14799   2.744   0.805  10.166  0.1455  0.4083  0.0412
  116CHL1  H18C14800   2.744   0.737  10.320  2.2711  0.5110 -1.4697
  116CHL1   C1214801   2.527   0.902  10.278 -0.2186  0.2727 -0.2601
  116CHL1  H12A14802   2.603   0.959  10.222  0.6324 -0.8528 -0.2867
  116CHL1  H12B14803   2.422   0.937  10.269 -0.9133 -1.7658 -0.5433
  116CHL1   C1114804   2.562   0.917  10.429  0.4631 -0.2243  0.0063
  116CHL1  H11A14805   2.671   0.895  10.427  0.2606 -1.2650 -0.9771
  116CHL1  H11B14806   2.554   1.021  10.466  1.1250  0.1669 -0.9274
  116CHL1    C914807   2.494   0.815  10.520  0.3262 -0.1561 -0.0011
  116CHL1    H914808   2.384   0.832  10.517  0.5440  1.6364  0.8611
  116CHL1   C1014809   2.532   0.835  10.671 -0.4913  0.2277  0.3242
  116CHL1   C1914810   2.687   0.843  10.682  0.3212 -0.1443 -0.3842
  116CHL1  H19A14811   2.723   0.829  10.786  1.7448  0.7846 -0.7181
  116CHL1  H19B14812   2.729   0.758  10.623 -1.0328 -1.3680  0.3640
  116CHL1  H19C14813   2.729   0.937  10.642  0.5024  0.4046  1.0733
  116CHL1    C114814   2.454   0.954  10.723 -0.4508 -0.7167 -0.8858
  116CHL1   H1A14815   2.485   1.049  10.673 -2.4499 -0.6284 -2.0373
  116CHL1   H1B14816   2.344   0.949  10.719 -0.5628 -0.3570  0.9363
  116CHL1    C214817   2.488   0.991  10.870 -0.4960  0.0405  0.1366
  116CHL1   H2A14818   2.443   1.089  10.896 -0.5501  0.7309 -2.3614
  116CHL1   H2B14819   2.598   0.991  10.884 -0.2083 -3.4528 -1.1694
  116CHL1   C2014820   2.559   0.754   9.959 -0.1028  0.0288 -0.2624
  116CHL1   H2014821   2.658   0.703   9.964 -0.7054 -1.0641  1.3208
  116CHL1   C2114822   2.579   0.908   9.954 -0.2846 -0.4824  0.0540
  116CHL1  H21A14823   2.665   0.933  10.021 -0.4764  0.7127 -0.1205
  116CHL1  H21B14824   2.487   0.949   9.999 -1.2134  0.1595 -2.2647
  116CHL1  H21C14825   2.596   0.952   9.853 -3.1114 -0.9771 -0.7127
  116CHL1   C2214826   2.485   0.708   9.827 -0.4163 -0.2769  0.2571
  116CHL1  H22A14827   2.447   0.605   9.842 -1.1604 -0.3597 -1.8217
  116CHL1  H22B14828   2.396   0.774   9.817  0.5792  1.6879  3.0862
  116CHL1   C2314829   2.569   0.718   9.693  0.3689  0.6379 -0.7792
  116CHL1  H23A14830   2.603   0.823   9.683  2.2634  0.0699 -0.6882
  116CHL1  H23B14831   2.652   0.647   9.710  0.3552  0.6391 -0.7070
  116CHL1   C2414832   2.494   0.687   9.560  0.3171  0.1488  0.1638
  116CHL1  H24A14833   2.454   0.584   9.555 -0.8606  0.6178 -0.4919
  116CHL1  H24B14834   2.403   0.751   9.556  0.5347  0.4125 -1.0799
  116CHL1   C2514835   2.570   0.714   9.429  0.2938  0.4375 -0.6591
  116CHL1   H2514836   2.673   0.673   9.423  0.5461  0.6108  1.5342
  116CHL1   C2614837   2.490   0.646   9.315  0.3121  0.3460 -0.2348
  116CHL1  H26A14838   2.383   0.669   9.297 -0.0698 -2.2694 -1.7964
  116CHL1  H26B14839   2.543   0.670   9.220 -2.3474  0.4420 -1.7863
  116CHL1  H26C14840   2.490   0.536   9.328 -0.0675  0.4556  0.7485
  116CHL1   C2714841   2.584   0.865   9.413 -0.4612  0.5030  0.1701
  116CHL1  H27A14842   2.633   0.916   9.500 -0.3023  0.3055  0.1976
  116CHL1  H27B14843   2.644   0.888   9.322  0.8396  0.3616  0.9513
  116CHL1  H27C14844   2.489   0.917   9.390  1.3584  3.0569 -2.3450
  117CHL1    C314845   4.948   0.481  10.483 -0.3704  0.2898  1.0585
  117CHL1    H314846   5.033   0.545  10.452 -1.0284  0.2325 -1.0329
  117CHL1    O314847   4.921   0.513  10.612  0.1551  0.2975  0.0560
  117CHL1   H3'14848   4.845   0.462  10.641 -0.7439 -0.9585 -3.8954
  117CHL1    C414849   4.829   0.508  10.385 -0.2401 -0.0622  0.7472
  117CHL1   H4A14850   4.739   0.459  10.425 -1.6491  1.5999 -0.2470
  117CHL1   H4B14851   4.819   0.619  10.384  0.5460  0.0252 -0.7088
  117CHL1    C514852   4.856   0.461  10.248  0.1084 -0.2626  0.7494
  117CHL1    C614853   4.854   0.542  10.139 -1.0275  0.1408 -0.3311
  117CHL1    H614854   4.838   0.649  10.161  1.6134  0.6069 -0.3767
  117CHL1    C714855   4.873   0.488   9.998  0.0809 -0.7319  1.5283
  117CHL1   H7A14856   4.794   0.532   9.934  1.1535 -0.1181  0.5958
  117CHL1   H7B14857   4.962   0.528   9.946  0.1461  0.5296  2.5534
  117CHL1    C814858   4.865   0.333   9.983  0.3545 -0.5769  0.0243
  117CHL1    H814859   4.761   0.295   9.981  0.0844  0.1502 -0.1195
  117CHL1   C1414860   4.929   0.302   9.846 -0.1790 -0.2448 -0.3643
  117CHL1   H1414861   5.037   0.324   9.859 -0.3553 -0.8329  2.8893
  117CHL1   C1514862   4.888   0.370   9.717 -0.1493  0.2871  0.2049
  117CHL1  H15A14863   4.778   0.367   9.698  0.0978 -1.8135 -1.2478
  117CHL1  H15B14864   4.926   0.474   9.711 -1.7738  0.8846 -0.4807
  117CHL1   C1614865   4.949   0.279   9.603  0.3953  0.4642  0.2697
  117CHL1  H16A14866   4.860   0.254   9.541 -0.6431  0.8202  1.5693
  117CHL1  H16B14867   5.028   0.329   9.542 -1.8921  2.8491 -0.9698
  117CHL1   C1714868   4.995   0.154   9.676  0.0220 -0.3519 -0.0673
  117CHL1   H1714869   5.099   0.175   9.710 -0.1077  0.3495 -0.0897
  117CHL1   C1314870   4.926   0.155   9.817 -0.3077 -0.2590 -0.1267
  117CHL1   C1814871   4.781   0.095   9.794  0.7356  0.3667 -0.1286
  117CHL1  H18A14872   4.732   0.155   9.714 -0.0115 -1.9451 -1.4751
  117CHL1  H18B14873   4.787  -0.012   9.768 -0.9552  1.1847 -4.7932
  117CHL1  H18C14874   4.723   0.116   9.887  0.2977  1.8400 -0.6899
  117CHL1   C1214875   4.994   0.072   9.927  0.6281  0.3015  0.4917
  117CHL1  H12A14876   4.971  -0.036   9.918 -0.5458  0.6149 -0.7786
  117CHL1  H12B14877   5.104   0.082   9.915  0.8458 -1.2663  1.0010
  117CHL1   C1114878   4.944   0.106  10.066  0.4729  0.3811  0.6233
  117CHL1  H11A14879   4.837   0.077  10.070 -0.3856  2.9415 -1.2930
  117CHL1  H11B14880   5.007   0.055  10.143  0.1858 -0.0278  0.5876
  117CHL1    C914881   4.945   0.262  10.094  0.1769  0.5154 -0.6484
  117CHL1    H914882   5.053   0.289  10.092  0.0803  0.8856 -0.9822
  117CHL1   C1014883   4.897   0.308  10.238 -0.6549  0.0944  0.5779
  117CHL1   C1914884   4.781   0.223  10.283 -0.0839  0.1452 -0.2057
  117CHL1  H19A14885   4.699   0.225  10.208  0.6639  0.2359 -1.0429
  117CHL1  H19B14886   4.815   0.118  10.294 -0.9708 -0.1141  0.1238
  117CHL1  H19C14887   4.742   0.243  10.385  2.3682  1.3141  0.5909
  117CHL1    C114888   5.015   0.282  10.335  0.1887  0.0878 -0.6431
  117CHL1   H1A14889   5.041   0.174  10.338 -0.0879  0.0292 -0.2701
  117CHL1   H1B14890   5.101   0.332  10.285 -0.3822  0.6807 -1.0549
  117CHL1    C214891   4.995   0.332  10.484  0.5877 -0.7845  0.9317
  117CHL1   H2A14892   5.088   0.320  10.544  1.0047 -0.8809  0.2767
  117CHL1   H2B14893   4.908   0.275  10.522  0.5593 -1.6498 -0.3799
  117CHL1   C2014894   5.012   0.025   9.586  0.7145  0.6719 -0.2136
  117CHL1   H2014895   5.020  -0.068   9.647  3.9455  0.8977 -0.1086
  117CHL1   C2114896   5.145   0.037   9.503  0.4666  0.2982 -0.0739
  117CHL1  H21A14897   5.147  -0.039   9.422  0.7714  0.7923 -0.5358
  117CHL1  H21B14898   5.236   0.030   9.567  1.2153  1.9106 -0.8893
  117CHL1  H21C14899   5.148   0.136   9.452  0.0802  0.1900 -0.3079
  117CHL1   C2214900   4.888   0.006   9.497  0.1067 -0.3844  0.7753
  117CHL1  H22A14901   4.800   0.016   9.563  0.7663  1.3278  1.4678
  117CHL1  H22B14902   4.873   0.088   9.424  2.9351  0.3103  0.8550
  117CHL1   C2314903   4.889  -0.127   9.421  0.1859  0.1575  0.2709
  117CHL1  H23A14904   4.971  -0.121   9.346 -0.8090  2.2352 -0.7360
  117CHL1  H23B14905   4.919  -0.190   9.507 -2.3465 -1.6085 -0.0506
  117CHL1   C2414906   4.764  -0.158   9.345 -0.2872  0.0186 -0.0707
  117CHL1  H24A14907   4.675  -0.131   9.407  0.6317  2.4283  0.2947
  117CHL1  H24B14908   4.749  -0.092   9.257 -1.7599 -2.4998 -1.8703
  117CHL1   C2514909   4.761  -0.301   9.275 -0.0613  0.3680 -0.5013
  117CHL1   H2514910   4.837  -0.293   9.194  1.9773 -0.0735  1.2890
  117CHL1   C2614911   4.801  -0.414   9.363 -0.3588 -0.1774 -0.0201
  117CHL1  H26A14912   4.737  -0.418   9.454 -0.4005  0.7796  0.0049
  117CHL1  H26B14913   4.803  -0.511   9.309 -0.5078 -0.4400  0.4354
  117CHL1  H26C14914   4.903  -0.398   9.404 -0.0127  0.9819 -1.2805
  117CHL1   C2714915   4.631  -0.328   9.210 -0.2662  0.0641 -0.0598
  117CHL1  H27A14916   4.560  -0.343   9.295 -1.7206 -0.1692 -1.2654
  117CHL1  H27B14917   4.587  -0.254   9.139 -0.0238 -0.3744 -0.6770
  117CHL1  H27C14918   4.626  -0.423   9.154 -1.4887  0.0880 -0.0277
  118CHL1    C314919   5.676   0.907  10.450  0.1872 -0.3982  0.3952
  118CHL1    H314920   5.604   0.982  10.412  0.5954 -0.5393 -0.7039
  118CHL1    O314921   5.620   0.849  10.564  0.8342 -0.1138  0.2541
  118CHL1   H3'14922   5.571   0.769  10.546  0.0404  0.4289 -0.0653
  118CHL1    C414923   5.698   0.792  10.346  0.0263 -0.6409 -0.0549
  118CHL1   H4A14924   5.749   0.702  10.387 -0.7968 -0.3259  1.7540
  118CHL1   H4B14925   5.595   0.759  10.320  0.6300 -3.3873  0.7233
  118CHL1    C514926   5.772   0.839  10.223  0.4140  0.3035  0.7990
  118CHL1    C614927   5.714   0.830  10.104  0.2309 -0.3374 -0.0110
  118CHL1    H614928   5.620   0.778  10.082  0.1477 -0.0931 -0.2358
  118CHL1    C714929   5.774   0.892   9.979 -0.1527 -0.0960  0.1892
  118CHL1   H7A14930   5.773   0.822   9.892 -1.6573 -0.1028  0.1800
  118CHL1   H7B14931   5.730   0.993   9.958  0.1498 -0.2743 -1.4988
  118CHL1    C814932   5.928   0.921  10.001 -0.5571 -0.2751  0.1879
  118CHL1    H814933   5.975   0.821  10.004 -0.5158 -0.3280 -1.4971
  118CHL1   C1414934   5.991   1.005   9.888  0.4112 -0.6122 -0.6549
  118CHL1   H1414935   5.966   1.113   9.893  4.0374  0.3362  0.0520
  118CHL1   C1514936   5.951   0.958   9.747  0.0470 -0.0320 -0.3178
  118CHL1  H15A14937   5.947   0.848   9.757 -0.6446  0.1675  2.6144
  118CHL1  H15B14938   5.851   0.997   9.719  0.0041 -1.2135 -1.9284
  118CHL1   C1614939   6.069   1.009   9.664  0.3230  0.4132  0.1029
  118CHL1  H16A14940   6.104   0.924   9.601 -1.8583 -1.9882  1.9199
  118CHL1  H16B14941   6.033   1.087   9.592  4.1446 -0.6001 -3.2592
  118CHL1   C1714942   6.175   1.075   9.759 -0.4539  0.2739  0.6409
  118CHL1   H1714943   6.137   1.179   9.766 -0.9356  0.1587 -0.1074
  118CHL1   C1314944   6.142   1.012   9.894  0.2010  0.3038  0.3197
  118CHL1   C1814945   6.212   0.866   9.895 -0.3152 -0.6590 -0.4186
  118CHL1  H18A14946   6.322   0.875   9.911 -0.2368 -2.4227  0.2640
  118CHL1  H18B14947   6.169   0.801   9.974  0.4900 -2.2039 -1.2050
  118CHL1  H18C14948   6.191   0.816   9.798 -1.1919  0.0956 -0.6288
  118CHL1   C1214949   6.169   1.100  10.017 -0.5202  0.0183 -0.3493
  118CHL1  H12A14950   6.279   1.098  10.034 -0.3755 -2.5416 -1.2286
  118CHL1  H12B14951   6.136   1.202   9.988 -0.8872  0.5144  1.6190
  118CHL1   C1114952   6.104   1.042  10.143 -0.3856 -0.4443 -0.2548
  118CHL1  H11A14953   6.165   0.960  10.186 -0.2568  0.8929  2.2964
  118CHL1  H11B14954   6.109   1.121  10.220 -0.4622 -0.0218 -0.6745
  118CHL1    C914955   5.954   0.992  10.131 -0.7890 -0.3094 -0.5085
  118CHL1    H914956   5.883   1.077  10.123 -1.9628 -1.2836 -0.7393
  118CHL1   C1014957   5.903   0.909  10.253  0.3035  0.2044 -0.1952
  118CHL1   C1914958   6.002   0.789  10.288  1.0760  0.5432  0.5167
  118CHL1  H19A14959   6.013   0.723  10.200  1.8919  1.3129  0.0210
  118CHL1  H19B14960   6.096   0.827  10.333  0.7502 -1.4012  3.0726
  118CHL1  H19C14961   5.966   0.729  10.375  0.1248  0.4542  0.0708
  118CHL1    C114962   5.894   1.011  10.369  0.5537 -0.1558  0.8002
  118CHL1   H1A14963   5.996   1.039  10.403  1.2591 -2.4765  0.7441
  118CHL1   H1B14964   5.837   1.101  10.336  0.3263 -0.1871  1.1080
  118CHL1    C214965   5.811   0.969  10.488 -1.0570  0.3372  0.3888
  118CHL1   H2A14966   5.796   1.058  10.552 -1.4450  0.6902 -0.1848
  118CHL1   H2B14967   5.874   0.889  10.532 -0.2563  0.9683  0.4001
  118CHL1   C2014968   6.312   1.071   9.693  0.3823  0.2972  0.1113
  118CHL1   H2014969   6.344   0.966   9.679  1.0905  0.1632  2.3459
  118CHL1   C2114970   6.417   1.129   9.788 -0.7246 -0.1201  0.4132
  118CHL1  H21A14971   6.519   1.139   9.746  0.0281  2.5590  2.5706
  118CHL1  H21B14972   6.426   1.066   9.880  1.7431  0.8225  0.8866
  118CHL1  H21C14973   6.390   1.229   9.828 -0.5373  0.5454 -1.0648
  118CHL1   C2214974   6.320   1.146   9.556 -0.3058 -0.5453 -0.7470
  118CHL1  H22A14975   6.225   1.128   9.500  0.3177  0.7040 -2.2764
  118CHL1  H22B14976   6.324   1.253   9.585 -0.1482  0.1702 -3.1852
  118CHL1   C2314977   6.433   1.107   9.463  0.6635  0.0332  0.2768
  118CHL1  H23A14978   6.526   1.120   9.524  0.5860  1.2693  0.1532
  118CHL1  H23B14979   6.425   1.001   9.434 -0.9847  0.5545 -1.3095
  118CHL1   C2414980   6.427   1.179   9.327 -0.1523 -0.3547  0.6292
  118CHL1  H24A14981   6.327   1.155   9.284  0.2099 -0.0993 -0.3819
  118CHL1  H24B14982   6.441   1.289   9.335  0.3003 -0.4145  0.7161
  118CHL1   C2514983   6.537   1.123   9.230 -0.2387 -0.3006  0.2411
  118CHL1   H2514984   6.503   1.019   9.209 -0.0431 -0.9772  2.9282
  118CHL1   C2614985   6.532   1.202   9.097 -0.5503 -0.5150 -0.8517
  118CHL1  H26A14986   6.536   1.312   9.104  2.4482 -0.5513 -0.7045
  118CHL1  H26B14987   6.623   1.185   9.036 -0.6907  1.2535 -1.5918
  118CHL1  H26C14988   6.441   1.159   9.050 -1.1965 -0.0967 -0.0143
  118CHL1   C2714989   6.675   1.115   9.297 -0.2991  0.2997  0.4505
  118CHL1  H27A14990   6.694   1.224   9.308 -0.6535  0.3235  0.8871
  118CHL1  H27B14991   6.678   1.058   9.393  0.2469  0.2325  0.3964
  118CHL1  H27C14992   6.753   1.072   9.231  1.5202  0.9023  2.1178
  119CHL1    C314993   0.937   0.372  10.927 -0.2994 -0.4270  0.4144
  119CHL1    H314994   0.853   0.350  10.857  0.1644  2.3724 -1.1993
  119CHL1    O314995   0.902   0.340  11.057 -0.0533 -0.3520 -0.3556
  119CHL1   H3'14996   0.836   0.398  11.096  0.7058  0.3408 -0.0719
  119CHL1    C414997   1.062   0.300  10.893 -0.1283 -0.0403 -0.2071
  119CHL1   H4A14998   1.141   0.322  10.968  1.1621 -0.3501 -1.4219
  119CHL1   H4B14999   1.042   0.191  10.902 -0.3791 -0.0128 -0.4195
  119CHL1    C515000   1.107   0.354  10.757  0.1316  0.0162 -0.4128
  119CHL1    C615001   1.127   0.278  10.653 -0.0082 -0.1924  0.1833
  119CHL1    H615002   1.105   0.171  10.668 -1.7375  0.1082 -0.0934
  119CHL1    C715003   1.175   0.317  10.511 -0.6831 -0.0713  0.4163
  119CHL1   H7A15004   1.253   0.247  10.474  0.8015  0.8289  1.7082
  119CHL1   H7B15005   1.087   0.315  10.443 -0.2859 -0.5644 -0.0931
  119CHL1    C815006   1.238   0.460  10.506 -0.9557 -0.7853 -0.2016
  119CHL1    H815007   1.335   0.451  10.557 -0.1669 -1.8937 -1.7867
  119CHL1   C1415008   1.249   0.520  10.369 -0.2769  0.1179  0.6000
  119CHL1   H1415009   1.146   0.523  10.328 -0.6513 -0.2019  1.5056
  119CHL1   C1515010   1.315   0.433  10.254 -0.4425  0.1941 -0.3750
  119CHL1  H15A15011   1.402   0.377  10.295  0.0147  0.7532 -0.5740
  119CHL1  H15B15012   1.252   0.347  10.224  2.1718 -1.8732 -0.3157
  119CHL1   C1615013   1.359   0.540  10.154 -0.1139  0.1871 -0.6928
  119CHL1  H16A15014   1.470   0.537  10.147  0.0990 -0.9590  1.8399
  119CHL1  H16B15015   1.316   0.514  10.055  0.2054  0.5348 -0.9241
  119CHL1   C1715016   1.309   0.676  10.210 -0.2770 -0.0474  0.2876
  119CHL1   H1715017   1.209   0.694  10.166  0.1476  1.6021 -0.0533
  119CHL1   C1315018   1.299   0.658  10.361 -0.1907 -0.0816  0.2609
  119CHL1   C1815019   1.445   0.671  10.412 -0.1683  0.8132  0.1595
  119CHL1  H18A15020   1.496   0.768  10.393  0.8664  0.3457  0.4391
  119CHL1  H18B15021   1.456   0.648  10.520 -0.8935 -2.9115 -0.4340
  119CHL1  H18C15022   1.504   0.587  10.370 -1.4028 -0.5072  0.9902
  119CHL1   C1215023   1.197   0.744  10.434 -0.1841 -0.5241 -0.1297
  119CHL1  H12A15024   1.237   0.848  10.439 -0.4929 -0.3211 -1.5265
  119CHL1  H12B15025   1.107   0.755  10.369  2.0503  0.7528 -3.2394
  119CHL1   C1115026   1.185   0.694  10.580  0.6709 -0.3672 -0.2290
  119CHL1  H11A15027   1.289   0.694  10.619 -0.1861 -0.2682  2.2331
  119CHL1  H11B15028   1.113   0.768  10.621 -0.4836 -1.0417 -1.0026
  119CHL1    C915029   1.145   0.552  10.593  0.5146  0.1646 -0.5156
  119CHL1    H915030   1.042   0.553  10.550  0.1698 -1.8898  0.1334
  119CHL1   C1015031   1.122   0.506  10.739 -0.4520  0.4011  0.6192
  119CHL1   C1915032   1.251   0.539  10.812  0.1941 -0.5418 -0.1066
  119CHL1  H19A15033   1.353   0.511  10.778  0.8665  0.3354  1.1352
  119CHL1  H19B15034   1.254   0.650  10.818 -0.3640 -0.5853  1.3524
  119CHL1  H19C15035   1.242   0.499  10.916 -1.4858 -1.6909 -0.6427
  119CHL1    C115036   1.004   0.580  10.794  0.0696 -0.3318 -0.3112
  119CHL1   H1A15037   1.017   0.690  10.799 -0.4436 -0.2976  0.4261
  119CHL1   H1B15038   0.922   0.566  10.720  0.6490 -0.9187 -0.8511
  119CHL1    C215039   0.958   0.519  10.926  0.1307  0.4384 -0.1630
  119CHL1   H2A15040   0.865   0.571  10.958  0.4486  0.8530  0.0861
  119CHL1   H2B15041   1.028   0.550  11.006 -0.7333 -1.5158  1.4309
  119CHL1   C2015042   1.369   0.801  10.144  0.2994  0.4839 -0.1290
  119CHL1   H2015043   1.473   0.821  10.176  0.7369  0.1983 -1.3155
  119CHL1   C2115044   1.277   0.926  10.182 -0.2927 -0.0490 -0.1370
  119CHL1  H21A15045   1.317   1.021  10.141  3.6282 -2.0999 -1.5243
  119CHL1  H21B15046   1.285   0.933  10.292 -1.4310  1.1968 -0.0965
  119CHL1  H21C15047   1.175   0.907  10.141 -0.0368  0.2985 -0.9573
  119CHL1   C2215048   1.380   0.781   9.989  0.3155 -0.2213 -0.2023
  119CHL1  H22A15049   1.478   0.729   9.979  0.2580 -0.4862  0.5413
  119CHL1  H22B15050   1.300   0.714   9.953 -2.1107  2.4207 -0.0663
  119CHL1   C2315051   1.405   0.905   9.902 -0.7849  0.8234 -0.1864
  119CHL1  H23A15052   1.328   0.985   9.914  1.0079  2.7536 -0.8385
  119CHL1  H23B15053   1.499   0.943   9.948  0.4980 -1.4131 -0.8401
  119CHL1   C2415054   1.421   0.866   9.754 -0.0498  0.5956 -0.8416
  119CHL1  H24A15055   1.471   0.942   9.691  1.9426 -0.8711 -1.1200
  119CHL1  H24B15056   1.487   0.777   9.746  2.0040  1.9895 -0.1203
  119CHL1   C2515057   1.294   0.830   9.679 -0.1246 -0.0201 -0.2217
  119CHL1   H2515058   1.243   0.750   9.738 -1.0322  2.1900  2.2183
  119CHL1   C2615059   1.190   0.942   9.665  0.0983  0.4715  0.7139
  119CHL1  H26A15060   1.234   1.026   9.606 -1.1772  1.5034  1.1810
  119CHL1  H26B15061   1.102   0.904   9.610 -1.2449  2.2605  1.5147
  119CHL1  H26C15062   1.151   0.983   9.761  0.6779  3.6067 -0.2505
  119CHL1   C2715063   1.334   0.793   9.534 -0.2217  0.0014 -0.4024
  119CHL1  H27A15064   1.248   0.783   9.465 -0.0638 -0.2226 -0.5662
  119CHL1  H27B15065   1.410   0.870   9.512  0.1111  0.3439  1.7676
  119CHL1  H27C15066   1.387   0.696   9.528  0.0759  0.1400 -0.0583
  120CHL1    C315067   6.246   7.134  10.514 -0.5445 -0.2637 -0.6020
  120CHL1    H315068   6.267   7.239  10.484  1.5270 -0.1387  0.9989
  120CHL1    O315069   6.220   7.126  10.652  0.6838  0.3071  0.4108
  120CHL1   H3'15070   6.307   7.132  10.692  0.8274 -1.3989  0.4527
  120CHL1    C415071   6.132   7.081  10.428  0.9075  0.0275 -0.6566
  120CHL1   H4A15072   6.129   6.973  10.455  0.3253  0.7808  2.8306
  120CHL1   H4B15073   6.034   7.131  10.444  0.1617 -0.9812 -1.9083
  120CHL1    C515074   6.172   7.095  10.288 -0.5275  0.0993 -0.0017
  120CHL1    C615075   6.100   7.167  10.202 -0.1303  0.5770  0.1948
  120CHL1    H615076   5.998   7.193  10.235 -1.2551 -0.3619 -2.2711
  120CHL1    C715077   6.133   7.188  10.055 -0.2947  0.3610 -0.0987
  120CHL1   H7A15078   6.048   7.193   9.984 -0.0542 -0.9221 -0.4986
  120CHL1   H7B15079   6.185   7.286  10.047  4.3455 -1.8786 -1.0528
  120CHL1    C815080   6.242   7.089  10.009  0.1054 -0.2546 -0.1294
  120CHL1    H815081   6.200   6.989   9.985  1.0714 -0.8890  0.7535
  120CHL1   C1415082   6.294   7.135   9.870 -0.1823 -0.3957 -0.3529
  120CHL1   H1415083   6.319   7.243   9.878 -1.5644 -0.1393  1.1039
  120CHL1   C1515084   6.190   7.142   9.750 -0.1002  0.3665 -0.2358
  120CHL1  H15A15085   6.116   7.060   9.762 -2.0463  2.2181  1.1673
  120CHL1  H15B15086   6.122   7.230   9.756  1.2494  1.3445  2.3289
  120CHL1   C1615087   6.276   7.152   9.623 -0.1749  0.2750 -0.4161
  120CHL1  H16A15088   6.242   7.069   9.557 -0.2758 -0.9006  1.0667
  120CHL1  H16B15089   6.267   7.252   9.577 -2.3893  0.0412 -0.5657
  120CHL1   C1715090   6.424   7.126   9.669 -0.9495 -0.4796  0.1396
  120CHL1   H1715091   6.452   7.233   9.678 -1.3152 -0.3300 -0.4212
  120CHL1   C1315092   6.412   7.058   9.808  0.4251 -0.8395  0.1102
  120CHL1   C1815093   6.366   6.914   9.786 -0.1674 -0.7881 -0.1738
  120CHL1  H18A15094   6.342   6.857   9.879  2.1457 -0.4882  0.6582
  120CHL1  H18B15095   6.282   6.914   9.713 -1.3524  0.8380  1.1035
  120CHL1  H18C15096   6.436   6.849   9.728 -0.8959 -0.6352 -1.2562
  120CHL1   C1215097   6.531   7.066   9.906  0.8319  0.1936  0.3009
  120CHL1  H12A15098   6.614   7.001   9.871  1.4325  1.1303 -0.0489
  120CHL1  H12B15099   6.562   7.171   9.925  0.8039 -0.3574  3.9878
  120CHL1   C1115100   6.488   7.016  10.052 -0.1365  0.2484  0.3528
  120CHL1  H11A15101   6.485   6.905  10.048  3.7584 -0.0228  0.8195
  120CHL1  H11B15102   6.568   7.046  10.123  0.7331  2.1890 -1.3531
  120CHL1    C915103   6.358   7.073  10.108 -0.3022 -0.4731  0.4719
  120CHL1    H915104   6.389   7.178  10.130  0.7336 -0.4144 -1.0859
  120CHL1   C1015105   6.308   7.035  10.249 -0.0409 -0.0019 -0.6495
  120CHL1   C1915106   6.287   6.877  10.252  0.0553  0.9312 -0.1770
  120CHL1  H19A15107   6.210   6.858  10.174  0.8722 -0.0870 -0.7413
  120CHL1  H19B15108   6.382   6.833  10.217 -0.3930 -0.3724  0.2045
  120CHL1  H19C15109   6.262   6.836  10.352  1.0454 -0.2160 -0.3868
  120CHL1    C115110   6.420   7.068  10.346 -0.1521  0.2749 -0.1482
  120CHL1   H1A15111   6.510   7.004  10.339  0.3980  0.7544  1.9757
  120CHL1   H1B15112   6.453   7.174  10.332 -0.3439  0.4326  0.5368
  120CHL1    C215113   6.379   7.061  10.491  0.3602  0.3874  0.1822
  120CHL1   H2A15114   6.464   7.100  10.551  1.1074 -0.5297 -0.2502
  120CHL1   H2B15115   6.365   6.952  10.509 -0.4181  0.2773 -0.9935
  120CHL1   C2015116   6.510   7.052   9.560  0.7118 -0.2226  0.5076
  120CHL1   H2015117   6.467   6.952   9.544  0.2916  0.1113 -0.4945
  120CHL1   C2115118   6.654   7.047   9.607  0.3553  0.5483 -0.3791
  120CHL1  H21A15119   6.668   7.120   9.690  2.3573 -0.7598  0.5232
  120CHL1  H21B15120   6.729   7.078   9.531  1.1672  0.6551  0.4442
  120CHL1  H21C15121   6.678   6.950   9.656 -1.3557  0.8447  1.1428
  120CHL1   C2215122   6.491   7.113   9.417  0.0163  0.3995  0.1254
  120CHL1  H22A15123   6.554   7.049   9.351 -1.3514 -0.0197 -0.8241
  120CHL1  H22B15124   6.386   7.091   9.388 -0.6254  0.2728  2.3438
  120CHL1   C2315125   6.513   7.258   9.404  0.4509  0.5724 -0.5464
  120CHL1  H23A15126   6.483   7.312   9.496  0.5419  1.1368 -0.8414
  120CHL1  H23B15127   6.623   7.273   9.396  0.4001  1.7614  0.6443
  120CHL1   C2415128   6.445   7.316   9.280  0.7124  0.3122 -0.1132
  120CHL1  H24A15129   6.334   7.305   9.288  0.8145  0.8625  3.2665
  120CHL1  H24B15130   6.464   7.425   9.269 -0.5561  0.4098 -1.9289
  120CHL1   C2515131   6.488   7.254   9.144  0.5102  0.6429 -0.0115
  120CHL1   H2515132   6.457   7.147   9.144  2.2317  0.1020  0.9172
  120CHL1   C2615133   6.398   7.328   9.043  0.0719  0.2229  0.2731
  120CHL1  H26A15134   6.291   7.325   9.071 -0.5859 -2.9488 -2.0100
  120CHL1  H26B15135   6.428   7.435   9.035 -0.3068  0.1992 -2.8951
  120CHL1  H26C15136   6.414   7.293   8.939 -0.7442 -0.8533  0.4874
  120CHL1   C2715137   6.637   7.238   9.104  0.1961  0.2981 -0.0609
  120CHL1  H27A15138   6.632   7.202   8.999 -0.3826  2.7819 -0.9485
  120CHL1  H27B15139   6.690   7.336   9.101  2.3067 -0.7976 -0.7467
  120CHL1  H27C15140   6.679   7.160   9.172  0.8053  1.8808  1.4691
  121CHL1    C315141   3.712   2.699   7.752 -0.0233  0.0787  0.1628
  121CHL1    H315142   3.687   2.806   7.767 -0.9167  0.0946 -1.2555
  121CHL1    O315143   3.747   2.695   7.615  0.1962  0.0351 -0.2331
  121CHL1   H3'15144   3.787   2.608   7.605  0.6461  0.4905 -3.3618
  121CHL1    C415145   3.831   2.658   7.828  0.4392  0.0892 -0.3316
  121CHL1   H4A15146   3.852   2.551   7.806 -2.1878 -0.6396  0.3399
  121CHL1   H4B15147   3.923   2.705   7.788  1.5348  0.3217  2.2412
  121CHL1    C515148   3.810   2.679   7.975  0.4931  0.0219 -0.4102
  121CHL1    C615149   3.878   2.776   8.039  1.0893 -0.3572 -0.2046
  121CHL1    H615150   3.960   2.826   7.984  0.6197 -1.1998 -1.7212
  121CHL1    C715151   3.852   2.807   8.185  0.2973  0.4448  0.3023
  121CHL1   H7A15152   3.955   2.806   8.225  0.6906 -0.7214 -0.6957
  121CHL1   H7B15153   3.806   2.906   8.204  0.9266  1.3218 -2.2498
  121CHL1    C815154   3.772   2.691   8.253  0.2285 -0.1101 -0.0515
  121CHL1    H815155   3.845   2.607   8.259  0.1064 -0.3677 -1.6716
  121CHL1   C1415156   3.731   2.736   8.392  0.5894  0.5718 -0.4354
  121CHL1   H1415157   3.653   2.815   8.381 -1.2996 -0.8842  1.6222
  121CHL1   C1515158   3.837   2.804   8.479  0.0485 -0.3931 -0.0091
  121CHL1  H15A15159   3.933   2.749   8.474  0.6318  0.4705  1.3319
  121CHL1  H15B15160   3.856   2.911   8.455  0.8297 -0.6169 -0.4324
  121CHL1   C1615161   3.783   2.787   8.619 -0.5047  0.1391  0.2421
  121CHL1  H16A15162   3.862   2.743   8.682 -0.9201 -0.5378  0.3013
  121CHL1  H16B15163   3.746   2.885   8.655  0.5325  1.0493 -1.0812
  121CHL1   C1715164   3.652   2.702   8.613  0.1290  0.7530 -0.3916
  121CHL1   H1715165   3.578   2.785   8.608  0.9251  1.6794  1.8220
  121CHL1   C1315166   3.656   2.630   8.483  0.4479  0.1604 -0.1751
  121CHL1   C1815167   3.749   2.507   8.505 -0.7244 -0.1372  0.0891
  121CHL1  H18A15168   3.796   2.460   8.416  1.9137  1.9160  0.2495
  121CHL1  H18B15169   3.833   2.544   8.568 -0.8994 -2.0249  1.5368
  121CHL1  H18C15170   3.700   2.430   8.568 -0.3004  0.5336  1.2788
  121CHL1   C1215171   3.522   2.597   8.405  0.2461 -0.1082 -0.7006
  121CHL1  H12A15172   3.473   2.505   8.445 -0.1756 -0.6573 -2.3949
  121CHL1  H12B15173   3.458   2.687   8.409 -0.3208 -0.5396  0.4889
  121CHL1   C1115174   3.566   2.552   8.261  0.5087  0.1609  0.0804
  121CHL1  H11A15175   3.624   2.458   8.275  2.1252  1.0563 -0.4336
  121CHL1  H11B15176   3.472   2.530   8.206  0.6604  0.8263 -0.4593
  121CHL1    C915177   3.659   2.644   8.177 -0.1702  0.7830 -0.0574
  121CHL1    H915178   3.601   2.737   8.159  0.5722  1.2625  0.0059
  121CHL1   C1015179   3.694   2.590   8.034  0.1466 -0.3925  0.0678
  121CHL1   C1915180   3.745   2.444   8.038  0.1319 -0.6600 -0.5295
  121CHL1  H19A15181   3.785   2.403   7.942  0.1623  1.7423 -1.6111
  121CHL1  H19B15182   3.828   2.428   8.111 -0.3877  0.5618  0.3511
  121CHL1  H19C15183   3.654   2.385   8.059 -1.5979  1.7664 -0.8764
  121CHL1    C115184   3.568   2.589   7.943  0.0571 -0.0112  0.0172
  121CHL1   H1A15185   3.505   2.497   7.942  0.0634 -0.0695 -2.4814
  121CHL1   H1B15186   3.505   2.676   7.971  0.9964  0.0834  2.0112
  121CHL1    C215187   3.599   2.599   7.787 -0.3834  0.7152 -0.2726
  121CHL1   H2A15188   3.511   2.625   7.726  1.0243  0.2891 -2.6200
  121CHL1   H2B15189   3.633   2.498   7.756 -2.8900  0.0938 -1.1566
  121CHL1   C2015190   3.608   2.628   8.741  0.2515 -0.3408  0.0082
  121CHL1   H2015191   3.669   2.535   8.738  1.8839  0.6726 -3.7199
  121CHL1   C2115192   3.457   2.598   8.726  0.2402  1.0536  0.4505
  121CHL1  H21A15193   3.403   2.693   8.708 -1.6033  0.2211  1.3566
  121CHL1  H21B15194   3.421   2.561   8.824  1.2709  0.5948  0.6691
  121CHL1  H21C15195   3.449   2.527   8.641  4.0861  1.6185 -0.5708
  121CHL1   C2215196   3.646   2.691   8.876  0.0347  0.2097  0.2468
  121CHL1  H22A15197   3.757   2.685   8.869  0.0430  0.4859  0.1047
  121CHL1  H22B15198   3.604   2.794   8.883 -0.8953  0.0393 -1.7897
  121CHL1   C2315199   3.597   2.605   8.990 -0.4230  0.2369  0.5651
  121CHL1  H23A15200   3.488   2.630   8.986 -0.8699 -1.6474 -0.5996
  121CHL1  H23B15201   3.614   2.498   8.967  2.5702  0.6968  0.3157
  121CHL1   C2415202   3.659   2.632   9.128 -0.3893 -0.0961  0.4589
  121CHL1  H24A15203   3.768   2.613   9.119 -0.4409  0.2003 -1.1574
  121CHL1  H24B15204   3.645   2.741   9.148  0.6373  0.4658 -1.5575
  121CHL1   C2515205   3.592   2.559   9.245  0.5626  0.3822  0.2533
  121CHL1   H2515206   3.485   2.582   9.260  1.1315  2.3496  1.6943
  121CHL1   C2615207   3.614   2.406   9.234 -0.1940 -0.5702 -0.4227
  121CHL1  H26A15208   3.558   2.367   9.322  1.1896 -2.0745 -0.1674
  121CHL1  H26B15209   3.569   2.349   9.150  0.0113  0.3773 -1.2025
  121CHL1  H26C15210   3.718   2.374   9.256 -1.1026 -2.5522  1.3496
  121CHL1   C2715211   3.659   2.607   9.370  0.2194  0.2375 -0.5743
  121CHL1  H27A15212   3.636   2.535   9.452  0.8230 -0.5701 -1.0977
  121CHL1  H27B15213   3.770   2.602   9.367  0.2574  1.2347 -0.8796
  121CHL1  H27C15214   3.631   2.712   9.393  2.1841  0.3941  1.4494
  122CHL1    C315215   1.796   3.566   7.510 -0.1216  0.3519  0.0459
  122CHL1    H315216   1.718   3.568   7.589  0.8391 -0.4188  1.0453
  122CHL1    O315217   1.750   3.509   7.387 -0.3517 -0.2619 -0.2871
  122CHL1   H3'15218   1.659   3.537   7.374 -0.4219 -0.9286 -1.2920
  122CHL1    C415219   1.831   3.719   7.500 -0.1901  0.7659  0.8308
  122CHL1   H4A15220   1.896   3.741   7.412 -0.2496  1.8907  1.0547
  122CHL1   H4B15221   1.732   3.767   7.487  0.2612  1.9198  1.5457
  122CHL1    C515222   1.886   3.773   7.630 -0.0740  0.2796  0.5525
  122CHL1    C615223   1.832   3.883   7.682 -0.1148  0.7242  0.4781
  122CHL1    H615224   1.754   3.933   7.623  1.6710  1.4060 -1.4226
  122CHL1    C715225   1.873   3.937   7.819  0.4039  0.7033 -0.3342
  122CHL1   H7A15226   1.871   4.048   7.811 -0.0001  0.6371 -1.2344
  122CHL1   H7B15227   1.795   3.906   7.892  0.4512  0.8334 -0.2275
  122CHL1    C815228   2.010   3.882   7.865  0.2363 -0.0292 -0.2883
  122CHL1    H815229   2.098   3.934   7.821  0.8573 -1.3253 -0.6305
  122CHL1   C1415230   2.013   3.903   8.012 -0.2532 -0.3159 -0.1856
  122CHL1   H1415231   1.929   3.843   8.051 -0.2967  0.2190  0.5649
  122CHL1   C1515232   1.979   4.049   8.072 -0.4262  0.0938  0.1470
  122CHL1  H15A15233   2.030   4.127   8.012 -0.5652  0.5347  0.5963
  122CHL1  H15B15234   1.870   4.066   8.088 -0.4301  0.4768 -0.2690
  122CHL1   C1615235   2.048   4.046   8.209 -0.3028  0.3828 -0.1981
  122CHL1  H16A15236   2.128   4.123   8.211  0.1683 -0.1128 -0.0402
  122CHL1  H16B15237   1.984   4.068   8.297 -0.7948 -0.1547 -0.4116
  122CHL1   C1715238   2.115   3.906   8.221 -0.1362  0.6055 -0.7086
  122CHL1   H1715239   2.031   3.848   8.265 -0.7051  2.2534  0.4763
  122CHL1   C1315240   2.144   3.860   8.078 -1.0038  0.0859 -0.6181
  122CHL1   C1815241   2.271   3.936   8.025  0.1850  0.3719 -0.0066
  122CHL1  H18A15242   2.314   3.895   7.932  0.4379  0.9647 -0.1530
  122CHL1  H18B15243   2.251   4.043   7.999  2.1233  0.3436 -1.8676
  122CHL1  H18C15244   2.357   3.928   8.095  1.1926  1.5424 -1.0615
  122CHL1   C1215245   2.161   3.706   8.059  0.1556 -0.3066 -0.4216
  122CHL1  H12A15246   2.258   3.673   8.102 -0.4111  2.1791  3.2262
  122CHL1  H12B15247   2.080   3.654   8.116  0.4304  0.3256  0.5727
  122CHL1   C1115248   2.153   3.680   7.913 -0.5679  0.5965  1.0554
  122CHL1  H11A15249   2.248   3.714   7.867 -0.7540  0.0417  0.2498
  122CHL1  H11B15250   2.157   3.569   7.901  0.0609  0.8183 -1.1556
  122CHL1    C915251   2.031   3.735   7.838 -0.5477  0.1094 -0.0382
  122CHL1    H915252   1.947   3.700   7.901 -0.5048  2.4855  1.4851
  122CHL1   C1015253   1.999   3.692   7.696 -0.2855 -0.4232  0.9301
  122CHL1   C1915254   2.134   3.701   7.615  0.4906  0.0808 -0.0023
  122CHL1  H19A15255   2.125   3.675   7.507  0.6788  1.2193 -0.2953
  122CHL1  H19B15256   2.180   3.801   7.611  1.4819 -0.3658  0.0492
  122CHL1  H19C15257   2.208   3.636   7.666 -1.6793  0.2411  3.7112
  122CHL1    C115258   1.968   3.538   7.691  0.0260  0.3734  0.6397
  122CHL1   H1A15259   2.056   3.474   7.714 -0.0788  0.0397  0.1334
  122CHL1   H1B15260   1.895   3.524   7.773  1.7429  0.8942  2.3423
  122CHL1    C215261   1.921   3.485   7.554  0.5297 -0.1709 -1.1053
  122CHL1   H2A15262   1.900   3.377   7.573  1.4357 -0.0809  0.6566
  122CHL1   H2B15263   2.003   3.493   7.480 -0.8856 -1.0510 -2.8507
  122CHL1   C2015264   2.225   3.895   8.334 -0.0980 -0.6181  0.1655
  122CHL1   H2015265   2.325   3.919   8.292 -0.4895  1.3079  0.2160
  122CHL1   C2115266   2.222   3.749   8.388  0.3302  0.0221 -0.9657
  122CHL1  H21A15267   2.142   3.730   8.463 -1.4853  2.1437 -2.2575
  122CHL1  H21B15268   2.316   3.739   8.447  0.6337  0.4784 -1.3686
  122CHL1  H21C15269   2.222   3.681   8.300 -1.6983  2.7283 -3.2420
  122CHL1   C2215270   2.201   3.995   8.451  0.4880 -0.9147 -0.2393
  122CHL1  H22A15271   2.157   4.091   8.418 -1.0080 -1.3644  0.3910
  122CHL1  H22B15272   2.133   3.948   8.525  0.1912 -0.5028 -0.2520
  122CHL1   C2315273   2.325   4.011   8.537  0.1043 -0.3513 -0.2945
  122CHL1  H23A15274   2.377   3.916   8.564 -0.4640 -1.2980 -2.3203
  122CHL1  H23B15275   2.399   4.080   8.491 -0.6511  0.9302  0.3550
  122CHL1   C2415276   2.283   4.085   8.674  0.3199  0.3990 -0.5548
  122CHL1  H24A15277   2.219   4.176   8.667  0.2393  0.2068 -3.1293
  122CHL1  H24B15278   2.226   4.010   8.733 -2.0858  0.4045 -2.6912
  122CHL1   C2515279   2.398   4.143   8.770 -0.9464  0.4211  0.1407
  122CHL1   H2515280   2.442   4.224   8.709  1.8219 -0.5200  0.7241
  122CHL1   C2615281   2.352   4.208   8.894 -0.3633 -0.2584  0.3986
  122CHL1  H26A15282   2.424   4.291   8.910  0.7063 -1.1233  0.2408
  122CHL1  H26B15283   2.249   4.246   8.882 -0.7478 -1.3192  0.2325
  122CHL1  H26C15284   2.343   4.137   8.979  0.9086  1.6120  2.1957
  122CHL1   C2715285   2.520   4.057   8.798  0.2343  0.1890 -0.1872
  122CHL1  H27A15286   2.613   4.112   8.825  1.9137 -0.6159 -3.7199
  122CHL1  H27B15287   2.500   3.985   8.880  2.6793  1.2491  1.4624
  122CHL1  H27C15288   2.554   4.004   8.706  0.6703 -1.0523  0.6607
  123CHL1    C315289   5.197   2.349   7.483 -0.9100 -0.0708  0.0229
  123CHL1    H315290   5.265   2.290   7.418 -0.6468  1.1104 -0.7996
  123CHL1    O315291   5.109   2.432   7.410 -0.0369  0.4499  0.3215
  123CHL1   H3'15292   5.166   2.497   7.368 -0.6976  1.4650  0.9524
  123CHL1    C415293   5.110   2.261   7.569 -0.8324  0.0402 -0.4923
  123CHL1   H4A15294   5.035   2.326   7.620 -2.1904 -2.9929  1.6895
  123CHL1   H4B15295   5.062   2.193   7.496  1.8986 -1.3804 -1.1152
  123CHL1    C515296   5.174   2.177   7.679  0.5531 -0.2800  0.2814
  123CHL1    C615297   5.139   2.052   7.709 -0.6529  0.2995 -0.3331
  123CHL1    H615298   5.064   2.003   7.645 -0.4199  1.3121 -1.4207
  123CHL1    C715299   5.205   1.959   7.810  0.2097 -0.1745  0.4915
  123CHL1   H7A15300   5.128   1.897   7.859 -0.9639  0.1784 -0.8366
  123CHL1   H7B15301   5.279   1.890   7.765 -0.1959  0.6189 -1.5260
  123CHL1    C815302   5.291   2.041   7.913 -0.6114 -0.0070 -0.1367
  123CHL1    H815303   5.223   2.090   7.986 -2.3886 -1.6341 -0.6271
  123CHL1   C1415304   5.392   1.954   7.987  0.3991  0.5198 -1.0233
  123CHL1   H1415305   5.469   1.918   7.916  0.1228  0.3873 -1.2607
  123CHL1   C1515306   5.335   1.834   8.068  1.0175  0.3134  0.1773
  123CHL1  H15A15307   5.249   1.867   8.130  0.4578 -0.1878 -0.3175
  123CHL1  H15B15308   5.309   1.748   8.003 -0.2307 -0.1113  1.1918
  123CHL1   C1615309   5.450   1.788   8.160  0.5757  0.0874  0.6425
  123CHL1  H16A15310   5.416   1.786   8.266 -0.5099  0.4838  0.3140
  123CHL1  H16B15311   5.495   1.690   8.136 -0.3597 -0.5144  1.2764
  123CHL1   C1715312   5.553   1.900   8.139  0.2156 -0.0505 -0.4849
  123CHL1   H1715313   5.613   1.855   8.057 -0.0210 -0.4308 -0.4549
  123CHL1   C1315314   5.484   2.029   8.082  0.1498 -0.4849 -0.2333
  123CHL1   C1815315   5.403   2.098   8.190  0.3790  0.5523 -0.3754
  123CHL1  H18A15316   5.370   2.030   8.271 -3.0265  0.8720 -1.3458
  123CHL1  H18B15317   5.463   2.173   8.246 -1.4825  0.4699  1.8730
  123CHL1  H18C15318   5.312   2.150   8.153 -0.6727 -0.4717  0.7138
  123CHL1   C1215319   5.569   2.134   8.009  0.7701  0.2088 -0.2369
  123CHL1  H12A15320   5.636   2.191   8.077  0.1977 -0.2222  0.7241
  123CHL1  H12B15321   5.633   2.088   7.932 -1.1688  0.2875 -1.9772
  123CHL1   C1115322   5.476   2.230   7.931 -0.1800 -0.4195  0.1902
  123CHL1  H11A15323   5.412   2.282   8.004 -2.2553 -1.4092 -0.8276
  123CHL1  H11B15324   5.545   2.306   7.891 -2.0506  1.1110 -0.2678
  123CHL1    C915325   5.366   2.158   7.837 -0.7772  0.3022 -0.2549
  123CHL1    H915326   5.428   2.115   7.756 -0.5236  1.1630 -0.5365
  123CHL1   C1015327   5.279   2.257   7.763  0.6384  0.1777  0.4474
  123CHL1   C1915328   5.207   2.343   7.869  0.1803  0.2393 -0.6120
  123CHL1  H19A15329   5.278   2.419   7.907  0.7280 -0.0742 -0.9863
  123CHL1  H19B15330   5.134   2.410   7.819 -0.7942  1.4102  2.2216
  123CHL1  H19C15331   5.160   2.302   7.960  0.3522 -0.8496 -0.9865
  123CHL1    C115332   5.366   2.344   7.665 -0.1292  0.1326 -0.2759
  123CHL1   H1A15333   5.435   2.397   7.734  1.0778  0.2855 -1.5454
  123CHL1   H1B15334   5.445   2.287   7.612  1.4414  0.9147  1.1475
  123CHL1    C215335   5.287   2.440   7.576  0.4154  1.2207 -0.0839
  123CHL1   H2A15336   5.361   2.490   7.509  0.4696 -0.9567 -1.7805
  123CHL1   H2B15337   5.217   2.499   7.638 -2.1322 -1.5311 -0.1214
  123CHL1   C2015338   5.662   1.938   8.240  0.1930 -0.0470 -0.2588
  123CHL1   H2015339   5.699   2.042   8.229 -1.0513  0.7476  2.3973
  123CHL1   C2115340   5.775   1.833   8.215  0.0004  0.2866 -0.2071
  123CHL1  H21A15341   5.820   1.850   8.114  0.7337  1.9608  0.3629
  123CHL1  H21B15342   5.742   1.728   8.227  3.0604 -0.6961  0.5397
  123CHL1  H21C15343   5.861   1.848   8.283 -1.3395  0.3614  1.5239
  123CHL1   C2215344   5.627   1.938   8.387 -0.2056 -0.4036 -0.7080
  123CHL1  H22A15345   5.525   1.981   8.395 -0.2107 -0.2948 -1.3099
  123CHL1  H22B15346   5.623   1.829   8.411  0.1445 -0.3572 -0.4295
  123CHL1   C2315347   5.723   2.033   8.468  0.4739 -0.7406  0.1695
  123CHL1  H23A15348   5.826   2.028   8.427  0.5725  1.4229  0.0731
  123CHL1  H23B15349   5.702   2.140   8.448 -1.8080 -1.3960 -1.3184
  123CHL1   C2415350   5.729   2.006   8.618 -0.1433 -0.1617  0.8860
  123CHL1  H24A15351   5.748   1.899   8.638  1.1869 -0.4690 -1.5919
  123CHL1  H24B15352   5.811   2.065   8.666 -1.3720  1.5414  0.9789
  123CHL1   C2515353   5.604   2.058   8.698  0.8041 -0.1815  0.9251
  123CHL1   H2515354   5.581   2.160   8.661  0.0799 -0.7359 -0.2101
  123CHL1   C2615355   5.480   1.963   8.685 -0.3211 -0.2066  0.0017
  123CHL1  H26A15356   5.415   1.988   8.771 -0.0379 -0.4127  0.2743
  123CHL1  H26B15357   5.433   1.990   8.587 -0.4143 -0.0290  0.0945
  123CHL1  H26C15358   5.518   1.859   8.682  0.8596  0.2113 -2.3533
  123CHL1   C2715359   5.645   2.061   8.847 -0.4585 -0.3701  0.0392
  123CHL1  H27A15360   5.663   1.958   8.881  0.1364 -0.8738 -1.6769
  123CHL1  H27B15361   5.738   2.121   8.857 -0.1615 -0.5885 -1.1839
  123CHL1  H27C15362   5.564   2.102   8.912  0.6741 -1.5536  2.2812
  124CHL1    C315363   3.528   3.576   7.626 -0.8101 -0.0079 -1.2069
  124CHL1    H315364   3.592   3.486   7.638 -1.2857 -0.1724  0.3325
  124CHL1    O315365   3.459   3.576   7.501  0.2309  0.0566 -1.3026
  124CHL1   H3'15366   3.436   3.668   7.484  0.9878  0.5931  0.3725
  124CHL1    C415367   3.424   3.558   7.736  0.2708  0.8850  0.3872
  124CHL1   H4A15368   3.358   3.644   7.712 -0.0187  0.1196 -1.8406
  124CHL1   H4B15369   3.366   3.464   7.728  0.4420  0.8689 -1.0511
  124CHL1    C515370   3.489   3.568   7.873 -0.4244  1.2867  0.3279
  124CHL1    C615371   3.482   3.463   7.958 -0.2816 -0.2042  0.1731
  124CHL1    H615372   3.428   3.373   7.928 -2.4095  1.7621 -2.3564
  124CHL1    C715373   3.524   3.467   8.100 -0.7769  0.2062  0.2696
  124CHL1   H7A15374   3.444   3.421   8.161  0.1328 -0.4687  1.0003
  124CHL1   H7B15375   3.621   3.412   8.100 -2.0118 -2.0949  0.7271
  124CHL1    C815376   3.553   3.616   8.156  0.2987 -0.0669  0.1756
  124CHL1    H815377   3.453   3.661   8.177 -0.0364 -1.0455  0.7501
  124CHL1   C1415378   3.640   3.607   8.282 -0.4551 -0.3277 -0.2752
  124CHL1   H1415379   3.737   3.561   8.252  0.4752  0.1232  1.8541
  124CHL1   C1515380   3.586   3.515   8.387  0.2188 -0.4588  0.6566
  124CHL1  H15A15381   3.480   3.541   8.410  0.0924 -0.7594  0.4289
  124CHL1  H15B15382   3.596   3.406   8.371 -2.9774 -0.6897 -0.6561
  124CHL1   C1615383   3.666   3.554   8.518  0.5405  0.0579  0.4040
  124CHL1  H16A15384   3.584   3.592   8.582  0.2650  2.2798 -1.1790
  124CHL1  H16B15385   3.714   3.467   8.570  0.0006 -0.2692  0.3605
  124CHL1   C1715386   3.759   3.670   8.466 -0.0742 -0.4101 -0.8117
  124CHL1   H1715387   3.848   3.622   8.418 -0.6322  0.0268 -2.3405
  124CHL1   C1315388   3.686   3.736   8.344  0.3085  0.1101  0.2079
  124CHL1   C1815389   3.561   3.810   8.389 -0.2943  0.6040  0.0456
  124CHL1  H18A15390   3.516   3.752   8.472  0.7530 -0.2243  0.0661
  124CHL1  H18B15391   3.597   3.907   8.431 -1.4200  0.9512  0.2358
  124CHL1  H18C15392   3.494   3.830   8.303  1.5737  2.3347 -1.1323
  124CHL1   C1215393   3.768   3.808   8.233 -0.0058 -0.6759 -0.1606
  124CHL1  H12A15394   3.803   3.901   8.282  0.5453 -1.1444  0.3532
  124CHL1  H12B15395   3.856   3.753   8.195  2.0351  1.6689  0.9132
  124CHL1   C1115396   3.682   3.834   8.106 -0.6881  0.1197  0.1726
  124CHL1  H11A15397   3.593   3.899   8.120 -0.9653 -0.3442  0.5341
  124CHL1  H11B15398   3.748   3.889   8.035 -1.2614  1.5609  0.7116
  124CHL1    C915399   3.629   3.699   8.049  0.1904  0.7233 -1.1922
  124CHL1    H915400   3.722   3.642   8.032  1.7360  1.2643  3.8208
  124CHL1   C1015401   3.555   3.698   7.912 -0.2951  0.3693 -0.0029
  124CHL1   C1915402   3.454   3.811   7.918 -0.0084 -0.2748  0.0540
  124CHL1  H19A15403   3.505   3.909   7.905  1.7078 -0.9093  1.4774
  124CHL1  H19B15404   3.399   3.810   7.822  1.3562  0.3365 -0.7753
  124CHL1  H19C15405   3.390   3.821   8.008  0.9023  1.5449  0.5687
  124CHL1    C115406   3.662   3.715   7.792  0.2251  0.0000 -0.6059
  124CHL1   H1A15407   3.686   3.820   7.821 -0.9493 -0.0957  0.8748
  124CHL1   H1B15408   3.744   3.641   7.803  1.2122  1.0984 -0.4281
  124CHL1    C215409   3.608   3.712   7.655  0.9951  0.4680  0.4312
  124CHL1   H2A15410   3.694   3.716   7.584  0.1680  4.0983 -0.5817
  124CHL1   H2B15411   3.536   3.791   7.624 -1.8136 -2.3002 -0.6847
  124CHL1   C2015412   3.815   3.768   8.576 -0.3171 -0.3490  0.2236
  124CHL1   H2015413   3.846   3.860   8.521  1.1642 -0.0084  1.5659
  124CHL1   C2115414   3.938   3.700   8.634  0.0462  0.3661 -0.2946
  124CHL1  H21A15415   4.005   3.666   8.553 -1.6267 -2.0179 -0.7986
  124CHL1  H21B15416   3.904   3.621   8.705  1.2209  0.5021  0.4358
  124CHL1  H21C15417   3.986   3.776   8.699 -1.4396 -0.5003  1.9353
  124CHL1   C2215418   3.719   3.810   8.683  0.6739 -0.5795  0.3105
  124CHL1  H22A15419   3.618   3.819   8.639 -0.1445 -0.6479  2.0749
  124CHL1  H22B15420   3.702   3.722   8.749  0.6430 -1.1065 -0.3928
  124CHL1   C2315421   3.756   3.938   8.760  0.0361 -0.0682  0.5307
  124CHL1  H23A15422   3.834   3.919   8.837  2.6880  0.6920 -1.8056
  124CHL1  H23B15423   3.800   4.003   8.681  0.1372 -1.6214 -0.7471
  124CHL1   C2415424   3.644   4.013   8.821  0.7864 -0.8040 -0.7847
  124CHL1  H24A15425   3.550   4.024   8.762 -0.4494  3.6426  1.5301
  124CHL1  H24B15426   3.610   3.952   8.907 -0.4811  1.4520  0.4005
  124CHL1   C2515427   3.675   4.159   8.842  0.0946 -0.4599  0.4910
  124CHL1   H2515428   3.696   4.203   8.743 -2.7824  0.2281  0.0774
  124CHL1   C2615429   3.559   4.240   8.897  0.6326 -0.0495  0.0272
  124CHL1  H26A15430   3.592   4.346   8.890  0.0881  0.1291  0.1064
  124CHL1  H26B15431   3.473   4.228   8.828  0.6735 -0.0207 -0.0287
  124CHL1  H26C15432   3.537   4.215   9.003  1.1029 -0.9155 -0.0708
  124CHL1   C2715433   3.804   4.177   8.925 -0.1782 -0.4233  0.2613
  124CHL1  H27A15434   3.885   4.113   8.885  0.8068  1.4247 -0.8754
  124CHL1  H27B15435   3.847   4.280   8.920  2.1811 -1.3682 -0.2219
  124CHL1  H27C15436   3.787   4.141   9.029  0.8233  1.8469  1.2853
  125CHL1    C315437   4.319   3.971   7.335  0.2498  0.3133  0.3636
  125CHL1    H315438   4.237   4.029   7.287 -0.1172 -0.2111  0.3429
  125CHL1    O315439   4.396   3.893   7.240  0.6644 -0.0512 -0.0798
  125CHL1   H3'15440   4.474   3.862   7.286  0.3779  2.1128  1.9972
  125CHL1    C415441   4.413   4.062   7.418  0.1311 -0.0253  0.5041
  125CHL1   H4A15442   4.505   4.006   7.444  2.1099  2.2199 -1.2065
  125CHL1   H4B15443   4.448   4.144   7.352 -0.6506  0.5898  0.8512
  125CHL1    C515444   4.332   4.124   7.533  0.2491 -0.0199  0.1245
  125CHL1    C615445   4.305   4.253   7.540  0.0624 -0.1186  0.7042
  125CHL1    H615446   4.347   4.318   7.462 -0.7041  0.3917  0.7027
  125CHL1    C715447   4.243   4.318   7.661  0.1311 -0.1209  0.0484
  125CHL1   H7A15448   4.297   4.412   7.685  0.7206 -0.6270  0.7528
  125CHL1   H7B15449   4.145   4.357   7.627 -0.6067 -0.9575  1.1347
  125CHL1    C815450   4.229   4.222   7.786 -0.3664 -0.1974  0.4494
  125CHL1    H815451   4.329   4.217   7.835  0.2322  1.5830 -0.4761
  125CHL1   C1415452   4.141   4.282   7.893 -1.0118 -0.9116  0.2870
  125CHL1   H1415453   4.048   4.311   7.840 -0.2778  3.0489  0.8120
  125CHL1   C1515454   4.184   4.416   7.957 -0.7445 -0.2071 -0.2025
  125CHL1  H15A15455   4.293   4.400   7.970 -0.4831 -1.4918 -3.1666
  125CHL1  H15B15456   4.164   4.504   7.892 -1.5977  0.1010  0.4641
  125CHL1   C1615457   4.108   4.418   8.093 -0.2280  0.0158  0.7005
  125CHL1  H16A15458   4.183   4.438   8.173 -0.3306  0.1877  0.7545
  125CHL1  H16B15459   4.025   4.491   8.087 -0.2113 -0.0667 -0.7823
  125CHL1   C1715460   4.035   4.281   8.104 -0.4779 -0.0509 -0.1726
  125CHL1   H1715461   3.935   4.278   8.057 -0.6374 -1.4441  0.2028
  125CHL1   C1315462   4.110   4.187   8.004  0.9005  0.4983 -0.4041
  125CHL1   C1815463   4.245   4.139   8.073 -0.0603  0.7786  0.0281
  125CHL1  H18A15464   4.232   4.059   8.148  0.2545  0.0205 -0.7073
  125CHL1  H18B15465   4.319   4.105   7.997  1.5017  2.8030  0.5738
  125CHL1  H18C15466   4.296   4.229   8.113  2.6915 -0.1924 -1.1194
  125CHL1   C1215467   4.030   4.063   7.954 -0.1786 -0.0091  0.4407
  125CHL1  H12A15468   4.020   3.997   8.043  0.5679  1.0626  1.3504
  125CHL1  H12B15469   3.933   4.076   7.900  1.3205  2.3383 -1.9258
  125CHL1   C1115470   4.119   3.991   7.850 -0.4905  0.0167 -0.6432
  125CHL1  H11A15471   4.205   3.945   7.902 -2.2699 -0.9476  1.5722
  125CHL1  H11B15472   4.069   3.906   7.799  0.6640 -0.2179 -1.4278
  125CHL1    C915473   4.171   4.087   7.738 -0.0218  0.2710  0.2054
  125CHL1    H915474   4.080   4.118   7.682  0.8996  0.3832 -1.3116
  125CHL1   C1015475   4.273   4.018   7.630  1.3801 -0.1921 -0.8507
  125CHL1   C1915476   4.379   3.935   7.712  0.0903  0.5364  0.2231
  125CHL1  H19A15477   4.346   3.839   7.759  2.4877 -0.2563  0.4765
  125CHL1  H19B15478   4.453   3.903   7.636  1.2893  0.3118  1.4373
  125CHL1  H19C15479   4.430   3.994   7.791 -0.2746  1.2720 -0.0883
  125CHL1    C115480   4.182   3.923   7.543 -0.0025 -0.6522 -0.3110
  125CHL1   H1A15481   4.148   3.842   7.611 -0.4058  0.2346  0.5651
  125CHL1   H1B15482   4.098   3.986   7.505  0.6635  0.2636 -0.2919
  125CHL1    C215483   4.261   3.867   7.423  0.2037  0.6577 -0.0538
  125CHL1   H2A15484   4.186   3.813   7.362  1.3398 -1.6533  0.4762
  125CHL1   H2B15485   4.339   3.792   7.447  0.1289 -0.5127 -3.0399
  125CHL1   C2015486   3.995   4.240   8.244 -0.1442  0.4288  0.4630
  125CHL1   H2015487   3.959   4.135   8.236  0.6122 -0.0469  2.6384
  125CHL1   C2115488   3.878   4.327   8.280  1.1481  0.0116 -0.0769
  125CHL1  H21A15489   3.903   4.435   8.290 -1.3781  0.8021 -1.1626
  125CHL1  H21B15490   3.824   4.295   8.372  3.3358  0.6881  1.5155
  125CHL1  H21C15491   3.800   4.326   8.200  0.4513 -0.5890  0.5904
  125CHL1   C2215492   4.103   4.238   8.348  0.3362  0.5846  0.0397
  125CHL1  H22A15493   4.192   4.180   8.316 -1.8847 -1.5513 -2.7522
  125CHL1  H22B15494   4.131   4.346   8.357  2.8902  0.1248 -1.3949
  125CHL1   C2315495   4.057   4.186   8.481 -0.2460 -0.1067 -0.3084
  125CHL1  H23A15496   3.992   4.259   8.533 -0.9497 -0.1373 -1.1342
  125CHL1  H23B15497   3.997   4.095   8.458  0.5478 -0.4138 -1.2474
  125CHL1   C2415498   4.167   4.144   8.581  0.8114 -0.2070  0.1578
  125CHL1  H24A15499   4.128   4.072   8.656  0.8550 -1.1401 -0.6951
  125CHL1  H24B15500   4.233   4.080   8.518  1.9107 -1.4706  2.4262
  125CHL1   C2515501   4.257   4.246   8.657 -0.0600 -0.1249  0.2331
  125CHL1   H2515502   4.201   4.332   8.699  2.0493  2.2944 -1.6201
  125CHL1   C2615503   4.316   4.173   8.782 -0.3612 -0.1437  0.3283
  125CHL1  H26A15504   4.384   4.231   8.848  1.2410 -0.0093 -1.3651
  125CHL1  H26B15505   4.238   4.135   8.851 -0.7076  1.7662  1.0461
  125CHL1  H26C15506   4.384   4.089   8.757 -0.6192  0.0209 -0.9967
  125CHL1   C2715507   4.366   4.305   8.566  0.6267 -0.2276  1.0749
  125CHL1  H27A15508   4.447   4.358   8.620  1.9315 -0.9211 -0.1182
  125CHL1  H27B15509   4.415   4.230   8.500 -0.2474 -1.7843  2.1376
  125CHL1  H27C15510   4.308   4.370   8.497 -1.8361 -2.0906  1.2684
  126CHL1    C315511   2.202   4.988   7.413 -0.4844  0.2108 -0.0936
  126CHL1    H315512   2.141   4.895   7.419  1.7275 -1.2652  0.9216
  126CHL1    O315513   2.231   5.031   7.281 -0.0067  0.5319 -0.4011
  126CHL1   H3'15514   2.289   5.107   7.291 -1.0538  1.4758 -1.2828
  126CHL1    C415515   2.118   5.104   7.470  0.5876  0.0870 -0.7788
  126CHL1   H4A15516   2.164   5.204   7.476 -0.1467  0.3632  1.6713
  126CHL1   H4B15517   2.027   5.112   7.407  0.1185 -0.5946 -0.2099
  126CHL1    C515518   2.069   5.078   7.610  0.1519  0.4361  0.4011
  126CHL1    C615519   1.940   5.073   7.633 -0.1795 -0.3295 -0.0049
  126CHL1    H615520   1.873   5.096   7.550 -3.1455 -1.1045  2.0143
  126CHL1    C715521   1.881   5.043   7.767 -0.8072 -1.1126  1.0995
  126CHL1   H7A15522   1.806   5.124   7.783 -0.5543 -0.0845 -2.1256
  126CHL1   H7B15523   1.832   4.944   7.766 -0.4908 -1.3163 -1.6728
  126CHL1    C815524   1.986   5.046   7.880  0.3893  0.3062 -0.0693
  126CHL1    H815525   2.016   5.150   7.907 -1.4540  0.8853 -0.1190
  126CHL1   C1415526   1.924   4.979   8.003 -0.4656 -0.3044 -0.4261
  126CHL1   H1415527   1.892   4.876   7.974 -0.9443  0.0112 -1.0607
  126CHL1   C1515528   1.799   5.037   8.061  0.2531 -0.3966  0.1989
  126CHL1  H15A15529   1.814   5.147   8.066  1.9043 -0.4943 -1.5942
  126CHL1  H15B15530   1.703   5.020   8.007  0.5450 -0.4651 -0.2980
  126CHL1   C1615531   1.791   4.974   8.204 -0.0615  0.5368  0.6129
  126CHL1  H16A15532   1.760   5.059   8.268  1.5099  1.7470 -0.1462
  126CHL1  H16B15533   1.709   4.900   8.209 -1.6105  2.1249 -0.1471
  126CHL1   C1715534   1.927   4.909   8.231  0.3836 -0.5721 -0.4291
  126CHL1   H1715535   1.919   4.801   8.209 -0.1379 -1.2095  2.4027
  126CHL1   C1315536   2.023   4.965   8.123 -0.6752  0.3611  0.0223
  126CHL1   C1815537   2.069   5.104   8.173 -0.1792  0.1652 -0.9005
  126CHL1  H18A15538   1.991   5.176   8.206 -0.0452 -0.0136 -0.1828
  126CHL1  H18B15539   2.140   5.099   8.259  0.7020 -0.2113 -1.6285
  126CHL1  H18C15540   2.128   5.150   8.091  0.0122  0.7566 -0.4407
  126CHL1   C1215541   2.136   4.878   8.069  0.3039 -0.1916 -0.5214
  126CHL1  H12A15542   2.217   4.880   8.145 -1.1079 -0.9698  1.0961
  126CHL1  H12B15543   2.090   4.780   8.044  0.6106  0.1247 -2.4866
  126CHL1   C1115544   2.209   4.936   7.952  0.5491  0.5858 -0.0617
  126CHL1  H11A15545   2.265   5.027   7.979  1.4587  0.1864 -0.5447
  126CHL1  H11B15546   2.284   4.862   7.914 -0.2180  0.3450 -1.1694
  126CHL1    C915547   2.111   4.972   7.833 -0.2458 -0.1528 -0.2836
  126CHL1    H915548   2.074   4.875   7.793  2.7658 -2.4248  1.9390
  126CHL1   C1015549   2.179   5.034   7.709 -0.0322 -0.2656  0.4772
  126CHL1   C1915550   2.250   5.165   7.757  0.5019 -0.0394  0.0536
  126CHL1  H19A15551   2.285   5.225   7.670 -2.2936 -0.3800 -1.4355
  126CHL1  H19B15552   2.183   5.218   7.827  0.5588 -0.3170  0.3237
  126CHL1  H19C15553   2.344   5.138   7.811  0.3917  2.0258  1.3756
  126CHL1    C115554   2.285   4.933   7.640  0.1026 -0.4954  0.3879
  126CHL1   H1A15555   2.379   4.942   7.698  0.6192 -0.8851 -0.3881
  126CHL1   H1B15556   2.242   4.833   7.658  1.1119 -0.8906  0.6529
  126CHL1    C215557   2.326   4.966   7.495 -0.1997  0.3538 -0.2881
  126CHL1   H2A15558   2.384   4.881   7.454 -1.8710 -2.2513  2.3115
  126CHL1   H2B15559   2.394   5.053   7.500  1.8477 -1.1507 -0.6842
  126CHL1   C2015560   1.975   4.910   8.382  0.1770 -0.0390 -0.7211
  126CHL1   H2015561   2.031   5.004   8.404  2.9192 -1.7954  0.2982
  126CHL1   C2115562   2.090   4.812   8.407  0.0248 -0.3601 -0.2734
  126CHL1  H21A15563   2.159   4.851   8.329 -1.9908 -0.7870 -2.3959
  126CHL1  H21B15564   2.046   4.711   8.394 -0.5148 -0.3238  1.0738
  126CHL1  H21C15565   2.140   4.820   8.506  2.6233 -1.9199 -1.3574
  126CHL1   C2215566   1.855   4.892   8.484 -0.1295 -0.1520  0.1122
  126CHL1  H22A15567   1.781   4.973   8.469  0.1815  0.1884  0.3635
  126CHL1  H22B15568   1.805   4.793   8.474 -1.0803  0.1790  1.3179
  126CHL1   C2315569   1.909   4.897   8.633  0.1732 -0.3808  0.6689
  126CHL1  H23A15570   1.983   4.815   8.649  2.1909  0.4873 -3.0756
  126CHL1  H23B15571   1.964   4.992   8.650 -0.1895 -0.0654  0.0886
  126CHL1   C2415572   1.794   4.887   8.738 -0.5662 -0.6328 -0.4367
  126CHL1  H24A15573   1.853   4.900   8.831  0.6025  1.1209 -1.3707
  126CHL1  H24B15574   1.719   4.969   8.729 -0.5268 -0.4776  0.5125
  126CHL1   C2515575   1.730   4.746   8.727  0.0039 -0.3987 -0.9354
  126CHL1   H2515576   1.715   4.720   8.620  2.6372  3.0895 -2.3403
  126CHL1   C2615577   1.818   4.648   8.808 -0.4291  0.1885  0.3730
  126CHL1  H26A15578   1.866   4.691   8.898  0.0576  0.5453 -0.0498
  126CHL1  H26B15579   1.769   4.553   8.837  1.6019 -1.1658 -0.4090
  126CHL1  H26C15580   1.892   4.625   8.728 -0.1830 -0.6140  0.8170
  126CHL1   C2715581   1.592   4.753   8.802 -0.6742 -0.9380 -0.5300
  126CHL1  H27A15582   1.520   4.827   8.762 -0.6534 -0.9955 -0.6729
  126CHL1  H27B15583   1.543   4.654   8.794  1.1847 -2.0231  0.6838
  126CHL1  H27C15584   1.622   4.775   8.907  0.4957  3.1827 -1.5626
  127CHL1    C315585   3.124   5.939   7.745 -0.3228  0.6737  0.1869
  127CHL1    H315586   3.186   5.984   7.825  1.8776 -1.7635 -0.0235
  127CHL1    O315587   3.164   5.995   7.622 -0.1642  0.4186 -0.4108
  127CHL1   H3'15588   3.112   5.946   7.558  0.8352  0.0629 -0.9639
  127CHL1    C415589   3.149   5.787   7.744  0.3828  0.4804 -0.6061
  127CHL1   H4A15590   3.097   5.749   7.654 -0.2575  1.1539 -0.5345
  127CHL1   H4B15591   3.257   5.773   7.721  0.4603 -0.3661  0.1923
  127CHL1    C515592   3.100   5.722   7.875 -0.6096 -0.9456  0.0520
  127CHL1    C615593   3.188   5.669   7.960  0.5104  0.4978  0.2833
  127CHL1    H615594   3.294   5.654   7.935  0.8202 -0.2639  1.9498
  127CHL1    C715595   3.151   5.596   8.082  0.5216 -0.0041  0.2549
  127CHL1   H7A15596   3.171   5.487   8.074  0.2150  0.0070 -0.9250
  127CHL1   H7B15597   3.196   5.645   8.171  1.3041  1.9801 -1.1706
  127CHL1    C815598   2.996   5.594   8.109 -0.4471 -0.4337  0.0803
  127CHL1    H815599   2.956   5.512   8.046 -0.1649  0.6176 -1.5136
  127CHL1   C1415600   2.969   5.566   8.252 -0.5972  0.2033 -0.1247
  127CHL1   H1415601   3.001   5.664   8.292  1.4983 -0.0763 -0.9893
  127CHL1   C1515602   3.049   5.461   8.321 -0.3897  0.7820 -0.3509
  127CHL1  H15A15603   3.038   5.368   8.262  1.1773 -0.1157  0.7040
  127CHL1  H15B15604   3.158   5.475   8.334 -0.2616  1.4720 -1.9027
  127CHL1   C1615605   2.982   5.452   8.456 -0.0787 -0.0162  0.7264
  127CHL1  H16A15606   2.981   5.346   8.490  1.1137 -0.7536 -1.3939
  127CHL1  H16B15607   3.046   5.513   8.524  1.2927 -0.6454  0.0143
  127CHL1   C1715608   2.845   5.531   8.442 -0.3986  0.2750 -0.3590
  127CHL1   H1715609   2.858   5.636   8.477 -0.4312 -0.5193  2.1957
  127CHL1   C1315610   2.817   5.552   8.289 -0.4346 -0.3032  0.1915
  127CHL1   C1815611   2.757   5.425   8.225 -0.3189  0.2228 -0.3496
  127CHL1  H18A15612   2.784   5.416   8.118  2.5016 -1.9084  0.4214
  127CHL1  H18B15613   2.806   5.344   8.283  1.9971  1.5745 -0.3170
  127CHL1  H18C15614   2.648   5.419   8.248 -0.7038  1.9811 -1.5536
  127CHL1   C1215615   2.751   5.683   8.249  0.2367 -0.9774  0.3202
  127CHL1  H12A15616   2.642   5.666   8.263  0.3360 -1.1241  0.9565
  127CHL1  H12B15617   2.788   5.764   8.315 -2.0586 -1.4131  2.2669
  127CHL1   C1115618   2.774   5.721   8.094  0.4914  0.0768 -0.3154
  127CHL1  H11A15619   2.719   5.646   8.033 -0.3605 -1.0709  1.7574
  127CHL1  H11B15620   2.714   5.814   8.079 -2.4968 -1.9495 -2.0751
  127CHL1    C915621   2.921   5.726   8.063 -0.5093 -0.0032  0.1999
  127CHL1    H915622   2.962   5.808   8.126  1.0660 -0.2283 -0.4996
  127CHL1   C1015623   2.955   5.756   7.914 -0.4559 -0.6193  0.4857
  127CHL1   C1915624   2.868   5.658   7.826 -0.3045  0.4316  0.4970
  127CHL1  H19A15625   2.895   5.649   7.718 -0.6311  0.0163  0.4473
  127CHL1  H19B15626   2.852   5.555   7.865  0.5076  0.1340  0.0790
  127CHL1  H19C15627   2.763   5.693   7.816  0.2051  1.2600 -3.7282
  127CHL1    C115628   2.922   5.906   7.894  0.3504 -0.2546  0.5295
  127CHL1   H1A15629   2.811   5.918   7.894  0.4437  1.2324 -1.7350
  127CHL1   H1B15630   2.980   5.957   7.973 -0.6853  1.2113  0.3815
  127CHL1    C215631   2.971   5.965   7.759 -0.6657 -0.8049  0.1290
  127CHL1   H2A15632   2.963   6.076   7.758  1.0905 -0.6040  2.0293
  127CHL1   H2B15633   2.910   5.926   7.675 -2.3786  2.9678 -0.5944
  127CHL1   C2015634   2.727   5.467   8.525  0.2851  0.1337 -0.2907
  127CHL1   H2015635   2.709   5.365   8.484  1.5535 -0.4516  0.5492
  127CHL1   C2115636   2.590   5.545   8.514  0.6662  0.0274 -0.1719
  127CHL1  H21A15637   2.557   5.532   8.408  2.5785 -3.5627 -0.4827
  127CHL1  H21B15638   2.592   5.649   8.553  1.1169  0.4949 -1.3801
  127CHL1  H21C15639   2.515   5.493   8.576 -0.4231  0.8839 -0.7385
  127CHL1   C2215640   2.764   5.440   8.674 -0.1777 -0.6437  0.1999
  127CHL1  H22A15641   2.689   5.379   8.729  0.5037 -3.8687 -2.1593
  127CHL1  H22B15642   2.861   5.388   8.688  1.6079  2.9316  2.9085
  127CHL1   C2315643   2.790   5.567   8.749 -0.2944 -0.6820 -0.7935
  127CHL1  H23A15644   2.878   5.624   8.714 -2.0657  2.5763 -0.3865
  127CHL1  H23B15645   2.705   5.636   8.730 -0.7772 -1.1714 -0.4403
  127CHL1   C2415646   2.802   5.553   8.898  0.5005  0.6804 -0.4030
  127CHL1  H24A15647   2.712   5.510   8.947  2.6753 -0.5865  2.7726
  127CHL1  H24B15648   2.877   5.473   8.916  0.1635  0.0107 -1.8115
  127CHL1   C2515649   2.848   5.678   8.976 -0.3683  0.2077  0.0843
  127CHL1   H2515650   2.875   5.635   9.074 -0.9865 -2.4503 -0.8102
  127CHL1   C2615651   2.980   5.741   8.926  0.4263  0.0488  0.3301
  127CHL1  H26A15652   2.970   5.801   8.833 -4.4495  0.1011  0.6266
  127CHL1  H26B15653   2.995   5.833   8.986 -1.1151  0.3643  0.2866
  127CHL1  H26C15654   3.065   5.672   8.943 -0.1288 -0.1961  2.4466
  127CHL1   C2715655   2.732   5.781   8.980 -0.1803  0.2789 -0.2874
  127CHL1  H27A15656   2.767   5.881   9.015  0.6907  0.7963 -2.4520
  127CHL1  H27B15657   2.704   5.801   8.874 -2.1790 -0.8602 -0.0105
  127CHL1  H27C15658   2.650   5.739   9.041  0.7122 -1.9684 -0.5387
  128CHL1    C315659   2.051   1.707   8.053 -0.5333 -0.2995 -0.0433
  128CHL1    H315660   2.033   1.810   8.014  2.0216  0.3410  0.2539
  128CHL1    O315661   1.967   1.622   7.976  0.3416  0.4298  0.2703
  128CHL1   H3'15662   2.028   1.577   7.917 -0.8616 -0.8078 -0.0740
  128CHL1    C415663   2.200   1.661   8.041 -0.3265 -0.6504 -0.0368
  128CHL1   H4A15664   2.210   1.558   8.082 -1.2810 -0.8731 -0.3340
  128CHL1   H4B15665   2.212   1.648   7.931 -0.6959  2.1194 -0.4770
  128CHL1    C515666   2.293   1.752   8.119  0.1353 -0.2203 -0.4140
  128CHL1    C615667   2.387   1.818   8.057 -0.0776  0.3040 -0.3070
  128CHL1    H615668   2.411   1.792   7.952 -1.4478 -1.2533 -0.2649
  128CHL1    C715669   2.483   1.914   8.132 -0.1856  0.0309 -0.1364
  128CHL1   H7A15670   2.584   1.888   8.095 -0.8636 -1.1148 -1.2491
  128CHL1   H7B15671   2.457   2.016   8.095  1.2389 -0.2653 -2.1350
  128CHL1    C815672   2.474   1.904   8.287  0.4389  0.8163 -0.4781
  128CHL1    H815673   2.527   1.812   8.319 -1.8394 -1.0352 -1.6864
  128CHL1   C1415674   2.528   2.031   8.352 -0.8280  0.1059 -0.2471
  128CHL1   H1415675   2.466   2.120   8.328 -0.3559  0.6528  0.4836
  128CHL1   C1515676   2.673   2.074   8.306 -0.5032  0.2885 -0.6852
  128CHL1  H15A15677   2.736   1.983   8.291  0.5427  0.8357  0.2301
  128CHL1  H15B15678   2.672   2.116   8.203 -2.9307 -1.5023 -1.4724
  128CHL1   C1615679   2.731   2.164   8.414 -0.0370 -0.1163  0.3789
  128CHL1  H16A15680   2.828   2.116   8.440  0.1213  0.3510  0.6639
  128CHL1  H16B15681   2.740   2.272   8.387  0.7767 -0.1447  0.5047
  128CHL1   C1715682   2.624   2.156   8.532  0.2916 -0.2480  0.7248
  128CHL1   H1715683   2.551   2.235   8.509  0.9551 -0.0635 -0.9001
  128CHL1   C1315684   2.539   2.028   8.506  1.2362  0.0149 -0.8975
  128CHL1   C1815685   2.625   1.904   8.555 -0.2158 -0.6054  0.3041
  128CHL1  H18A15686   2.723   1.900   8.504 -0.6963 -2.3649 -0.5672
  128CHL1  H18B15687   2.641   1.907   8.665 -0.7774  1.0267  0.3647
  128CHL1  H18C15688   2.581   1.805   8.530 -1.4052 -0.0776  0.2223
  128CHL1   C1215689   2.389   2.031   8.552 -0.1011 -0.3569  0.7542
  128CHL1  H12A15690   2.382   2.024   8.663 -0.5116  1.8281  0.9096
  128CHL1  H12B15691   2.336   2.120   8.513  0.4081 -0.2843  0.2104
  128CHL1   C1115692   2.314   1.914   8.488 -0.1076  0.6361 -0.0809
  128CHL1  H11A15693   2.348   1.819   8.535  3.2377  1.0499 -1.3683
  128CHL1  H11B15694   2.206   1.922   8.511 -0.6063 -0.2909 -1.9726
  128CHL1    C915695   2.328   1.894   8.333 -0.2433  1.0029  0.9915
  128CHL1    H915696   2.280   1.984   8.289 -0.0567 -0.1133 -1.6237
  128CHL1   C1015697   2.256   1.773   8.264  0.0461 -0.2208 -1.1969
  128CHL1   C1915698   2.300   1.646   8.350 -0.1599 -0.0356  0.1296
  128CHL1  H19A15699   2.255   1.653   8.452 -2.8801  1.8301 -1.0709
  128CHL1  H19B15700   2.265   1.553   8.300  1.6531 -0.1797 -0.9410
  128CHL1  H19C15701   2.410   1.646   8.366 -0.0895  1.8824 -0.1397
  128CHL1    C115702   2.099   1.791   8.284 -0.4764  0.5426 -0.5853
  128CHL1   H1A15703   2.050   1.798   8.383  0.8725 -1.8513  0.3438
  128CHL1   H1B15704   2.083   1.895   8.250  1.3164  0.4411 -1.8937
  128CHL1    C215705   2.009   1.701   8.196  0.0673 -0.2756  0.3172
  128CHL1   H2A15706   1.903   1.726   8.216 -0.3914  1.3456 -3.3305
  128CHL1   H2B15707   2.019   1.595   8.230 -0.1616 -0.4926 -0.2699
  128CHL1   C2015708   2.684   2.185   8.667  0.2109  0.2493 -0.2152
  128CHL1   H2015709   2.745   2.095   8.687 -0.8677 -0.7433 -1.3070
  128CHL1   C2115710   2.577   2.182   8.783 -0.1863 -0.0924  0.0286
  128CHL1  H21A15711   2.543   2.080   8.809  0.9953 -1.0326 -1.9292
  128CHL1  H21B15712   2.486   2.234   8.746 -1.0970 -0.9441  0.9874
  128CHL1  H21C15713   2.611   2.226   8.880  0.2534 -0.3462 -0.0105
  128CHL1   C2215714   2.763   2.318   8.694  0.1932  0.0730  0.3865
  128CHL1  H22A15715   2.797   2.359   8.596  1.3874 -0.5231  0.5243
  128CHL1  H22B15716   2.675   2.380   8.720 -0.1828  0.4713 -1.6339
  128CHL1   C2315717   2.873   2.322   8.800 -0.0687 -0.0373  0.6355
  128CHL1  H23A15718   2.833   2.270   8.890 -1.2096  0.3708  0.3713
  128CHL1  H23B15719   2.952   2.262   8.749 -1.4764 -1.2573 -0.1993
  128CHL1   C2415720   2.926   2.458   8.841  0.0995 -0.0170  0.3003
  128CHL1  H24A15721   2.936   2.525   8.753  0.4555 -0.6783 -0.1729
  128CHL1  H24B15722   2.843   2.495   8.905 -0.1335 -0.9905  0.5845
  128CHL1   C2515723   3.049   2.445   8.922 -0.5467 -0.4010 -0.3000
  128CHL1   H2515724   3.032   2.368   9.001 -0.9244 -1.0839 -1.0288
  128CHL1   C2615725   3.170   2.395   8.834 -0.2071  0.1427  0.1307
  128CHL1  H26A15726   3.268   2.395   8.886  0.6336 -3.0907 -1.1936
  128CHL1  H26B15727   3.149   2.291   8.799 -0.3451  0.1912  0.0697
  128CHL1  H26C15728   3.179   2.467   8.750 -2.3851 -0.9690 -1.1333
  128CHL1   C2715729   3.074   2.570   9.006 -0.3716 -0.4920 -0.4499
  128CHL1  H27A15730   3.168   2.576   9.065 -0.2552  0.0142 -0.6836
  128CHL1  H27B15731   3.063   2.658   8.940 -0.3549 -0.7097 -0.7464
  128CHL1  H27C15732   2.993   2.580   9.081 -0.1945  1.7081 -0.4838
  129CHL1    C315733   5.686   3.695   7.316 -0.0211  0.2562 -0.8322
  129CHL1    H315734   5.788   3.661   7.289  0.7131  0.6410  1.2714
  129CHL1    O315735   5.634   3.771   7.210 -0.2951  0.1231  0.5260
  129CHL1   H3'15736   5.562   3.820   7.250 -1.8078  0.6019 -2.4734
  129CHL1    C415737   5.601   3.563   7.320 -0.5779  0.2407  0.3690
  129CHL1   H4A15738   5.492   3.580   7.310 -0.9913 -2.0165  0.4634
  129CHL1   H4B15739   5.622   3.502   7.230 -1.4038 -1.0411  1.0002
  129CHL1    C515740   5.626   3.480   7.445  0.5471  0.4264  0.0271
  129CHL1    C615741   5.661   3.353   7.437  0.2029  0.3455  0.6703
  129CHL1    H615742   5.686   3.316   7.337 -1.6565  0.8022 -0.0072
  129CHL1    C715743   5.680   3.268   7.557  0.0796  0.8744 -0.4819
  129CHL1   H7A15744   5.634   3.169   7.535  1.3030  0.1245  0.2414
  129CHL1   H7B15745   5.787   3.273   7.586  0.7384  0.7430 -2.7248
  129CHL1    C815746   5.597   3.318   7.681 -0.2103  0.0720 -0.1610
  129CHL1    H815747   5.490   3.300   7.656  0.1825 -3.9691  0.3997
  129CHL1   C1415748   5.627   3.236   7.808  0.0159 -0.5256 -0.0927
  129CHL1   H1415749   5.737   3.254   7.814 -0.1538  0.6100 -0.1851
  129CHL1   C1515750   5.587   3.088   7.807  0.5305 -0.0887 -0.1539
  129CHL1  H15A15751   5.482   3.081   7.771 -0.3074 -0.0227  2.1386
  129CHL1  H15B15752   5.659   3.023   7.752  0.9326  0.5174 -0.3525
  129CHL1   C1615753   5.585   3.044   7.959 -0.2406 -0.3248  0.3779
  129CHL1  H16A15754   5.492   2.988   7.983  0.4133 -0.4744  2.8496
  129CHL1  H16B15755   5.670   2.974   7.978  0.0904 -0.0032  0.0796
  129CHL1   C1715756   5.597   3.178   8.038  0.2105 -0.1851 -0.2610
  129CHL1   H1715757   5.706   3.181   8.058  0.0762  1.8789  0.4272
  129CHL1   C1315758   5.568   3.290   7.937  0.3481  0.5050  0.2479
  129CHL1   C1815759   5.414   3.296   7.925  0.3300  0.8062  0.4198
  129CHL1  H18A15760   5.359   3.200   7.916  1.3349  0.4229 -2.9660
  129CHL1  H18B15761   5.379   3.355   8.012  1.4518 -0.7371  1.9637
  129CHL1  H18C15762   5.390   3.354   7.833  2.4316  1.5210  0.2747
  129CHL1   C1215763   5.614   3.434   7.960  0.1347 -0.2741 -0.1441
  129CHL1  H12A15764   5.572   3.488   8.048  0.4786 -1.1845  0.5916
  129CHL1  H12B15765   5.724   3.430   7.969 -0.0470 -0.2345  5.0012
  129CHL1   C1115766   5.576   3.512   7.837  0.4431 -0.6276 -0.0375
  129CHL1  H11A15767   5.468   3.539   7.836  1.0988  2.4539 -2.0631
  129CHL1  H11B15768   5.622   3.612   7.844 -0.5218 -0.0064 -1.8323
  129CHL1    C915769   5.624   3.465   7.698  0.2669  0.0588  0.1728
  129CHL1    H915770   5.735   3.470   7.707  0.4440  0.1965 -1.7637
  129CHL1   C1015771   5.589   3.549   7.575  0.0617  0.2417 -0.1819
  129CHL1   C1915772   5.439   3.587   7.572 -0.6001 -0.0848  0.2718
  129CHL1  H19A15773   5.415   3.628   7.673 -2.4464 -0.7443  0.1329
  129CHL1  H19B15774   5.413   3.668   7.500 -0.2550  1.2523  1.5871
  129CHL1  H19C15775   5.368   3.506   7.546 -1.0076  0.3683 -0.0605
  129CHL1    C115776   5.682   3.678   7.575  0.2681 -0.2404 -0.4199
  129CHL1   H1A15777   5.642   3.748   7.652 -1.8114  0.8121 -2.3484
  129CHL1   H1B15778   5.785   3.642   7.594  0.7212  0.2413 -1.8207
  129CHL1    C215779   5.671   3.770   7.452  0.5466  0.0967  0.5459
  129CHL1   H2A15780   5.749   3.850   7.453  0.4683  0.1824  1.5397
  129CHL1   H2B15781   5.569   3.815   7.455  0.4539 -0.1448  1.1475
  129CHL1   C2015782   5.545   3.184   8.189 -0.1674  0.4004  0.2204
  129CHL1   H2015783   5.435   3.200   8.181 -0.3186  0.5336  2.1205
  129CHL1   C2115784   5.612   3.300   8.262 -0.6850 -0.1684 -0.0828
  129CHL1  H21A15785   5.565   3.397   8.235  2.3598  1.3802 -0.3751
  129CHL1  H21B15786   5.721   3.310   8.240 -0.7640  1.1723  0.0257
  129CHL1  H21C15787   5.597   3.288   8.371 -1.8102  1.5813  0.0034
  129CHL1   C2215788   5.567   3.054   8.266 -0.7781  0.1459 -0.4447
  129CHL1  H22A15789   5.556   2.962   8.204 -3.6285  1.0374 -1.3845
  129CHL1  H22B15790   5.672   3.063   8.301 -0.4961  5.1968 -1.8043
  129CHL1   C2315791   5.484   3.040   8.395  0.0173 -0.3939  0.3563
  129CHL1  H23A15792   5.476   3.142   8.439 -0.7585  0.7657 -2.2906
  129CHL1  H23B15793   5.386   3.000   8.360  0.4801 -0.3208 -1.0527
  129CHL1   C2415794   5.540   2.933   8.494  0.4026  0.3277 -0.2553
  129CHL1  H24A15795   5.534   2.831   8.449 -2.0522  0.5330 -0.5445
  129CHL1  H24B15796   5.646   2.958   8.516 -0.7411  1.6181  5.4441
  129CHL1   C2515797   5.455   2.923   8.630 -0.2532  0.1490  0.5745
  129CHL1   H2515798   5.431   3.030   8.649 -0.5917 -0.0419  1.2661
  129CHL1   C2615799   5.334   2.841   8.605  0.8579  0.3331 -0.4602
  129CHL1  H26A15800   5.262   2.834   8.690  0.4013  0.7314 -0.8099
  129CHL1  H26B15801   5.273   2.885   8.523  0.4656 -1.8851 -1.4384
  129CHL1  H26C15802   5.365   2.739   8.576  2.6391  0.0005  2.2476
  129CHL1   C2715803   5.530   2.862   8.752 -0.2774 -0.6954 -0.1722
  129CHL1  H27A15804   5.469   2.854   8.845  0.0264 -1.4164 -0.0323
  129CHL1  H27B15805   5.560   2.759   8.723  0.4444 -0.8658  1.1107
  129CHL1  H27C15806   5.610   2.938   8.768 -0.3761  0.0110 -2.5600
  130CHL1    C315807   1.570   5.993   7.322 -0.0798 -0.2658  0.2089
  130CHL1    H315808   1.461   5.972   7.317 -0.1429 -0.7028  2.3187
  130CHL1    O315809   1.614   6.031   7.197  0.3546  0.2108  0.7374
  130CHL1   H3'15810   1.705   6.057   7.214  0.9074 -0.0710 -1.5000
  130CHL1    C415811   1.598   6.103   7.423  0.0289 -0.3474  0.2307
  130CHL1   H4A15812   1.706   6.129   7.426 -0.5257  2.4222 -0.6931
  130CHL1   H4B15813   1.552   6.199   7.390  0.0317  0.4186  2.3105
  130CHL1    C515814   1.542   6.065   7.558 -0.7230  0.8047 -0.6469
  130CHL1    C615815   1.459   6.143   7.627  0.3810  0.2013  0.3375
  130CHL1    H615816   1.425   6.242   7.593 -0.0791  0.6199  1.9251
  130CHL1    C715817   1.420   6.111   7.763  0.3818 -0.5875 -0.4020
  130CHL1   H7A15818   1.413   6.196   7.834 -0.7923 -1.5839  0.7243
  130CHL1   H7B15819   1.314   6.080   7.753 -0.5127  1.1620  2.5197
  130CHL1    C815820   1.503   6.005   7.833  0.1278 -0.1205 -0.1839
  130CHL1    H815821   1.597   6.054   7.867 -0.7782  1.2709  0.4024
  130CHL1   C1415822   1.431   5.964   7.957 -0.2096 -0.6715  0.1485
  130CHL1   H1415823   1.335   5.917   7.928  0.1497 -2.2901  1.4305
  130CHL1   C1515824   1.401   6.074   8.064  0.2115  0.6825  0.0174
  130CHL1  H15A15825   1.468   6.163   8.059  1.3757  0.1587  3.5564
  130CHL1  H15B15826   1.294   6.095   8.045 -0.8189 -1.2411  2.9531
  130CHL1   C1615827   1.403   5.999   8.194 -0.6744 -0.3277  0.1970
  130CHL1  H16A15828   1.493   6.029   8.251 -0.2854  1.7150 -1.3639
  130CHL1  H16B15829   1.320   6.018   8.265  0.1140 -1.3022  1.4165
  130CHL1   C1715830   1.412   5.850   8.160 -0.0375  0.0021  0.9754
  130CHL1   H1715831   1.311   5.817   8.128  0.1647  1.7842 -1.7613
  130CHL1   C1315832   1.505   5.854   8.034 -0.6608  0.1384  0.4153
  130CHL1   C1815833   1.648   5.903   8.071  0.3426 -0.8386 -0.5478
  130CHL1  H18A15834   1.726   5.916   7.993 -0.0322  1.2110 -0.6496
  130CHL1  H18B15835   1.659   6.000   8.125 -2.8785 -0.5109 -0.2675
  130CHL1  H18C15836   1.686   5.821   8.135 -0.7826 -0.4572  0.6492
  130CHL1   C1215837   1.512   5.722   7.943 -0.4396 -0.6985  0.0771
  130CHL1  H12A15838   1.568   5.639   7.992  0.9537  0.8978  1.3249
  130CHL1  H12B15839   1.409   5.688   7.919 -0.7920 -0.5683  1.3510
  130CHL1   C1115840   1.580   5.756   7.806 -0.6299 -0.1934  0.3130
  130CHL1  H11A15841   1.688   5.778   7.822 -0.8042 -0.1081  1.4421
  130CHL1  H11B15842   1.564   5.669   7.739  0.3673  0.7995 -1.2860
  130CHL1    C915843   1.527   5.889   7.737 -0.2721 -1.0029  0.0042
  130CHL1    H915844   1.425   5.861   7.704  1.3545 -2.3899 -4.6793
  130CHL1   C1015845   1.600   5.931   7.613 -0.4484  0.4065  0.6133
  130CHL1   C1915846   1.756   5.938   7.643  0.7386 -0.2200  0.3578
  130CHL1  H19A15847   1.793   5.835   7.659  1.5419  0.2048  1.3121
  130CHL1  H19B15848   1.818   5.983   7.562 -1.5120  1.0013 -0.7915
  130CHL1  H19C15849   1.770   5.996   7.736 -1.0713 -0.4991  0.8452
  130CHL1    C115850   1.582   5.820   7.500  0.1617  0.1017 -0.0308
  130CHL1   H1A15851   1.641   5.728   7.517  3.1640  1.6361 -1.3749
  130CHL1   H1B15852   1.476   5.788   7.492 -0.0126  0.5627  0.3722
  130CHL1    C215853   1.631   5.861   7.361 -0.7970 -0.4244  0.0098
  130CHL1   H2A15854   1.602   5.775   7.295  1.1072 -0.5944 -0.6760
  130CHL1   H2B15855   1.742   5.862   7.357 -0.7963 -1.7788 -2.7414
  130CHL1   C2015856   1.463   5.756   8.277 -0.3496 -0.2403 -0.3574
  130CHL1   H2015857   1.574   5.759   8.283 -0.2790 -1.9811 -0.4687
  130CHL1   C2115858   1.416   5.613   8.256  0.0286 -0.5946 -0.3248
  130CHL1  H21A15859   1.486   5.547   8.312  0.0011 -0.0928  0.2990
  130CHL1  H21B15860   1.438   5.583   8.151  2.2371 -0.2116  0.0002
  130CHL1  H21C15861   1.308   5.606   8.281 -0.0739  0.6442 -0.4017
  130CHL1   C2215862   1.419   5.805   8.417 -0.2037 -0.2415 -0.4782
  130CHL1  H22A15863   1.447   5.912   8.421 -2.7838  0.5459 -1.3039
  130CHL1  H22B15864   1.308   5.807   8.424 -0.2035  3.5957  0.7074
  130CHL1   C2315865   1.486   5.733   8.532  0.1906  0.4247  0.6276
  130CHL1  H23A15866   1.440   5.634   8.553  0.1594  0.2467 -0.2610
  130CHL1  H23B15867   1.587   5.705   8.493 -0.0744  1.0060 -0.5105
  130CHL1   C2415868   1.493   5.807   8.666  0.6302 -0.2315  0.2758
  130CHL1  H24A15869   1.389   5.833   8.696 -0.3273  0.3988 -3.0785
  130CHL1  H24B15870   1.550   5.750   8.742  0.2715 -2.4655 -1.0472
  130CHL1   C2515871   1.570   5.936   8.663 -0.4466  0.1567  0.1624
  130CHL1   H2515872   1.523   6.011   8.596  1.5300 -1.3922 -3.2078
  130CHL1   C2615873   1.580   5.996   8.803  0.5707  0.1980 -0.1261
  130CHL1  H26A15874   1.639   6.090   8.801  1.7672 -0.5262  0.1952
  130CHL1  H26B15875   1.476   6.015   8.836  1.2137  1.5863  1.1899
  130CHL1  H26C15876   1.623   5.919   8.870  1.9757  0.1527 -1.0433
  130CHL1   C2715877   1.709   5.912   8.610 -0.0263 -0.1378 -0.0262
  130CHL1  H27A15878   1.777   6.001   8.613  0.8950 -0.8456  0.6197
  130CHL1  H27B15879   1.758   5.835   8.673  1.0828 -0.5335 -1.3102
  130CHL1  H27C15880   1.701   5.872   8.507  0.4489 -0.4827  0.0679
  131CHL1    C315881   0.762   4.410   7.704 -0.3243 -0.4559 -0.0268
  131CHL1    H315882   0.850   4.459   7.752 -0.4455 -0.3181  0.0549
  131CHL1    O315883   0.744   4.486   7.587  0.7296  0.5038  0.3871
  131CHL1   H3'15884   0.678   4.550   7.616  1.2930  1.0735  0.4391
  131CHL1    C415885   0.804   4.266   7.658 -0.2849  0.7951  0.4274
  131CHL1   H4A15886   0.713   4.240   7.600 -0.1614  1.2097  0.0461
  131CHL1   H4B15887   0.883   4.273   7.581  0.2774  1.3334  1.0346
  131CHL1    C515888   0.822   4.165   7.771  0.8724  0.2228  0.4077
  131CHL1    C615889   0.932   4.096   7.784 -0.1287  0.2562 -0.4531
  131CHL1    H615890   1.004   4.105   7.702 -0.6212 -2.8857 -1.3479
  131CHL1    C715891   0.969   3.985   7.886 -0.0898  0.2797 -0.2573
  131CHL1   H7A15892   0.998   3.892   7.833  2.8106 -0.5821  2.5730
  131CHL1   H7B15893   1.053   4.019   7.950 -0.8010 -0.3646  1.0726
  131CHL1    C815894   0.841   3.958   7.975 -0.4716 -0.2861 -0.1579
  131CHL1    H815895   0.782   3.889   7.911 -0.9180  0.3281 -0.4158
  131CHL1   C1415896   0.883   3.882   8.103  0.2490 -0.2339  0.3006
  131CHL1   H1415897   0.942   3.958   8.158  1.2534  1.0189 -2.3388
  131CHL1   C1515898   0.983   3.765   8.099 -0.3237  0.0039 -0.1651
  131CHL1  H15A15899   0.948   3.694   8.022 -2.0018 -1.5301  1.8899
  131CHL1  H15B15900   1.087   3.800   8.079  0.4091 -1.0931  1.4847
  131CHL1   C1615901   0.974   3.707   8.242  0.5932 -0.8843  0.3475
  131CHL1  H16A15902   0.971   3.596   8.239  0.5204 -0.9186  1.3330
  131CHL1  H16B15903   1.074   3.715   8.290  0.7399  0.4036 -0.1443
  131CHL1   C1715904   0.857   3.775   8.311 -0.1395  0.0213 -0.5635
  131CHL1   H1715905   0.894   3.873   8.350 -1.4790 -0.0318  0.9704
  131CHL1   C1315906   0.769   3.831   8.189  0.0512 -0.0521  0.1125
  131CHL1   C1815907   0.683   3.712   8.132 -0.1031  1.0911 -0.2789
  131CHL1  H18A15908   0.734   3.614   8.127  0.5383  1.3160  1.2358
  131CHL1  H18B15909   0.591   3.702   8.194 -0.0071 -0.5971 -0.3711
  131CHL1  H18C15910   0.655   3.740   8.029 -1.8801 -2.4662 -0.8864
  131CHL1   C1215911   0.682   3.952   8.219  0.0580 -0.5099  0.2800
  131CHL1  H12A15912   0.586   3.938   8.273  0.9559  1.3793  2.5545
  131CHL1  H12B15913   0.737   4.027   8.280 -3.4147  2.8970 -0.4007
  131CHL1   C1115914   0.636   4.033   8.100 -0.9835 -0.5138  0.6755
  131CHL1  H11A15915   0.574   3.967   8.036  0.3984 -0.0505 -1.2121
  131CHL1  H11B15916   0.569   4.116   8.132 -0.8215 -0.5261  1.0600
  131CHL1    C915917   0.749   4.077   8.006  0.1583 -1.0740 -0.4246
  131CHL1    H915918   0.818   4.140   8.066  1.5709 -2.7528 -0.2171
  131CHL1   C1015919   0.710   4.158   7.876 -0.8214  0.3569 -0.9173
  131CHL1   C1915920   0.592   4.089   7.806  0.5167 -0.0915  0.0037
  131CHL1  H19A15921   0.575   4.135   7.706 -1.8033  0.5278  0.6170
  131CHL1  H19B15922   0.610   3.980   7.795  1.7212  0.0587  0.4107
  131CHL1  H19C15923   0.502   4.097   7.871  1.4272 -0.6898  1.3867
  131CHL1    C115924   0.670   4.299   7.918  0.1624 -0.3506  0.4350
  131CHL1   H1A15925   0.570   4.293   7.968  0.7108  0.0459  1.6150
  131CHL1   H1B15926   0.747   4.347   7.981  0.5803 -0.6085  0.1248
  131CHL1    C215927   0.642   4.395   7.796  0.3947  1.2458 -0.1225
  131CHL1   H2A15928   0.630   4.499   7.832  0.4625  1.4677 -0.7144
  131CHL1   H2B15929   0.545   4.371   7.747  0.1886 -0.7888  1.1641
  131CHL1   C2015930   0.790   3.697   8.419 -0.2116 -0.7701  0.7133
  131CHL1   H2015931   0.735   3.607   8.382 -2.0168  0.8349 -0.7349
  131CHL1   C2115932   0.682   3.786   8.496  0.6842  0.0555  0.7909
  131CHL1  H21A15933   0.729   3.881   8.530  0.1730  1.2768 -1.6559
  131CHL1  H21B15934   0.638   3.720   8.573  0.6623 -0.6942  0.1485
  131CHL1  H21C15935   0.590   3.807   8.436  1.8071  0.7791 -0.7521
  131CHL1   C2215936   0.893   3.647   8.525  0.3213  0.2236 -0.0574
  131CHL1  H22A15937   0.984   3.595   8.486 -0.1199 -0.7534  0.1785
  131CHL1  H22B15938   0.920   3.729   8.595 -1.5429  1.9316 -1.2370
  131CHL1   C2315939   0.835   3.540   8.621 -0.0515  0.1863 -0.3025
  131CHL1  H23A15940   0.745   3.574   8.677 -0.9167 -0.7747 -1.0632
  131CHL1  H23B15941   0.794   3.457   8.559 -0.7951  0.5976 -0.3648
  131CHL1   C2415942   0.940   3.494   8.726 -0.4829  0.2295  0.3604
  131CHL1  H24A15943   1.028   3.457   8.669  1.0770  1.2606  1.9785
  131CHL1  H24B15944   0.981   3.577   8.788  1.4245  0.0841 -0.6438
  131CHL1   C2515945   0.907   3.378   8.821 -0.3284 -0.9670  0.4196
  131CHL1   H2515946   0.804   3.392   8.863 -0.6116 -0.6463 -0.3716
  131CHL1   C2615947   0.914   3.239   8.752 -0.9352  0.0906 -0.6587
  131CHL1  H26A15948   0.850   3.225   8.662  0.5661 -1.7819 -1.5233
  131CHL1  H26B15949   1.021   3.220   8.729 -0.5234  1.5516 -0.0820
  131CHL1  H26C15950   0.885   3.156   8.819  0.5497 -0.1133 -0.2219
  131CHL1   C2715951   1.005   3.373   8.937  0.6336  0.0711 -0.4662
  131CHL1  H27A15952   1.112   3.374   8.908  1.2237 -0.2170  1.5547
  131CHL1  H27B15953   0.987   3.470   8.987 -1.9139 -0.0058 -1.0981
  131CHL1  H27C15954   0.990   3.286   9.004 -0.2745 -0.8158 -1.7607
  132CHL1    C315955   4.104   5.192   7.667 -0.1417 -0.3387 -0.3805
  132CHL1    H315956   4.090   5.082   7.676 -1.4302 -0.1903 -0.3083
  132CHL1    O315957   4.072   5.227   7.530 -0.3565  0.6806 -0.0656
  132CHL1   H3'15958   4.058   5.322   7.525 -2.3004  0.4164 -0.4211
  132CHL1    C415959   3.992   5.247   7.751  0.2153 -0.4889 -0.2181
  132CHL1   H4A15960   3.989   5.357   7.735  2.1489  0.2366  3.4002
  132CHL1   H4B15961   3.894   5.201   7.727 -1.3246  2.4633 -0.1072
  132CHL1    C515962   4.021   5.238   7.903  0.0188 -0.2820  0.8666
  132CHL1    C615963   3.935   5.172   7.983 -0.1594  0.1587 -0.1205
  132CHL1    H615964   3.844   5.125   7.942  0.7194 -2.1090  0.3703
  132CHL1    C715965   3.959   5.165   8.130  0.3450  0.3723 -0.5318
  132CHL1   H7A15966   3.865   5.202   8.177 -0.1687  0.2402 -1.4276
  132CHL1   H7B15967   3.968   5.059   8.163 -1.6552 -1.2588 -4.4889
  132CHL1    C815968   4.076   5.250   8.185  0.1740 -0.4401  0.0731
  132CHL1    H815969   4.047   5.357   8.197  1.2100 -0.1320 -0.1081
  132CHL1   C1415970   4.111   5.215   8.333 -0.0832  0.3733  0.1054
  132CHL1   H1415971   4.140   5.108   8.331 -0.0241  0.3997 -0.8780
  132CHL1   C1515972   3.995   5.209   8.439 -0.5468 -0.3939 -0.1012
  132CHL1  H15A15973   3.932   5.301   8.430  0.7137  0.9494  3.0446
  132CHL1  H15B15974   3.934   5.117   8.438 -1.2007  0.0323 -0.6380
  132CHL1   C1615975   4.080   5.227   8.573 -0.1540 -0.1173 -0.1797
  132CHL1  H16A15976   4.043   5.320   8.621  0.0370 -0.4288  0.5814
  132CHL1  H16B15977   4.053   5.139   8.634 -2.1902  1.2944  1.0826
  132CHL1   C1715978   4.236   5.225   8.536  0.4929  0.1038  0.3092
  132CHL1   H1715979   4.282   5.127   8.512  1.1817  0.6121 -0.5045
  132CHL1   C1315980   4.233   5.284   8.395  0.5120 -0.8320  0.0928
  132CHL1   C1815981   4.196   5.438   8.400  0.2846 -0.1366  0.4203
  132CHL1  H18A15982   4.195   5.481   8.297 -1.8699  0.4599  0.6444
  132CHL1  H18B15983   4.098   5.458   8.449 -1.1025  0.3383 -2.3316
  132CHL1  H18C15984   4.269   5.506   8.449  0.3260  0.3694 -0.3108
  132CHL1   C1215985   4.355   5.251   8.300  0.2657 -0.7600 -1.1872
  132CHL1  H12A15986   4.431   5.317   8.347 -1.1248 -0.2663  0.5137
  132CHL1  H12B15987   4.387   5.146   8.315  0.3245 -0.2560  4.8735
  132CHL1   C1115988   4.329   5.285   8.157  0.1141  0.5890  0.3785
  132CHL1  H11A15989   4.337   5.395   8.161 -0.2826  0.5888  1.3726
  132CHL1  H11B15990   4.413   5.237   8.102 -1.7056 -2.1196 -0.2362
  132CHL1    C915991   4.191   5.240   8.088 -0.3079  0.2939  0.1658
  132CHL1    H915992   4.203   5.131   8.074 -0.3926  0.2948  0.0772
  132CHL1   C1015993   4.159   5.292   7.945  0.8366 -0.0409 -0.1884
  132CHL1   C1915994   4.158   5.447   7.955  0.2130 -0.0927 -0.6078
  132CHL1  H19A15995   4.062   5.485   7.996 -0.4755 -0.5218 -1.7714
  132CHL1  H19B15996   4.241   5.494   8.011 -1.1475  0.3304  1.1264
  132CHL1  H19C15997   4.180   5.485   7.853  3.3918  0.8398  0.3098
  132CHL1    C115998   4.267   5.237   7.858 -0.2717 -1.1012  0.3719
  132CHL1   H1A15999   4.353   5.301   7.884  0.2461 -2.5462  2.4764
  132CHL1   H1B16000   4.307   5.137   7.886  1.7178 -0.9871 -1.7247
  132CHL1    C216001   4.238   5.249   7.708  0.0643  0.0824  0.2109
  132CHL1   H2A16002   4.312   5.189   7.651  1.2552  0.7138  1.0547
  132CHL1   H2B16003   4.246   5.355   7.674 -0.6100  0.0847  0.0511
  132CHL1   C2016004   4.319   5.291   8.647  0.0941 -0.6674 -0.7124
  132CHL1   H2016005   4.274   5.391   8.665  3.1545  0.5792  0.9982
  132CHL1   C2116006   4.468   5.316   8.610  0.1216 -0.6447 -0.0212
  132CHL1  H21A16007   4.470   5.391   8.527  3.3672  0.4597  0.9180
  132CHL1  H21B16008   4.519   5.221   8.586 -0.3287 -1.0092  0.4536
  132CHL1  H21C16009   4.517   5.369   8.694 -1.6923  0.1835  0.5664
  132CHL1   C2216010   4.308   5.217   8.782  0.1398 -0.0626  0.1525
  132CHL1  H22A16011   4.381   5.265   8.851  2.2153 -0.4930 -1.6117
  132CHL1  H22B16012   4.206   5.222   8.825 -0.5939 -1.6559 -1.2648
  132CHL1   C2316013   4.348   5.071   8.781  0.3606 -0.2630 -0.0961
  132CHL1  H23A16014   4.270   5.013   8.728  0.9173 -1.7950  0.6896
  132CHL1  H23B16015   4.440   5.054   8.722  0.1111 -3.0718  0.1915
  132CHL1   C2416016   4.378   5.013   8.915 -0.2743  0.2660 -0.0535
  132CHL1  H24A16017   4.441   5.075   8.984 -1.0605 -0.2811  1.1948
  132CHL1  H24B16018   4.289   5.002   8.980 -0.1730  2.3048  0.5077
  132CHL1   C2516019   4.463   4.881   8.912 -0.0255 -0.4113 -0.1746
  132CHL1   H2516020   4.557   4.912   8.863 -0.9571  1.0392 -1.1185
  132CHL1   C2616021   4.487   4.825   9.059  0.6785  0.1424 -0.2475
  132CHL1  H26A16022   4.562   4.744   9.052  0.3973 -0.1816  0.3759
  132CHL1  H26B16023   4.525   4.906   9.124  2.4562 -0.1704 -0.8482
  132CHL1  H26C16024   4.385   4.791   9.087  0.7476  0.6588  0.6880
  132CHL1   C2716025   4.398   4.765   8.836 -0.0438 -0.3363  0.1092
  132CHL1  H27A16026   4.303   4.739   8.886  1.4709  2.4232  5.1682
  132CHL1  H27B16027   4.394   4.784   8.727  1.2132  0.3425  0.1567
  132CHL1  H27C16028   4.462   4.676   8.853  0.1337 -0.9141 -3.0498
  133CHL1    C316029   0.808   1.142   8.050  0.1812 -0.4329  0.3350
  133CHL1    H316030   0.788   1.250   8.036 -0.6945 -0.8566 -2.4159
  133CHL1    O316031   0.765   1.072   7.936  0.1037 -0.4650 -0.4068
  133CHL1   H3'16032   0.831   1.008   7.909  1.3905  0.8700 -0.5928
  133CHL1    C416033   0.960   1.117   8.075 -0.1015 -0.6461  0.2789
  133CHL1   H4A16034   0.975   1.008   8.066  2.0421 -0.3547 -0.3964
  133CHL1   H4B16035   1.016   1.164   7.991 -0.8567  0.7985  0.5532
  133CHL1    C516036   1.007   1.160   8.218  0.4616  0.3541  0.1268
  133CHL1    C616037   1.105   1.248   8.225 -0.6247  0.1534  0.2422
  133CHL1    H616038   1.134   1.291   8.127 -1.3098  0.5930  0.2243
  133CHL1    C716039   1.163   1.312   8.344 -0.4190  0.2791  0.5541
  133CHL1   H7A16040   1.273   1.327   8.342 -0.5307  1.4798 -2.6397
  133CHL1   H7B16041   1.116   1.412   8.335 -0.7661  0.1572  1.0052
  133CHL1    C816042   1.110   1.247   8.479 -0.5705  0.4251  0.1996
  133CHL1    H816043   1.168   1.152   8.482  1.8971  1.8741  1.5256
  133CHL1   C1416044   1.139   1.339   8.594  0.8700 -0.1478  0.2763
  133CHL1   H1416045   1.070   1.425   8.575 -0.6385 -1.0496  1.4584
  133CHL1   C1516046   1.283   1.389   8.625  0.1507 -0.2874  0.5688
  133CHL1  H15A16047   1.363   1.313   8.618 -0.6654 -0.9871 -2.6818
  133CHL1  H15B16048   1.304   1.472   8.554 -2.3278  0.4145  0.5473
  133CHL1   C1616049   1.265   1.440   8.768 -0.0797 -0.2354 -0.2875
  133CHL1  H16A16050   1.347   1.389   8.822  3.1486  2.2436 -2.4727
  133CHL1  H16B16051   1.287   1.549   8.772  2.5869 -0.6706 -1.0032
  133CHL1   C1716052   1.126   1.401   8.817 -0.1007  0.1173 -0.3345
  133CHL1   H1716053   1.067   1.490   8.784 -1.1861 -0.2133  0.6383
  133CHL1   C1316054   1.088   1.281   8.731 -0.4703 -0.5926  0.1232
  133CHL1   C1816055   1.170   1.156   8.772  0.2697  0.1890 -0.6911
  133CHL1  H18A16056   1.141   1.123   8.875 -1.3277  1.7487 -0.5901
  133CHL1  H18B16057   1.155   1.080   8.693 -0.4562  1.6907 -2.0550
  133CHL1  H18C16058   1.279   1.175   8.771  0.2542  0.3116 -0.2906
  133CHL1   C1216059   0.941   1.248   8.718  0.8754  0.1027 -0.4632
  133CHL1  H12A16060   0.906   1.184   8.802  1.0437 -0.7026 -0.9958
  133CHL1  H12B16061   0.882   1.343   8.708 -0.8473 -0.9223 -0.4851
  133CHL1   C1116062   0.900   1.162   8.591 -0.2811 -0.1310 -1.0236
  133CHL1  H11A16063   0.941   1.060   8.609 -0.1581 -0.4751 -3.0445
  133CHL1  H11B16064   0.791   1.144   8.584 -0.6418  1.8601 -1.1461
  133CHL1    C916065   0.958   1.215   8.458  0.6254 -0.1513 -0.2925
  133CHL1    H916066   0.903   1.306   8.427  0.8859 -0.0324 -0.4090
  133CHL1   C1016067   0.921   1.118   8.339  0.3672  0.1964  0.6268
  133CHL1   C1916068   0.944   0.968   8.378 -0.3304 -0.1289  0.2088
  133CHL1  H19A16069   1.050   0.945   8.398 -0.1297 -0.2238 -0.9042
  133CHL1  H19B16070   0.875   0.949   8.464  0.3626 -1.0386  0.5783
  133CHL1  H19C16071   0.911   0.903   8.294  1.4541 -1.4114  0.4447
  133CHL1    C116072   0.765   1.129   8.306 -0.5245  0.0362  0.4940
  133CHL1   H1A16073   0.706   1.064   8.375 -0.4431 -0.8303 -0.2425
  133CHL1   H1B16074   0.747   1.237   8.326 -0.1946 -0.0613  1.3722
  133CHL1    C216075   0.724   1.087   8.167 -0.1995 -0.1105  0.1234
  133CHL1   H2A16076   0.619   1.120   8.151 -0.2974 -0.8624 -0.8777
  133CHL1   H2B16077   0.717   0.977   8.151 -1.1907  0.1104 -1.1205
  133CHL1   C2016078   1.102   1.388   8.970  0.4405 -0.3033  0.0534
  133CHL1   H2016079   1.137   1.284   8.989  0.1779 -1.1150 -3.3617
  133CHL1   C2116080   0.950   1.402   8.984 -0.0295  0.0695 -0.1200
  133CHL1  H21A16081   0.907   1.469   8.907 -1.2789 -0.3419  0.1918
  133CHL1  H21B16082   0.926   1.436   9.087  0.4899  2.3371 -0.6996
  133CHL1  H21C16083   0.890   1.310   8.966  1.5293 -0.5345 -2.7750
  133CHL1   C2216084   1.174   1.501   9.059 -0.1336 -0.2787  0.5263
  133CHL1  H22A16085   1.273   1.520   9.011  1.2821 -1.2101  2.9135
  133CHL1  H22B16086   1.109   1.590   9.060  0.5486  0.2670  3.0795
  133CHL1   C2316087   1.193   1.449   9.205  0.2942  0.3732  0.6048
  133CHL1  H23A16088   1.099   1.426   9.260 -2.1613  0.0568 -3.3604
  133CHL1  H23B16089   1.250   1.355   9.194 -1.0429 -0.4537  0.5248
  133CHL1   C2416090   1.266   1.555   9.287  0.2263  0.1157 -0.3360
  133CHL1  H24A16091   1.360   1.579   9.233  2.0414 -1.3952  1.9098
  133CHL1  H24B16092   1.199   1.643   9.294  0.7775  0.4295  2.8772
  133CHL1   C2516093   1.302   1.495   9.423 -0.4480 -0.1055  0.2617
  133CHL1   H2516094   1.345   1.393   9.411  4.1904  1.7235 -0.6759
  133CHL1   C2616095   1.406   1.590   9.487  0.2946  0.1942 -0.1678
  133CHL1  H26A16096   1.505   1.557   9.448 -0.0444  0.5111 -1.3240
  133CHL1  H26B16097   1.396   1.693   9.447 -0.2142  0.3415  0.3166
  133CHL1  H26C16098   1.391   1.588   9.597 -3.1645  0.3577 -0.5325
  133CHL1   C2716099   1.185   1.468   9.530  0.2323 -0.2084 -0.1855
  133CHL1  H27A16100   1.102   1.420   9.474  0.1968 -0.3730  0.0038
  133CHL1  H27B16101   1.218   1.393   9.606  1.2331 -0.4096 -0.8030
  133CHL1  H27C16102   1.147   1.556   9.587 -0.2137  0.0640 -0.8977
  134CHL1    C316103   7.587   1.769   7.554  0.6510 -0.6151 -0.0134
  134CHL1    H316104   7.566   1.660   7.547 -0.3820 -0.7768  3.5570
  134CHL1    O316105   7.589   1.824   7.424 -0.0982 -0.1956 -0.1141
  134CHL1   H3'16106   7.622   1.913   7.441  0.1348 -0.4667  0.9264
  134CHL1    C416107   7.460   1.823   7.628 -0.4520 -0.1543 -0.5132
  134CHL1   H4A16108   7.470   1.934   7.634 -1.3835 -0.1240  1.0000
  134CHL1   H4B16109   7.368   1.795   7.572 -1.3997 -0.1803  0.9840
  134CHL1    C516110   7.459   1.765   7.768 -0.6996  0.2548 -0.5880
  134CHL1    C616111   7.354   1.692   7.808  0.5520  1.1215  0.1784
  134CHL1    H616112   7.279   1.666   7.731  1.4000 -1.4728  0.1471
  134CHL1    C716113   7.342   1.623   7.939 -0.4987 -0.0407 -0.3102
  134CHL1   H7A16114   7.242   1.622   7.986 -0.0314  0.7097  0.7386
  134CHL1   H7B16115   7.377   1.518   7.928  1.9946  0.6540  0.3960
  134CHL1    C816116   7.444   1.680   8.046  0.5147 -0.3792 -0.3417
  134CHL1    H816117   7.402   1.774   8.086  0.2440 -0.8305  0.4667
  134CHL1   C1416118   7.451   1.582   8.158  0.2981  1.3543 -0.1378
  134CHL1   H1416119   7.479   1.484   8.114 -0.6090  0.1105  1.9019
  134CHL1   C1516120   7.326   1.548   8.242 -0.0068 -0.4177 -0.1458
  134CHL1  H15A16121   7.289   1.649   8.271  1.7278  0.1747  0.1041
  134CHL1  H15B16122   7.254   1.490   8.181  0.4119 -0.3229 -0.7313
  134CHL1   C1616123   7.372   1.480   8.365  0.6643  0.0078 -0.6266
  134CHL1  H16A16124   7.329   1.528   8.455  1.0760 -0.4113 -0.2020
  134CHL1  H16B16125   7.341   1.373   8.369 -1.3229  0.5400 -0.6692
  134CHL1   C1716126   7.523   1.489   8.365  0.6382 -0.2654  0.2222
  134CHL1   H1716127   7.564   1.395   8.323  0.8930 -1.3069  2.6918
  134CHL1   C1316128   7.558   1.607   8.271 -0.0079 -0.1402 -0.3568
  134CHL1   C1816129   7.540   1.740   8.341 -0.3438 -0.3865 -0.7911
  134CHL1  H18A16130   7.446   1.740   8.401 -0.0208  0.2477 -0.2749
  134CHL1  H18B16131   7.617   1.754   8.420 -0.4213  0.0154 -0.7820
  134CHL1  H18C16132   7.548   1.832   8.279  1.4382  0.7649  1.0416
  134CHL1   C1216133   7.694   1.601   8.206 -0.3279 -0.4254  0.5220
  134CHL1  H12A16134   7.776   1.634   8.274 -0.4822  1.7776 -0.3017
  134CHL1  H12B16135   7.714   1.499   8.166  0.3239 -0.4314  0.8545
  134CHL1   C1116136   7.703   1.703   8.081 -0.1497 -0.0948 -0.1739
  134CHL1  H11A16137   7.718   1.804   8.126  1.9772 -0.1230 -0.7095
  134CHL1  H11B16138   7.795   1.666   8.031  1.1365  0.3316  1.7607
  134CHL1    C916139   7.586   1.684   7.982 -0.4996 -0.0498 -0.4907
  134CHL1    H916140   7.601   1.582   7.941 -0.7528 -0.1117 -0.4262
  134CHL1   C1016141   7.586   1.778   7.857 -0.9828 -0.0457 -0.0722
  134CHL1   C1916142   7.619   1.926   7.888 -0.0531 -0.0343 -0.3000
  134CHL1  H19A16143   7.604   1.982   7.793  5.4523  0.5448 -1.1368
  134CHL1  H19B16144   7.559   1.969   7.971  2.3650  1.5680  0.7334
  134CHL1  H19C16145   7.722   1.937   7.929  0.0453 -0.6797 -0.3759
  134CHL1    C116146   7.711   1.726   7.772 -0.1418  0.5415 -0.4766
  134CHL1   H1A16147   7.808   1.739   7.825 -0.4264  1.3666 -0.1449
  134CHL1   H1B16148   7.695   1.617   7.767 -2.1823  0.7488  0.7296
  134CHL1    C216149   7.721   1.782   7.629 -1.2804 -0.4541  0.5120
  134CHL1   H2A16150   7.799   1.733   7.567 -0.0644 -0.2533  1.8456
  134CHL1   H2B16151   7.752   1.889   7.632  0.6141 -0.9094 -1.0027
  134CHL1   C2016152   7.586   1.505   8.508 -0.3501 -0.0377 -0.3562
  134CHL1   H2016153   7.547   1.598   8.555 -0.9926 -1.4520  2.0936
  134CHL1   C2116154   7.746   1.518   8.514 -0.4254  0.1194 -0.4202
  134CHL1  H21A16155   7.785   1.504   8.618  0.6002  1.1767 -0.6402
  134CHL1  H21B16156   7.784   1.617   8.480  0.0315  0.6032  1.3409
  134CHL1  H21C16157   7.794   1.434   8.459 -0.0670  1.0530 -1.5657
  134CHL1   C2216158   7.543   1.382   8.604  0.4175  0.4501 -0.3698
  134CHL1  H22A16159   7.433   1.367   8.596  0.5569 -1.0975  0.3222
  134CHL1  H22B16160   7.575   1.283   8.565  0.7888  0.5725 -0.3764
  134CHL1   C2316161   7.559   1.401   8.753  0.4832  0.1351 -0.1354
  134CHL1  H23A16162   7.667   1.411   8.777 -0.0473  0.9237  2.1893
  134CHL1  H23B16163   7.519   1.504   8.764  1.2353  0.3951  0.2237
  134CHL1   C2416164   7.485   1.290   8.830 -1.0500 -0.9780 -0.2945
  134CHL1  H24A16165   7.491   1.307   8.940 -0.3924 -0.9805 -0.3291
  134CHL1  H24B16166   7.380   1.288   8.793 -0.6819 -0.3516 -1.4218
  134CHL1   C2516167   7.550   1.151   8.824 -0.0058 -0.8653 -0.0249
  134CHL1   H2516168   7.586   1.144   8.719  0.3517  1.7508 -0.1517
  134CHL1   C2616169   7.686   1.140   8.905 -0.1068  0.8004  0.3630
  134CHL1  H26A16170   7.730   1.040   8.884  2.8994  1.9387  0.7773
  134CHL1  H26B16171   7.760   1.215   8.870 -0.7469  1.1347 -0.2961
  134CHL1  H26C16172   7.654   1.155   9.010 -0.1993  2.5063  0.1122
  134CHL1   C2716173   7.449   1.041   8.852  0.2310  0.0012  0.1230
  134CHL1  H27A16174   7.392   1.067   8.944 -0.0107  1.2155 -0.3505
  134CHL1  H27B16175   7.382   1.034   8.764 -1.1211 -2.9794  1.2460
  134CHL1  H27C16176   7.496   0.941   8.866  1.6007  0.8303  2.0117
  135CHL1    C316177   6.624   1.545   7.789  0.0106 -0.6750 -0.1366
  135CHL1    H316178   6.527   1.587   7.825 -0.2889 -0.2940 -1.3511
  135CHL1    O316179   6.591   1.477   7.667 -0.5539  0.7430 -0.0983
  135CHL1   H3'16180   6.679   1.456   7.634 -1.5393 -2.2145 -1.2272
  135CHL1    C416181   6.729   1.648   7.755 -0.2105 -0.5493 -0.7724
  135CHL1   H4A16182   6.818   1.596   7.713  0.6539 -1.7474  2.2604
  135CHL1   H4B16183   6.692   1.710   7.671  1.1561 -0.8093 -1.5927
  135CHL1    C516184   6.765   1.727   7.883  0.1848  0.0104 -0.3180
  135CHL1    C616185   6.739   1.855   7.888 -0.2481  0.1585 -0.3451
  135CHL1    H616186   6.695   1.909   7.803  1.7611  0.3986 -1.2811
  135CHL1    C716187   6.763   1.937   8.016 -0.5033 -0.9249  0.3575
  135CHL1   H7A16188   6.796   2.041   7.995 -1.1617 -0.5486  1.1408
  135CHL1   H7B16189   6.677   1.946   8.086 -1.0214 -1.0778 -0.2617
  135CHL1    C816190   6.883   1.877   8.096  0.6623  0.7198  0.5169
  135CHL1    H816191   6.978   1.877   8.039  1.2515 -1.7952  1.3279
  135CHL1   C1416192   6.895   1.943   8.230 -0.1371 -0.6889 -0.2070
  135CHL1   H1416193   6.801   1.921   8.285 -0.0547 -1.3715 -0.3335
  135CHL1   C1516194   6.908   2.095   8.236  0.1251 -0.3674  0.3572
  135CHL1  H15A16195   6.980   2.123   8.156  1.6772  2.0035  2.4651
  135CHL1  H15B16196   6.806   2.137   8.223  0.0337 -0.7317 -0.1565
  135CHL1   C1616197   6.965   2.137   8.371  0.2727 -0.1027 -0.1263
  135CHL1  H16A16198   7.067   2.176   8.349 -0.4130  1.3547 -0.8516
  135CHL1  H16B16199   6.916   2.215   8.433 -0.6968 -0.0360 -0.9443
  135CHL1   C1716200   6.981   2.000   8.440  0.2060  0.6836  1.0667
  135CHL1   H1716201   6.880   1.983   8.482  0.0485 -0.4684  0.2577
  135CHL1   C1316202   7.001   1.891   8.331 -0.4466 -1.1312  0.0680
  135CHL1   C1816203   7.146   1.902   8.257  0.7005 -0.1130 -0.0934
  135CHL1  H18A16204   7.160   2.004   8.215 -0.9393  0.0973 -0.2144
  135CHL1  H18B16205   7.232   1.875   8.322 -0.9516 -2.9067  1.1082
  135CHL1  H18C16206   7.149   1.819   8.183 -0.8566 -2.2922  2.1151
  135CHL1   C1216207   6.971   1.740   8.357 -0.0858 -0.5263  0.4787
  135CHL1  H12A16208   7.049   1.697   8.422  0.3041  0.0112  0.3740
  135CHL1  H12B16209   6.889   1.733   8.432  0.9224 -1.1583  1.5543
  135CHL1   C1116210   6.940   1.658   8.225 -0.3812  0.2641  0.7379
  135CHL1  H11A16211   7.043   1.635   8.189 -0.6536  0.1022  0.0373
  135CHL1  H11B16212   6.902   1.555   8.244 -0.0423 -0.2192 -0.9775
  135CHL1    C916213   6.845   1.726   8.123 -0.2184  0.4101 -0.3780
  135CHL1    H916214   6.742   1.724   8.166  0.7589  1.9790  2.2837
  135CHL1   C1016215   6.826   1.637   7.992  1.5217 -0.7276 -0.6070
  135CHL1   C1916216   6.957   1.596   7.925 -0.1515  0.1048 -1.0057
  135CHL1  H19A16217   7.030   1.676   7.902  0.7841 -0.4339 -0.0092
  135CHL1  H19B16218   7.013   1.533   7.997 -0.6477  1.6617  0.8093
  135CHL1  H19C16219   6.953   1.539   7.830  0.2071  1.7196 -2.0376
  135CHL1    C116220   6.726   1.515   8.018 -0.0105 -0.3726 -0.4230
  135CHL1   H1A16221   6.762   1.447   8.099  1.4276  0.3800 -0.4065
  135CHL1   H1B16222   6.631   1.556   8.060  0.2929 -0.6169  0.5234
  135CHL1    C216223   6.674   1.446   7.889  0.1241 -0.2109 -0.0269
  135CHL1   H2A16224   6.601   1.368   7.919  0.9589 -0.4995  1.3195
  135CHL1   H2B16225   6.758   1.389   7.844  1.1648  0.9887  0.3447
  135CHL1   C2016226   7.071   1.986   8.565  0.4800 -0.8780 -0.3037
  135CHL1   H2016227   7.093   1.877   8.574 -3.2261 -2.0182 -2.5758
  135CHL1   C2116228   6.972   2.016   8.675 -0.3484  0.2383 -0.2765
  135CHL1  H21A16229   6.930   2.118   8.661  0.5983  0.5681 -0.7936
  135CHL1  H21B16230   7.023   2.007   8.774 -2.6046  1.4126  1.0855
  135CHL1  H21C16231   6.882   1.951   8.675 -0.6081  0.5949 -0.7784
  135CHL1   C2216232   7.187   2.082   8.563  0.0887 -1.0994  0.5217
  135CHL1  H22A16233   7.222   2.096   8.458 -1.4460 -0.0773  0.1183
  135CHL1  H22B16234   7.164   2.180   8.609  2.2626 -0.9244  1.3818
  135CHL1   C2316235   7.302   2.032   8.651  1.0509  0.3117 -0.0778
  135CHL1  H23A16236   7.264   2.028   8.756  1.9033  0.9947  0.2741
  135CHL1  H23B16237   7.332   1.929   8.623 -1.9998 -0.0176 -2.7012
  135CHL1   C2416238   7.409   2.137   8.643 -0.4889  0.2217 -0.5547
  135CHL1  H24A16239   7.439   2.167   8.540  2.7582 -1.5864 -0.2648
  135CHL1  H24B16240   7.374   2.229   8.695 -0.6834  0.6886 -1.4854
  135CHL1   C2516241   7.546   2.099   8.702 -0.1193 -0.0118  0.2651
  135CHL1   H2516242   7.603   2.194   8.703 -0.2952  0.0985  1.9452
  135CHL1   C2616243   7.537   2.060   8.849 -0.0468  0.4682 -0.2390
  135CHL1  H26A16244   7.636   2.031   8.888 -0.4967 -1.4968 -0.4565
  135CHL1  H26B16245   7.502   2.153   8.899 -0.9559 -0.1789  0.3563
  135CHL1  H26C16246   7.469   1.973   8.863 -2.3459  1.9557 -1.3676
  135CHL1   C2716247   7.633   2.001   8.619  0.6083 -0.1152  0.5545
  135CHL1  H27A16248   7.723   1.979   8.680  0.4422 -1.8688  0.2197
  135CHL1  H27B16249   7.578   1.908   8.593 -0.6155  0.5095  0.8070
  135CHL1  H27C16250   7.659   2.054   8.525  0.8588  0.6593  1.0543
  136CHL1    C316251   5.240   7.576   7.914  0.3001  0.5325  0.0436
  136CHL1    H316252   5.143   7.523   7.898  0.9100 -1.8910  3.2439
  136CHL1    O316253   5.283   7.635   7.789 -0.3134 -0.3661  0.0948
  136CHL1   H3'16254   5.374   7.665   7.796 -0.2763 -0.0805 -1.3566
  136CHL1    C416255   5.217   7.684   8.026 -0.0099 -0.1474  0.3675
  136CHL1   H4A16256   5.319   7.727   8.033 -0.4295  0.7427  1.4145
  136CHL1   H4B16257   5.151   7.766   7.990 -0.6506 -0.3357  1.0737
  136CHL1    C516258   5.178   7.621   8.159  0.1553  0.1657  0.3413
  136CHL1    C616259   5.058   7.659   8.215 -0.4433 -0.7332 -0.3068
  136CHL1    H616260   4.999   7.741   8.171  1.5769  0.4753 -0.9308
  136CHL1    C716261   5.013   7.602   8.345 -0.0574  0.5816 -0.0266
  136CHL1   H7A16262   5.004   7.686   8.418  1.5300 -0.1815  1.0843
  136CHL1   H7B16263   4.922   7.541   8.326  0.3059 -0.2877  0.9459
  136CHL1    C816264   5.122   7.506   8.412 -0.0060  0.1613  0.0906
  136CHL1    H816265   5.195   7.573   8.463  1.8573 -1.1382 -0.7431
  136CHL1   C1416266   5.048   7.418   8.516 -0.0159 -0.2931 -0.3300
  136CHL1   H1416267   4.973   7.352   8.468 -1.8949  1.1111  0.5546
  136CHL1   C1516268   4.952   7.486   8.623  0.0929 -0.7486  0.2583
  136CHL1  H15A16269   4.984   7.588   8.651 -2.4546  0.4885 -1.0514
  136CHL1  H15B16270   4.852   7.498   8.577  0.5315 -1.2554 -0.8866
  136CHL1   C1616271   4.954   7.384   8.743  0.1092 -0.0889 -0.3570
  136CHL1  H16A16272   5.007   7.436   8.825 -0.3243  0.7072 -0.5768
  136CHL1  H16B16273   4.858   7.352   8.789 -0.5362  0.2345 -1.4480
  136CHL1   C1716274   5.045   7.263   8.704 -0.2790  0.0679  0.1717
  136CHL1   H1716275   4.985   7.190   8.646 -0.9941 -0.0784  1.0782
  136CHL1   C1316276   5.139   7.320   8.596 -0.3270  0.5030  0.7100
  136CHL1   C1816277   5.245   7.411   8.672 -0.0501  0.4566 -0.1272
  136CHL1  H18A16278   5.199   7.462   8.760  0.4226  0.8088 -0.0838
  136CHL1  H18B16279   5.320   7.342   8.716 -2.5807 -3.2144 -1.0694
  136CHL1  H18C16280   5.301   7.487   8.613  1.4197 -0.1682  0.4372
  136CHL1   C1216281   5.200   7.229   8.484 -0.2484  0.3437 -0.3764
  136CHL1  H12A16282   5.260   7.150   8.533 -0.2499  0.7485  0.2938
  136CHL1  H12B16283   5.117   7.187   8.424 -0.2162  1.0429 -0.9288
  136CHL1   C1116284   5.282   7.307   8.382  0.3170  0.0154 -0.0170
  136CHL1  H11A16285   5.356   7.368   8.437 -1.5249  1.2062  1.2528
  136CHL1  H11B16286   5.334   7.239   8.311  1.0549 -0.6821  1.1596
  136CHL1    C916287   5.191   7.415   8.306  0.5876 -0.3598 -0.3594
  136CHL1    H916288   5.107   7.366   8.252 -0.6145 -1.3693  2.2769
  136CHL1   C1016289   5.266   7.497   8.199 -0.2326 -0.4565  0.3857
  136CHL1   C1916290   5.403   7.556   8.248  0.6029  0.2084  0.1636
  136CHL1  H19A16291   5.469   7.468   8.260  0.3412  0.1851  1.5697
  136CHL1  H19B16292   5.449   7.636   8.186  1.1507 -0.2228  0.0096
  136CHL1  H19C16293   5.383   7.611   8.343  1.6871 -0.2488  0.6757
  136CHL1    C116294   5.295   7.408   8.074  0.0607 -0.0734 -0.8952
  136CHL1   H1A16295   5.367   7.326   8.094  1.2675  1.2859  0.6166
  136CHL1   H1B16296   5.192   7.371   8.053 -0.4432  1.4051 -1.1708
  136CHL1    C216297   5.344   7.478   7.952 -0.2961 -0.3849  0.8552
  136CHL1   H2A16298   5.361   7.409   7.866  0.7882  0.0899  0.6688
  136CHL1   H2B16299   5.440   7.529   7.976 -0.1879  1.4652 -2.8394
  136CHL1   C2016300   5.095   7.177   8.823 -0.4236 -0.7229 -0.4065
  136CHL1   H2016301   5.159   7.249   8.879 -1.6930  1.9165 -2.1305
  136CHL1   C2116302   5.183   7.073   8.758 -0.8902  0.2285 -0.0535
  136CHL1  H21A16303   5.222   6.995   8.828 -0.4524 -1.5874 -2.2167
  136CHL1  H21B16304   5.278   7.106   8.711 -1.0800 -0.9981 -1.3766
  136CHL1  H21C16305   5.133   7.021   8.673 -0.2908  1.1545 -0.9894
  136CHL1   C2216306   4.979   7.121   8.907  0.0554  0.7293 -0.3219
  136CHL1  H22A16307   4.934   7.213   8.951 -1.0575 -0.2813  0.7473
  136CHL1  H22B16308   4.909   7.073   8.835  0.5578 -3.1992  1.5249
  136CHL1   C2316309   5.017   7.017   9.013  0.2019  0.0776  0.0762
  136CHL1  H23A16310   5.067   6.926   8.975  0.6649  0.2299  0.3128
  136CHL1  H23B16311   5.077   7.068   9.091  0.3455 -1.2844  0.8892
  136CHL1   C2416312   4.902   6.964   9.089  0.8247 -0.0433 -0.8652
  136CHL1  H24A16313   4.855   7.050   9.141  1.1807  0.1864 -0.9185
  136CHL1  H24B16314   4.830   6.918   9.018 -0.3587 -0.1163  0.3353
  136CHL1   C2516315   4.934   6.860   9.203  0.4210 -0.5895  0.1286
  136CHL1   H2516316   5.027   6.891   9.254 -0.0838 -3.0388  2.8461
  136CHL1   C2616317   4.822   6.855   9.310  0.3097  0.1608  0.0815
  136CHL1  H26A16318   4.725   6.836   9.261 -0.7672  0.3167  2.0486
  136CHL1  H26B16319   4.836   6.769   9.379 -0.5638 -0.8468 -0.9559
  136CHL1  H26C16320   4.815   6.949   9.369  1.4331  0.5905 -0.4374
  136CHL1   C2716321   4.959   6.716   9.150 -0.5130  0.3910 -0.1363
  136CHL1  H27A16322   4.941   6.645   9.234  1.6149  1.3424  1.2102
  136CHL1  H27B16323   4.885   6.691   9.070 -0.9188 -0.8980  0.6088
  136CHL1  H27C16324   5.059   6.692   9.107 -0.8997  0.6210 -1.2099
  137CHL1    C316325   0.188   0.485   8.121 -0.1165 -0.3507 -0.3780
  137CHL1    H316326   0.161   0.413   8.201  1.9890  0.2313  0.9640
  137CHL1    O316327   0.135   0.447   7.995  0.0822  0.4604  0.5400
  137CHL1   H3'16328   0.045   0.416   8.012 -0.4326  1.8906  0.5205
  137CHL1    C416329   0.122   0.613   8.174  0.2396 -0.0523  0.5713
  137CHL1   H4A16330   0.108   0.690   8.095  1.2149  1.4400  1.7750
  137CHL1   H4B16331   0.016   0.594   8.200 -0.1499  0.6269 -0.4656
  137CHL1    C516332   0.194   0.658   8.306  0.2722 -1.0134 -0.1656
  137CHL1    C616333   0.120   0.683   8.416  0.3690  0.2033  0.3493
  137CHL1    H616334   0.010   0.676   8.412  0.5076 -2.0803 -1.4293
  137CHL1    C716335   0.175   0.735   8.542  0.2361 -0.1810  0.6856
  137CHL1   H7A16336   0.124   0.827   8.578 -0.5812 -0.4181  0.1460
  137CHL1   H7B16337   0.167   0.660   8.624  1.4680 -0.5454  0.4866
  137CHL1    C816338   0.331   0.763   8.537 -0.4262 -0.6143 -0.5314
  137CHL1    H816339   0.346   0.860   8.486  0.5225  0.8312  2.3107
  137CHL1   C1416340   0.392   0.772   8.674  0.6464 -0.2660 -0.4857
  137CHL1   H1416341   0.382   0.669   8.713 -4.1665  0.3369  0.5149
  137CHL1   C1516342   0.314   0.851   8.783  0.0303  0.4112 -0.0577
  137CHL1  H15A16343   0.260   0.943   8.750 -0.0990  0.4124  0.1591
  137CHL1  H15B16344   0.242   0.785   8.834 -0.3240 -0.3130 -1.4550
  137CHL1   C1616345   0.426   0.880   8.885 -0.2791  0.0357 -0.2180
  137CHL1  H16A16346   0.443   0.989   8.896  0.8038 -0.4031  4.5886
  137CHL1  H16B16347   0.400   0.849   8.988  0.8422 -2.0045 -0.5043
  137CHL1   C1716348   0.558   0.810   8.832  0.4092 -0.7285 -0.7635
  137CHL1   H1716349   0.565   0.704   8.865  2.6086 -0.5217 -0.4123
  137CHL1   C1316350   0.534   0.810   8.676  0.1678 -0.9842 -0.0692
  137CHL1   C1816351   0.550   0.960   8.632 -0.3933  0.4556  0.0827
  137CHL1  H18A16352   0.659   0.975   8.616 -0.0370 -1.9707 -0.1545
  137CHL1  H18B16353   0.511   0.968   8.528  0.4690  2.0177 -0.1662
  137CHL1  H18C16354   0.505   1.037   8.699  0.0290 -0.1869  1.1334
  137CHL1   C1216355   0.617   0.719   8.583  0.7261  0.7601  0.2845
  137CHL1  H12A16356   0.722   0.750   8.569 -0.1327  2.7682 -2.4205
  137CHL1  H12B16357   0.613   0.623   8.640 -1.1240  1.7597  1.9555
  137CHL1   C1116358   0.554   0.697   8.441  0.1726 -0.3253 -0.0369
  137CHL1  H11A16359   0.574   0.792   8.388 -0.8002  0.3895  0.8579
  137CHL1  H11B16360   0.611   0.615   8.392 -0.0267 -0.7128  0.3671
  137CHL1    C916361   0.408   0.670   8.446  0.0437 -0.3119  0.6510
  137CHL1    H916362   0.391   0.565   8.478  0.6034 -1.0689 -1.3806
  137CHL1   C1016363   0.347   0.669   8.303  0.3350  0.1217  0.0481
  137CHL1   C1916364   0.380   0.793   8.220  0.1439 -0.1049 -0.0925
  137CHL1  H19A16365   0.354   0.881   8.281 -0.7000 -0.4827  0.1107
  137CHL1  H19B16366   0.486   0.797   8.187  0.1785 -1.3977 -0.2126
  137CHL1  H19C16367   0.313   0.811   8.134  2.4238  3.0389 -1.3775
  137CHL1    C116368   0.411   0.544   8.226  0.0225 -0.2306  0.4633
  137CHL1   H1A16369   0.516   0.563   8.197  0.5875 -0.0336  2.5101
  137CHL1   H1B16370   0.414   0.455   8.293 -0.8578 -0.3308  0.3887
  137CHL1    C216371   0.340   0.499   8.102 -0.3464 -0.6207  0.5704
  137CHL1   H2A16372   0.378   0.406   8.054 -0.4175 -0.9276  1.1007
  137CHL1   H2B16373   0.352   0.576   8.023  0.9995 -0.6540  0.7150
  137CHL1   C2016374   0.682   0.882   8.889 -0.6380  0.7623  0.3151
  137CHL1   H2016375   0.667   0.986   8.854 -0.4795 -0.1487 -2.7541
  137CHL1   C2116376   0.813   0.818   8.824  0.5595 -0.1100  0.0209
  137CHL1  H21A16377   0.825   0.853   8.719  1.7823 -0.3520  0.0689
  137CHL1  H21B16378   0.820   0.708   8.833  2.1457 -0.0069  0.1542
  137CHL1  H21C16379   0.907   0.860   8.863 -0.0656  0.8666  0.5249
  137CHL1   C2216380   0.697   0.866   9.043 -0.5352 -0.5526 -0.7758
  137CHL1  H22A16381   0.599   0.866   9.094 -0.4780 -1.4800 -0.6572
  137CHL1  H22B16382   0.734   0.763   9.062  0.5264  0.1984  1.6717
  137CHL1   C2316383   0.793   0.973   9.093  0.4360  0.3154 -0.2875
  137CHL1  H23A16384   0.891   0.947   9.049 -0.1429  0.5310 -1.7952
  137CHL1  H23B16385   0.771   1.082   9.081 -0.6370  0.0687 -0.6803
  137CHL1   C2416386   0.798   0.970   9.251  0.3266  0.0115  0.1365
  137CHL1  H24A16387   0.693   0.989   9.282  0.1327  0.7731 -0.9434
  137CHL1  H24B16388   0.840   0.869   9.269  0.1599  0.1678  1.5086
  137CHL1   C2516389   0.891   1.077   9.316 -0.5486 -0.1073  0.3658
  137CHL1   H2516390   0.870   1.175   9.269 -1.1424 -0.0961  0.6383
  137CHL1   C2616391   0.859   1.088   9.467  0.6188  0.3072 -0.7323
  137CHL1  H26A16392   0.911   1.174   9.515 -1.8189  1.2725  0.3051
  137CHL1  H26B16393   0.750   1.103   9.470  0.4097 -1.0103  2.0363
  137CHL1  H26C16394   0.897   1.001   9.526  2.8422  2.5696  1.4548
  137CHL1   C2716395   1.041   1.048   9.283  0.4008 -0.0743  0.4097
  137CHL1  H27A16396   1.069   1.039   9.176  1.6310 -0.4311  0.7450
  137CHL1  H27B16397   1.101   1.137   9.314  0.9518  0.9533 -3.0992
  137CHL1  H27C16398   1.079   0.961   9.340  0.1498 -0.6585 -0.3037
  138CHL1    C316399   6.242   6.766   7.955 -0.4240  0.3995  0.7592
  138CHL1    H316400   6.178   6.677   7.973 -1.2609  0.3385 -2.0680
  138CHL1    O316401   6.261   6.785   7.816 -0.2831  0.8616  0.4805
  138CHL1   H3'16402   6.290   6.697   7.792 -1.9413  0.1366  0.9720
  138CHL1    C416403   6.177   6.889   8.007 -0.0968 -0.0458  0.1989
  138CHL1   H4A16404   6.240   6.973   7.973  3.4588 -2.2322  0.8991
  138CHL1   H4B16405   6.076   6.890   7.959  0.5462 -1.8809 -1.3325
  138CHL1    C516406   6.175   6.895   8.157  0.9900 -0.5766  0.5005
  138CHL1    C616407   6.060   6.897   8.228  0.2000  0.9796 -0.1251
  138CHL1    H616408   5.958   6.896   8.187  0.0145  0.0124  0.3474
  138CHL1    C716409   6.058   6.890   8.380 -0.0060  0.5193  0.1779
  138CHL1   H7A16410   5.982   6.962   8.420 -1.6184 -0.6641 -0.6445
  138CHL1   H7B16411   6.025   6.791   8.418  0.2032  0.7977  1.1236
  138CHL1    C816412   6.195   6.923   8.445 -0.0569 -0.0250 -0.2895
  138CHL1    H816413   6.219   7.030   8.459  3.2900 -1.0054  3.3686
  138CHL1   C1416414   6.194   6.871   8.592  0.2807 -0.4118  0.7653
  138CHL1   H1416415   6.189   6.760   8.594 -1.7686 -0.3717  3.2610
  138CHL1   C1516416   6.076   6.905   8.685 -0.1824 -0.0658  0.2722
  138CHL1  H15A16417   6.057   7.014   8.682 -0.1815  0.0447  2.4033
  138CHL1  H15B16418   5.982   6.858   8.648 -0.9068 -0.1795  2.1491
  138CHL1   C1616419   6.125   6.876   8.830  0.4558 -0.0363  0.6076
  138CHL1  H16A16420   6.138   6.971   8.886  0.3386  0.1818  0.2687
  138CHL1  H16B16421   6.051   6.810   8.880 -0.8773  0.2217 -0.9558
  138CHL1   C1716422   6.274   6.829   8.810 -0.4272  0.3580  0.2171
  138CHL1   H1716423   6.275   6.721   8.785  2.3503 -0.1184  1.9113
  138CHL1   C1316424   6.323   6.900   8.677  0.8180 -0.0702 -0.6011
  138CHL1   C1816425   6.356   7.048   8.696  0.1431 -0.1027 -0.2731
  138CHL1  H18A16426   6.268   7.106   8.734 -0.2780  0.1814 -1.6301
  138CHL1  H18B16427   6.439   7.067   8.768  0.7646 -0.0852 -0.9885
  138CHL1  H18C16428   6.392   7.099   8.605  2.3191 -0.5135  0.3069
  138CHL1   C1216429   6.437   6.829   8.605 -0.7170  0.4057  0.3650
  138CHL1  H12A16430   6.537   6.861   8.642 -0.2434 -0.1306 -0.4040
  138CHL1  H12B16431   6.434   6.719   8.623 -0.0410  0.0982 -1.1868
  138CHL1   C1116432   6.441   6.872   8.452 -0.5810  1.5210 -0.8118
  138CHL1  H11A16433   6.486   6.973   8.450  1.6408  0.5721 -1.0325
  138CHL1  H11B16434   6.510   6.799   8.405 -1.8270  0.3054 -0.8457
  138CHL1    C916435   6.314   6.860   8.375  0.7472  0.3734  0.5051
  138CHL1    H916436   6.297   6.750   8.379 -1.8130  0.5791 -1.6123
  138CHL1   C1016437   6.317   6.882   8.222  0.4767 -0.0899  0.6090
  138CHL1   C1916438   6.392   7.014   8.205 -0.1838 -0.0812 -0.4208
  138CHL1  H19A16439   6.333   7.101   8.242 -0.7968  0.1626 -1.8769
  138CHL1  H19B16440   6.498   7.017   8.238 -0.3574  0.6836  0.0970
  138CHL1  H19C16441   6.407   7.036   8.097 -0.8461 -2.0824 -0.9598
  138CHL1    C116442   6.399   6.760   8.162  0.1918  0.3283  0.3477
  138CHL1   H1A16443   6.502   6.771   8.204 -1.3645  2.2031  4.2022
  138CHL1   H1B16444   6.349   6.665   8.188 -0.0322  0.2601 -0.3305
  138CHL1    C216445   6.389   6.755   8.014 -0.7099  0.3922  0.2054
  138CHL1   H2A16446   6.439   6.667   7.969 -1.5755 -0.2592  0.5005
  138CHL1   H2B16447   6.451   6.841   7.979 -1.5472  1.2409  0.7331
  138CHL1   C2016448   6.363   6.850   8.934 -0.7887  0.1497  0.3381
  138CHL1   H2016449   6.399   6.955   8.935 -2.2740  0.7091 -1.0764
  138CHL1   C2116450   6.471   6.744   8.931 -0.6577 -0.8692  0.0832
  138CHL1  H21A16451   6.542   6.766   8.848 -2.5334 -0.1094 -1.3902
  138CHL1  H21B16452   6.425   6.643   8.929 -0.6492 -0.9014  1.0149
  138CHL1  H21C16453   6.532   6.753   9.023  0.6918 -1.7392 -0.6938
  138CHL1   C2216454   6.288   6.830   9.071 -0.5435  0.0030 -0.1926
  138CHL1  H22A16455   6.221   6.918   9.084 -1.2503 -0.5661  0.0795
  138CHL1  H22B16456   6.221   6.742   9.067  1.2903 -1.5585  1.5344
  138CHL1   C2316457   6.367   6.805   9.204  0.1716 -0.5279 -0.0134
  138CHL1  H23A16458   6.405   6.700   9.201 -0.6041 -0.7995 -0.8521
  138CHL1  H23B16459   6.454   6.871   9.222 -0.0126 -0.6101  1.2574
  138CHL1   C2416460   6.281   6.807   9.334 -0.4329  0.2648  0.8738
  138CHL1  H24A16461   6.366   6.784   9.401 -0.9810 -0.2767  1.3966
  138CHL1  H24B16462   6.254   6.910   9.366 -0.6627 -0.4244  3.0153
  138CHL1   C2516463   6.176   6.696   9.333 -0.4003 -0.0010 -0.5126
  138CHL1   H2516464   6.102   6.703   9.251 -3.1801  0.2453  1.8623
  138CHL1   C2616465   6.241   6.556   9.318  0.0118 -0.9339 -0.0500
  138CHL1  H26A16466   6.330   6.551   9.385  1.1301  2.4041 -1.0984
  138CHL1  H26B16467   6.166   6.479   9.346 -1.0701 -0.1030 -0.5994
  138CHL1  H26C16468   6.269   6.550   9.211 -0.6180  0.0688 -0.2818
  138CHL1   C2716469   6.098   6.694   9.467 -0.0406  0.2376 -0.1464
  138CHL1  H27A16470   6.048   6.793   9.470 -0.3769  0.0989 -0.7610
  138CHL1  H27B16471   6.029   6.607   9.463 -1.0306  1.0322 -0.9427
  138CHL1  H27C16472   6.170   6.680   9.550 -1.5852 -1.0583  1.0558
  139CHL1    C316473   0.010   5.148   7.757 -0.2525  0.6294 -0.0651
  139CHL1    H316474   0.071   5.079   7.820  0.3261 -0.2829 -1.5851
  139CHL1    O316475   0.018   5.107   7.614  0.5114  0.6091 -0.5060
  139CHL1   H3'16476  -0.064   5.060   7.595 -0.0333  1.8403 -1.3876
  139CHL1    C416477  -0.140   5.137   7.797 -0.0153  0.1203  0.5742
  139CHL1   H4A16478  -0.196   5.197   7.722  0.2855 -0.9867 -0.5653
  139CHL1   H4B16479  -0.171   5.032   7.780 -3.6296  1.3853 -2.0901
  139CHL1    C516480  -0.168   5.185   7.934  0.0456  0.1722 -0.0077
  139CHL1    C616481  -0.235   5.107   8.021 -0.3843  0.3777  0.3986
  139CHL1    H616482  -0.270   5.005   7.999  2.7535 -0.5658 -0.7272
  139CHL1    C716483  -0.277   5.146   8.158 -0.2012  0.2911 -0.8918
  139CHL1   H7A16484  -0.384   5.122   8.175 -0.5675  2.3200 -0.0310
  139CHL1   H7B16485  -0.210   5.099   8.233 -0.6001 -2.2721 -2.0361
  139CHL1    C816486  -0.255   5.301   8.185  0.3326 -0.2316  0.1606
  139CHL1    H816487  -0.344   5.347   8.137 -0.5367 -0.2071  1.7431
  139CHL1   C1416488  -0.262   5.331   8.333  0.3000  0.4450 -0.3960
  139CHL1   H1416489  -0.174   5.280   8.378  0.9103  1.9984  0.2440
  139CHL1   C1516490  -0.384   5.295   8.419  0.1525 -0.2549  0.1052
  139CHL1  H15A16491  -0.469   5.344   8.367  0.1588 -0.1595  0.1860
  139CHL1  H15B16492  -0.418   5.189   8.426 -2.6160  0.6210  1.2434
  139CHL1   C1616493  -0.357   5.358   8.549 -0.4519 -0.0516  0.2922
  139CHL1  H16A16494  -0.443   5.383   8.616  0.3262  0.6959  1.0333
  139CHL1  H16B16495  -0.295   5.292   8.612  0.2429  0.6733  0.3872
  139CHL1   C1716496  -0.257   5.479   8.520  0.2713  0.1988  0.3434
  139CHL1   H1716497  -0.159   5.450   8.563  0.9348  1.5531 -0.2143
  139CHL1   C1316498  -0.237   5.479   8.367 -0.0336 -0.6101  0.0998
  139CHL1   C1816499  -0.351   5.560   8.306  0.0748  0.3023  0.1023
  139CHL1  H18A16500  -0.450   5.548   8.355 -0.4461 -1.6644 -1.3105
  139CHL1  H18B16501  -0.338   5.670   8.320 -0.5884  0.6923 -1.9112
  139CHL1  H18C16502  -0.373   5.544   8.198 -3.3018  0.4542  0.6722
  139CHL1   C1216503  -0.091   5.511   8.314  0.3590 -0.1035 -0.7759
  139CHL1  H12A16504  -0.072   5.619   8.327 -0.9872 -0.0049  0.6673
  139CHL1  H12B16505  -0.013   5.445   8.358  0.6820  1.5393  1.2782
  139CHL1   C1116506  -0.076   5.483   8.164 -0.1171 -0.1743 -0.7793
  139CHL1  H11A16507  -0.129   5.561   8.106 -1.3858 -0.0365  0.5152
  139CHL1  H11B16508   0.028   5.512   8.136  0.1823 -0.1608  0.3090
  139CHL1    C916509  -0.118   5.341   8.123 -0.1907  0.3778 -0.7066
  139CHL1    H916510  -0.041   5.277   8.170 -0.0763  1.6282  0.9324
  139CHL1   C1016511  -0.113   5.320   7.971  0.1965  0.5385  0.0506
  139CHL1   C1916512  -0.195   5.425   7.894 -0.2510  0.1127  0.3609
  139CHL1  H19A16513  -0.299   5.446   7.928 -0.9671  0.2639 -1.7435
  139CHL1  H19B16514  -0.139   5.521   7.904 -1.8068  1.2326 -1.0794
  139CHL1  H19C16515  -0.207   5.397   7.787  0.3858 -1.7433  0.7412
  139CHL1    C116516   0.033   5.339   7.920 -0.0780  0.7707  0.8003
  139CHL1   H1A16517   0.073   5.442   7.935  2.5242  0.0172 -0.4291
  139CHL1   H1B16518   0.088   5.272   7.990 -1.3422  0.6872  1.7473
  139CHL1    C216519   0.064   5.291   7.776  0.9274  0.2576 -0.0865
  139CHL1   H2A16520   0.174   5.299   7.760  1.2390 -0.1172  1.6196
  139CHL1   H2B16521   0.010   5.354   7.703 -1.3951 -1.4859 -0.0089
  139CHL1   C2016522  -0.287   5.605   8.605 -0.3143  0.2302 -0.2961
  139CHL1   H2016523  -0.388   5.638   8.574 -0.8320 -2.5410 -1.8840
  139CHL1   C2116524  -0.175   5.715   8.573 -0.0608  0.4506 -0.3252
  139CHL1  H21A16525  -0.201   5.803   8.636  3.1310 -0.3797  2.3996
  139CHL1  H21B16526  -0.185   5.753   8.469  2.4476  5.3894  0.9359
  139CHL1  H21C16527  -0.070   5.686   8.594  1.4090  5.2980  0.1375
  139CHL1   C2216528  -0.281   5.583   8.763  0.2765 -0.1380 -0.1422
  139CHL1  H22A16529  -0.333   5.487   8.784  0.7262 -0.1801  0.8678
  139CHL1  H22B16530  -0.176   5.585   8.798  0.6647  3.0441 -1.2271
  139CHL1   C2316531  -0.349   5.692   8.843 -0.0829  0.2017  0.1764
  139CHL1  H23A16532  -0.266   5.759   8.875  1.6470 -1.7074 -0.1413
  139CHL1  H23B16533  -0.425   5.740   8.777 -1.0686 -1.1544  0.2799
  139CHL1   C2416534  -0.443   5.644   8.959  0.6232  0.1732 -0.0411
  139CHL1  H24A16535  -0.530   5.588   8.919 -0.4115 -1.1306  3.6552
  139CHL1  H24B16536  -0.376   5.583   9.023 -0.6243 -0.2079  0.9449
  139CHL1   C2516537  -0.501   5.753   9.058  0.3872  0.5297  1.2784
  139CHL1   H2516538  -0.556   5.833   9.005 -1.1682  0.2705  2.4219
  139CHL1   C2616539  -0.597   5.684   9.158 -0.7525 -0.3081 -0.1083
  139CHL1  H26A16540  -0.552   5.599   9.213 -0.8322 -0.2929 -0.0205
  139CHL1  H26B16541  -0.637   5.762   9.226 -0.7490  0.8886 -1.4271
  139CHL1  H26C16542  -0.684   5.644   9.102  0.2348 -0.8271 -1.3425
  139CHL1   C2716543  -0.387   5.815   9.139 -0.7919 -0.2765 -0.3152
  139CHL1  H27A16544  -0.407   5.908   9.197 -0.9619  0.4042 -1.4261
  139CHL1  H27B16545  -0.347   5.731   9.199 -0.9809  0.2678  0.5953
  139CHL1  H27C16546  -0.300   5.840   9.074 -0.7482 -0.6991 -0.4220
  140CHL1    C316547   6.830   6.347   7.945 -0.4667  0.4442 -0.2960
  140CHL1    H316548   6.777   6.253   7.972 -2.3934  1.1580 -1.4102
  140CHL1    O316549   6.827   6.338   7.804 -0.1903  0.2290  0.0386
  140CHL1   H3'16550   6.883   6.411   7.777 -0.6350 -0.1555 -2.1114
  140CHL1    C416551   6.756   6.471   8.005  0.5648 -0.2200  0.0620
  140CHL1   H4A16552   6.805   6.556   7.954 -2.1967  0.8643 -0.9924
  140CHL1   H4B16553   6.650   6.464   7.971  0.5210  0.8353 -0.0643
  140CHL1    C516554   6.764   6.491   8.158 -0.0962  0.1498  0.1618
  140CHL1    C616555   6.657   6.505   8.237 -0.4688 -0.1960 -0.4475
  140CHL1    H616556   6.559   6.500   8.186 -0.6169 -2.0283 -0.0657
  140CHL1    C716557   6.665   6.520   8.388  0.6174 -0.7238  0.0969
  140CHL1   H7A16558   6.595   6.601   8.417  0.5600 -0.1364 -1.5871
  140CHL1   H7B16559   6.630   6.426   8.437  0.1169  0.5355  2.2858
  140CHL1    C816560   6.810   6.548   8.438  0.2463  0.3296 -0.8713
  140CHL1    H816561   6.832   6.655   8.421  0.9929  0.9747  3.0868
  140CHL1   C1416562   6.818   6.518   8.589 -0.4843  0.4065  0.1076
  140CHL1   H1416563   6.802   6.408   8.597  0.8953  0.0981 -0.9174
  140CHL1   C1516564   6.716   6.575   8.690 -0.7170  0.3458 -0.8575
  140CHL1  H15A16565   6.706   6.682   8.665  0.8230  0.3594 -1.5379
  140CHL1  H15B16566   6.614   6.533   8.702 -1.1854  1.9317  1.2569
  140CHL1   C1616567   6.776   6.549   8.827  0.0974 -0.2142 -0.7453
  140CHL1  H16A16568   6.768   6.637   8.893 -0.8749 -1.5065  0.9358
  140CHL1  H16B16569   6.720   6.473   8.884 -2.8274  1.2185 -1.5431
  140CHL1   C1716570   6.923   6.503   8.804 -0.4558  0.1569 -0.0569
  140CHL1   H1716571   6.925   6.393   8.791 -0.7605  0.0689  0.6122
  140CHL1   C1316572   6.951   6.545   8.661 -0.2121 -0.4580 -0.3420
  140CHL1   C1816573   6.973   6.700   8.659  0.2202 -0.0082  0.7304
  140CHL1  H18A16574   6.963   6.745   8.558  0.7691  0.3886  0.8499
  140CHL1  H18B16575   6.905   6.762   8.722 -2.2619 -2.2749  0.4618
  140CHL1  H18C16576   7.081   6.723   8.673  0.4650  0.7193 -1.8076
  140CHL1   C1216577   7.054   6.466   8.594  0.3240 -0.0835  0.5623
  140CHL1  H12A16578   7.155   6.475   8.640  1.6723 -1.2206 -1.9626
  140CHL1  H12B16579   7.039   6.356   8.603  2.2492 -0.2193  3.2310
  140CHL1   C1116580   7.057   6.499   8.438 -0.3427 -0.0726 -0.5561
  140CHL1  H11A16581   7.086   6.605   8.422 -1.9338  0.2851 -1.3487
  140CHL1  H11B16582   7.141   6.439   8.398  1.0913  1.0623  0.6615
  140CHL1    C916583   6.924   6.467   8.371  0.0727 -0.5325  0.1756
  140CHL1    H916584   6.912   6.357   8.385 -1.4260 -0.3139  0.8385
  140CHL1   C1016585   6.917   6.484   8.213  0.5288  0.4434 -0.7922
  140CHL1   C1916586   6.993   6.618   8.182  0.1154  0.4057 -0.1719
  140CHL1  H19A16587   6.976   6.699   8.256 -1.5290 -1.3055  1.4337
  140CHL1  H19B16588   7.100   6.588   8.180  0.4594  1.4480  1.2808
  140CHL1  H19C16589   6.966   6.670   8.087 -0.3668  0.4898  0.0090
  140CHL1    C116590   6.991   6.363   8.153 -0.0784  0.4368  0.1980
  140CHL1   H1A16591   7.099   6.370   8.180  0.0241 -1.0107  0.2561
  140CHL1   H1B16592   6.951   6.269   8.196 -1.7520  0.0408 -2.0865
  140CHL1    C216593   6.978   6.353   8.001  0.2224  0.1014  0.3683
  140CHL1   H2A16594   7.031   6.266   7.958  0.3528  0.8802 -1.1206
  140CHL1   H2B16595   7.029   6.438   7.950  0.7897  0.5576  1.6628
  140CHL1   C2016596   7.026   6.530   8.926  0.1437  0.6182 -0.6321
  140CHL1   H2016597   6.973   6.483   9.011  0.5129 -1.0114 -1.2554
  140CHL1   C2116598   7.045   6.681   8.970  0.0849  0.7544 -0.0148
  140CHL1  H21A16599   7.088   6.686   9.072 -0.6420 -1.0765  0.4120
  140CHL1  H21B16600   6.946   6.732   8.972 -1.0163 -1.3171  1.2186
  140CHL1  H21C16601   7.117   6.731   8.901 -0.7208  1.3275 -0.4558
  140CHL1   C2216602   7.167   6.460   8.915  0.8065 -0.2854  0.6189
  140CHL1  H22A16603   7.153   6.359   8.872  0.5214 -1.0702  2.4542
  140CHL1  H22B16604   7.227   6.514   8.839 -1.6415  4.9685  1.9560
  140CHL1   C2316605   7.239   6.438   9.052 -0.4477  0.2166  0.4945
  140CHL1  H23A16606   7.338   6.406   9.015  0.2027  2.1132  0.5016
  140CHL1  H23B16607   7.248   6.539   9.098 -0.9009 -0.2011  1.5338
  140CHL1   C2416608   7.172   6.341   9.144  0.3824  0.5276  0.2206
  140CHL1  H24A16609   7.082   6.388   9.191  0.1304 -0.6303  0.9216
  140CHL1  H24B16610   7.132   6.252   9.092  0.6403  1.8681 -2.4604
  140CHL1   C2516611   7.261   6.296   9.262 -0.1724 -0.4197  0.1782
  140CHL1   H2516612   7.315   6.387   9.292 -1.7575  0.4755  0.4290
  140CHL1   C2616613   7.376   6.204   9.217 -0.5762  0.5572  0.5529
  140CHL1  H26A16614   7.341   6.110   9.167  2.5390  1.2003 -3.3384
  140CHL1  H26B16615   7.436   6.253   9.137  2.9739 -1.4706  1.7602
  140CHL1  H26C16616   7.450   6.168   9.292 -0.0087  0.2793 -0.1271
  140CHL1   C2716617   7.182   6.247   9.383 -0.0358 -0.2940 -0.1623
  140CHL1  H27A16618   7.128   6.327   9.439  1.4560 -0.2581  1.2950
  140CHL1  H27B16619   7.108   6.171   9.351  0.4675 -0.5400 -0.7708
  140CHL1  H27C16620   7.248   6.203   9.461  0.4146  0.2363 -0.2350
  141DOPC     N16621   3.545   2.738  11.302  0.3370 -0.5592  1.1438
  141DOPC   C1216622   3.659   2.708  11.203  0.3319  0.4952 -0.2066
  141DOPC  H12A16623   3.751   2.704  11.260  0.0010 -1.3592  0.2591
  141DOPC  H12B16624   3.671   2.786  11.129  2.7652 -1.1255 -1.6788
  141DOPC   C1316625   3.406   2.713  11.237  0.2040 -0.2743  0.0898
  141DOPC  H13A16626   3.407   2.607  11.217  1.6040 -0.4057  0.7104
  141DOPC  H13B16627   3.333   2.731  11.314 -2.7732  0.1821 -2.6720
  141DOPC  H13C16628   3.389   2.777  11.152 -2.7372  0.3335  1.0244
  141DOPC   C1416629   3.548   2.878  11.326  0.5710 -0.2889  0.2901
  141DOPC  H14A16630   3.461   2.910  11.382  1.9839  0.5709  2.0717
  141DOPC  H14B16631   3.633   2.898  11.388  0.6550 -1.6789  0.6502
  141DOPC  H14C16632   3.558   2.942  11.239 -0.2984  1.3130  1.3176
  141DOPC   C1516633   3.559   2.657  11.423  0.1511  0.6071 -1.0134
  141DOPC  H15A16634   3.486   2.688  11.497  0.0559  2.2843 -1.7736
  141DOPC  H15B16635   3.654   2.663  11.474 -0.2588 -1.0021  0.0313
  141DOPC  H15C16636   3.555   2.549  11.414 -3.1873  0.2257  2.4181
  141DOPC   C1116637   3.654   2.574  11.131  0.4746 -0.2837  0.0856
  141DOPC  H11A16638   3.549   2.546  11.110  0.4452  0.9061 -1.5810
  141DOPC  H11B16639   3.689   2.589  11.026  1.7629 -0.4006  0.4877
  141DOPC     P16640   3.875   2.426  11.172  0.0111  0.0578  0.1428
  141DOPC   O1316641   3.894   2.373  11.036 -0.2636  0.4842 -0.0665
  141DOPC   O1416642   3.920   2.342  11.282  0.3646  0.3294  0.4410
  141DOPC   O1216643   3.721   2.464  11.196  0.0141  0.0158  0.0983
  141DOPC   O1116644   3.939   2.571  11.191 -1.0246 -0.2649  0.5388
  141DOPC    C116645   4.085   2.580  11.168  0.4394  0.0005  0.2504
  141DOPC    HA16646   4.136   2.482  11.156  1.6394  0.7519 -1.1156
  141DOPC    HB16647   4.138   2.623  11.255  1.3317  1.6805 -1.0549
  141DOPC    C216648   4.127   2.678  11.051  0.3828  0.2548  0.2620
  141DOPC    HS16649   4.081   2.771  11.092  0.9611  0.8840 -0.4751
  141DOPC   O2116650   4.072   2.628  10.927 -0.2055 -0.0686 -0.4081
  141DOPC   C2116651   3.956   2.684  10.893  0.3152  0.1409 -1.1290
  141DOPC   O2216652   3.890   2.765  10.951 -0.6039 -0.1333  0.0207
  141DOPC   C2216653   3.938   2.629  10.750  0.7800 -0.8468 -0.0684
  141DOPC   H2R16654   3.940   2.519  10.760  2.5940 -0.8302  0.1095
  141DOPC   H2S16655   4.015   2.675  10.685 -0.0767  1.3387  0.3702
  141DOPC    C316656   4.277   2.700  11.044 -0.5638 -0.6608 -0.0700
  141DOPC    HX16657   4.326   2.601  11.028  1.0547  0.2468 -1.0193
  141DOPC    HY16658   4.323   2.738  11.137  1.8027 -0.1568 -1.3385
  141DOPC   O3116659   4.320   2.794  10.937 -0.8102 -0.2814 -0.0781
  141DOPC   C3116660   4.330   2.912  10.965 -0.0859 -0.0490  0.4289
  141DOPC   O3216661   4.320   2.964  11.078 -0.2762 -0.1152 -0.0486
  141DOPC   C3216662   4.340   2.990  10.832  0.5383 -0.1387 -1.0976
  141DOPC   H2X16663   4.328   2.926  10.742  0.0274  1.3487 -2.1296
  141DOPC   H2Y16664   4.257   3.064  10.829  0.6987  0.0146 -3.1155
  141DOPC   C2316665   3.800   2.670  10.682 -0.0736 -0.3360 -0.3858
  141DOPC   H3R16666   3.779   2.779  10.676 -1.4143 -0.5237  0.4718
  141DOPC   H3S16667   3.723   2.617  10.742  1.0574 -0.5090  0.9911
  141DOPC   C2416668   3.792   2.629  10.541 -0.0386 -0.1949  0.3695
  141DOPC   H4R16669   3.834   2.527  10.533  0.5308  0.1712 -2.0451
  141DOPC   H4S16670   3.864   2.680  10.473  1.4321 -2.1574  0.3846
  141DOPC   C2516671   3.643   2.620  10.479 -0.1205  0.2712 -0.0061
  141DOPC   H5R16672   3.589   2.708  10.520 -1.4351 -0.5966  0.2094
  141DOPC   H5S16673   3.583   2.535  10.519 -2.2490  1.8946  0.4333
  141DOPC   C2616674   3.641   2.617  10.318  0.4403 -0.5247  0.5825
  141DOPC   H6R16675   3.691   2.707  10.278  0.3141 -1.5189 -1.9452
  141DOPC   H6S16676   3.533   2.623  10.295  0.0355  0.7646  2.5506
  141DOPC   C2716677   3.692   2.492  10.246 -0.2807 -0.7782  0.1647
  141DOPC   H7R16678   3.639   2.406  10.291 -1.2364  0.5869  1.8071
  141DOPC   H7S16679   3.798   2.477  10.276  0.4325  1.0532 -1.2430
  141DOPC   C2816680   3.668   2.506  10.098 -0.1775  0.2126  0.4481
  141DOPC   H8R16681   3.745   2.569  10.049 -1.0524  0.6922 -0.3486
  141DOPC   H8S16682   3.575   2.562  10.073 -0.4207 -0.8552 -1.2013
  141DOPC   C2916683   3.684   2.372  10.028  0.1592  0.2014 -0.1510
  141DOPC   H9R16684   3.754   2.302  10.076  1.5669 -0.2665 -2.6612
  141DOPC  C21016685   3.596   2.326   9.939 -0.0133  0.4114 -0.4490
  141DOPC  H10R16686   3.607   2.226   9.895 -2.6200 -1.1041  2.0022
  141DOPC  C21116687   3.489   2.411   9.874  0.3826 -0.1340  0.4030
  141DOPC  H11R16688   3.461   2.510   9.915 -0.5611  0.4892 -1.6352
  141DOPC  H11S16689   3.390   2.359   9.870 -0.1384  0.9015 -0.5346
  141DOPC  C21216690   3.532   2.444   9.730 -0.1430 -0.5260 -0.3228
  141DOPC  H12R16691   3.637   2.478   9.725 -0.1481 -0.4411  0.1196
  141DOPC  H12S16692   3.469   2.523   9.683  0.2456 -1.2951 -2.2372
  141DOPC  C21316693   3.517   2.328   9.636 -0.5761 -0.0920  0.5827
  141DOPC  H13R16694   3.565   2.236   9.676 -1.9216 -0.5148  1.2630
  141DOPC  H13S16695   3.574   2.359   9.545 -0.1411  2.9905  1.7684
  141DOPC  C21416696   3.375   2.295   9.599  0.7867 -0.8715 -0.4027
  141DOPC  H14R16697   3.343   2.371   9.525  0.1479 -2.2705 -1.6166
  141DOPC  H14S16698   3.312   2.286   9.691  0.7177 -1.4955 -0.5085
  141DOPC  C21516699   3.372   2.160   9.537 -0.0155 -0.3410 -0.4580
  141DOPC  H15R16700   3.375   2.072   9.606  2.1497  0.1261  0.1204
  141DOPC  H15S16701   3.465   2.161   9.476  0.9864 -1.3584  0.9830
  141DOPC  C21616702   3.247   2.141   9.445  0.0628 -0.2919  0.3161
  141DOPC  H16R16703   3.236   2.241   9.396  1.7923  0.9719  2.3354
  141DOPC  H16S16704   3.156   2.127   9.507  0.8537 -1.7361  1.1900
  141DOPC  C21716705   3.252   2.025   9.341  0.3347 -0.5383 -0.7446
  141DOPC  H17R16706   3.156   2.042   9.289 -0.3656  0.9339  0.9087
  141DOPC  H17S16707   3.257   1.927   9.393  1.9687  0.8001  1.8485
  141DOPC  C21816708   3.358   2.038   9.234  0.0152  0.0594  0.0736
  141DOPC  H18R16709   3.338   1.956   9.162  1.6325 -0.8012  0.5548
  141DOPC  H18S16710   3.462   2.032   9.272 -0.1124  0.2530  0.4519
  141DOPC  H18T16711   3.353   2.131   9.172  0.8978 -0.8823 -1.4831
  141DOPC   C3316712   4.475   3.074  10.821  0.8091 -0.4338 -0.3844
  141DOPC   H3X16713   4.559   3.005  10.843  1.2575 -0.3626 -1.7765
  141DOPC   H3Y16714   4.473   3.151  10.901 -0.8174 -1.8850  1.0552
  141DOPC   C3416715   4.500   3.118  10.679  0.4062 -0.0007  0.2206
  141DOPC   H4X16716   4.526   3.033  10.614 -0.7595  0.3186 -0.6936
  141DOPC   H4Y16717   4.594   3.175  10.693  0.4653 -0.4060  1.6707
  141DOPC   C3516718   4.393   3.206  10.614 -1.5142 -0.6396 -0.0419
  141DOPC   H5X16719   4.389   3.298  10.678 -0.2081 -0.8264  0.3393
  141DOPC   H5Y16720   4.294   3.156  10.614 -0.5575 -2.6142  0.7155
  141DOPC   C3616721   4.430   3.253  10.468  0.4491  0.4098  0.1923
  141DOPC   H6X16722   4.530   3.301  10.478 -0.8028  3.0505  0.8228
  141DOPC   H6Y16723   4.421   3.165  10.401 -1.1673  0.9701 -0.3744
  141DOPC   C3716724   4.335   3.360  10.414 -0.3707  0.0253 -0.4536
  141DOPC   H7X16725   4.235   3.312  10.418 -1.6181  2.4258 -0.7734
  141DOPC   H7Y16726   4.338   3.448  10.482  0.5444 -1.7141  1.9080
  141DOPC   C3816727   4.362   3.404  10.274  0.0162 -0.5400  0.0267
  141DOPC   H8X16728   4.346   3.308  10.220  1.2741 -1.5509  1.3661
  141DOPC   H8Y16729   4.469   3.432  10.278 -0.5737  1.7892  0.7884
  141DOPC   C3916730   4.272   3.517  10.229  0.0941 -0.2852 -0.1466
  141DOPC   H9X16731   4.302   3.616  10.266  0.5922 -0.0940 -1.0334
  141DOPC  C31016732   4.162   3.508  10.155 -0.4870  0.1565  0.6101
  141DOPC  H10X16733   4.117   3.603  10.123  0.1765  0.1650 -0.3476
  141DOPC  C31116734   4.100   3.381  10.113 -0.4623 -0.2706 -0.6123
  141DOPC  H11X16735   4.152   3.288  10.144 -0.5004  0.5109  2.0883
  141DOPC  H11Y16736   4.102   3.395  10.003  1.3945 -4.1787 -1.2675
  141DOPC  C31216737   3.963   3.364  10.173  0.2717 -0.1664 -0.2631
  141DOPC  H12X16738   3.897   3.450  10.147 -1.2198 -1.2435 -0.1634
  141DOPC  H12Y16739   3.969   3.362  10.284 -0.0715 -2.8629 -0.2438
  141DOPC  C31316740   3.866   3.241  10.126 -0.5647  0.5666  0.0182
  141DOPC  H13X16741   3.856   3.181  10.219  1.8359  1.0066  0.6500
  141DOPC  H13Y16742   3.768   3.287  10.102 -0.7267  0.6995  0.8859
  141DOPC  C31416743   3.929   3.153  10.017 -0.3379  0.5568  0.2561
  141DOPC  H14X16744   3.979   3.216   9.941  0.6641 -0.0238  0.4129
  141DOPC  H14Y16745   4.010   3.089  10.057  1.3213  1.5168 -1.4044
  141DOPC  C31516746   3.828   3.059   9.952 -0.2967 -0.2951 -0.0024
  141DOPC  H15X16747   3.745   3.129   9.929 -2.3924 -1.6408  2.8466
  141DOPC  H15Y16748   3.788   2.986  10.026  0.1141 -1.8638 -1.2750
  141DOPC  C31616749   3.872   2.971   9.830  0.1928 -0.5788  0.0100
  141DOPC  H16X16750   3.894   3.047   9.752  1.1020 -0.5254  0.3068
  141DOPC  H16Y16751   3.963   2.911   9.852 -1.8839 -3.7869  0.4192
  141DOPC  C31716752   3.767   2.868   9.790  0.5187  0.0910 -0.0211
  141DOPC  H17X16753   3.762   2.790   9.868  0.5449 -0.3300 -0.4312
  141DOPC  H17Y16754   3.667   2.917   9.797  0.1246 -0.7850  0.7029
  141DOPC  C31816755   3.792   2.793   9.661 -0.0572 -0.2218 -0.7424
  141DOPC  H18X16756   3.699   2.732   9.654 -1.1711  1.4913 -1.2601
  141DOPC  H18Y16757   3.794   2.866   9.578  1.4498  1.2170  0.4901
  141DOPC  H18Z16758   3.885   2.732   9.663  1.8671  2.3979 -3.0866
  142DOPC     N16759   4.815   3.611  11.537  0.5571 -0.2880 -0.6492
  142DOPC   C1216760   4.862   3.635  11.395  0.5550 -0.1448  0.1508
  142DOPC  H12A16761   4.969   3.640  11.407  0.3174  1.5914  2.1856
  142DOPC  H12B16762   4.826   3.731  11.358  1.3485 -0.6886 -2.2483
  142DOPC   C1316763   4.895   3.499  11.594  0.5467  0.3268  1.1319
  142DOPC  H13A16764   4.871   3.481  11.698  0.3976 -1.0577  0.8876
  142DOPC  H13B16765   4.868   3.411  11.537 -0.4765  1.3867 -0.0842
  142DOPC  H13C16766   5.001   3.514  11.582  0.6810 -0.7670  0.7509
  142DOPC   C1416767   4.676   3.564  11.543  0.6337  0.3150 -0.4562
  142DOPC  H14A16768   4.645   3.541  11.644  1.3686  1.9779  0.1675
  142DOPC  H14B16769   4.596   3.629  11.510 -0.8955 -1.7595 -1.0806
  142DOPC  H14C16770   4.666   3.468  11.493  1.2637 -0.7131  1.3029
  142DOPC   C1516771   4.816   3.738  11.615 -0.3073  0.2731 -1.0974
  142DOPC  H15A16772   4.749   3.814  11.580 -0.2059  1.1714  0.5343
  142DOPC  H15B16773   4.916   3.774  11.636  0.1884 -1.7168  0.2549
  142DOPC  H15C16774   4.778   3.707  11.711 -1.4487 -1.5664 -2.1001
  142DOPC   C1116775   4.826   3.536  11.281 -0.4434 -0.1073  0.1573
  142DOPC  H11A16776   4.716   3.537  11.264 -0.6645  2.2561  1.3552
  142DOPC  H11B16777   4.866   3.569  11.183 -0.7378  0.0542  0.0894
  142DOPC     P16778   5.001   3.337  11.252  0.2891  0.0325 -0.4802
  142DOPC   O1316779   5.006   3.204  11.322 -0.0931  0.1407 -0.1092
  142DOPC   O1416780   5.113   3.425  11.255  0.0433 -0.3317 -0.1473
  142DOPC   O1216781   4.869   3.405  11.315 -0.1054  0.8594  0.4716
  142DOPC   O1116782   4.960   3.316  11.101  0.2218 -0.4056  0.5270
  142DOPC    C116783   4.840   3.253  11.055  0.2661 -0.1446 -0.5478
  142DOPC    HA16784   4.746   3.280  11.107 -0.9804  0.7640 -3.1117
  142DOPC    HB16785   4.867   3.147  11.077  0.8323  0.1219  0.0746
  142DOPC    C216786   4.814   3.278  10.904 -0.4308  0.4934  0.3206
  142DOPC    HS16787   4.746   3.201  10.860 -0.5597  0.2054  1.0032
  142DOPC   O2116788   4.940   3.276  10.828 -0.2037  0.1346  0.5740
  142DOPC   C2116789   5.000   3.160  10.817  0.8693  0.6167  0.0281
  142DOPC   O2216790   4.964   3.058  10.877  0.0649  0.2885  0.0802
  142DOPC   C2216791   5.113   3.175  10.722 -0.0474  0.3233 -0.3748
  142DOPC   H2R16792   5.214   3.153  10.764 -0.0657 -0.7761 -0.8701
  142DOPC   H2S16793   5.108   3.275  10.676 -0.8338  0.6421  0.3751
  142DOPC    C316794   4.759   3.422  10.893  0.3569  0.2796 -0.1412
  142DOPC    HX16795   4.828   3.493  10.944  0.7576  2.0420 -2.9252
  142DOPC    HY16796   4.660   3.430  10.943  0.1241 -1.0545 -0.3548
  142DOPC   O3116797   4.738   3.465  10.757 -0.1152  0.1220  0.0824
  142DOPC   C3116798   4.827   3.545  10.701 -0.5468 -0.4886  0.5511
  142DOPC   O3216799   4.928   3.584  10.754 -0.0256 -0.5591 -0.7522
  142DOPC   C3216800   4.812   3.556  10.546  0.1362 -0.6092  0.3504
  142DOPC   H2X16801   4.874   3.636  10.500  0.2230 -0.8620  0.0169
  142DOPC   H2Y16802   4.855   3.460  10.509  0.9382 -0.1577  0.0628
  142DOPC   C2316803   5.099   3.081  10.599  0.1098 -0.0253 -0.9047
  142DOPC   H3R16804   5.084   2.981  10.644 -0.1065  0.2315 -0.3966
  142DOPC   H3S16805   5.192   3.085  10.539 -0.1054 -0.2681 -1.2598
  142DOPC   C2416806   4.984   3.112  10.498  0.2145 -0.0944  0.2322
  142DOPC   H4R16807   4.891   3.117  10.559  0.0835 -0.7532  0.0896
  142DOPC   H4S16808   4.986   3.029  10.425  2.0437 -0.6892  0.8930
  142DOPC   C2516809   5.016   3.243  10.411 -0.1613  0.8196 -0.3175
  142DOPC   H5R16810   5.100   3.219  10.342 -0.2958 -0.0740 -0.1895
  142DOPC   H5S16811   5.044   3.331  10.472  2.2851 -0.6738  0.9028
  142DOPC   C2616812   4.901   3.282  10.310 -0.1146 -0.9661 -0.0022
  142DOPC   H6R16813   4.814   3.312  10.373 -1.1585  0.8154 -2.1819
  142DOPC   H6S16814   4.871   3.193  10.250 -0.3798 -1.3449  0.6765
  142DOPC   C2716815   4.950   3.394  10.221  0.3739  0.4793 -0.2354
  142DOPC   H7R16816   5.038   3.371  10.157  0.9102 -0.9134  0.9540
  142DOPC   H7S16817   4.979   3.475  10.291  0.6693 -0.2971  0.5568
  142DOPC   C2816818   4.833   3.460  10.139 -0.0620  0.2480  0.6227
  142DOPC   H8R16819   4.883   3.540  10.080 -1.5715  1.0816  0.4238
  142DOPC   H8S16820   4.757   3.514  10.199 -0.3442  1.6889 -0.9416
  142DOPC   C2916821   4.748   3.363  10.064  0.5567  0.3754 -0.2792
  142DOPC   H9R16822   4.667   3.315  10.122  0.2238  0.1877 -0.8849
  142DOPC  C21016823   4.762   3.304   9.946 -0.0452  0.4872 -0.5302
  142DOPC  H10R16824   4.692   3.223   9.922  1.1374 -1.5330  2.2376
  142DOPC  C21116825   4.880   3.310   9.854 -0.2770  0.1276  0.2200
  142DOPC  H11R16826   4.951   3.227   9.872  1.2740  1.6681  1.5741
  142DOPC  H11S16827   4.930   3.409   9.862 -0.3101  0.4451 -2.5709
  142DOPC  C21216828   4.829   3.304   9.711  0.1885 -0.3290  1.0416
  142DOPC  H12R16829   4.750   3.381   9.697  0.2192 -0.5349 -0.4081
  142DOPC  H12S16830   4.788   3.205   9.682  2.5577 -0.7052 -1.4344
  142DOPC  C21316831   4.928   3.346   9.602 -0.2788 -0.0168  0.1630
  142DOPC  H13R16832   5.010   3.271   9.597 -1.8851 -1.7946 -0.5416
  142DOPC  H13S16833   4.968   3.445   9.634  1.8122 -0.4714 -0.8174
  142DOPC  C21416834   4.870   3.355   9.458 -0.1508  0.0117  0.4403
  142DOPC  H14R16835   4.779   3.419   9.453 -0.0362  0.0881 -1.4237
  142DOPC  H14S16836   4.830   3.254   9.438 -1.1971  0.6874 -1.0720
  142DOPC  C21516837   4.961   3.385   9.336 -0.5136  0.0249 -0.1754
  142DOPC  H15R16838   4.903   3.363   9.244 -0.1610 -5.3319  0.5732
  142DOPC  H15S16839   5.050   3.320   9.330 -0.9582 -0.6950  0.8281
  142DOPC  C21616840   5.010   3.529   9.348 -0.0213  0.2510  0.5868
  142DOPC  H16R16841   5.066   3.521   9.444 -0.7709  0.7018  1.0661
  142DOPC  H16S16842   4.927   3.601   9.357 -1.1889 -1.1431  1.3350
  142DOPC  C21716843   5.107   3.577   9.238 -0.2432 -0.1895 -0.6616
  142DOPC  H17R16844   5.068   3.556   9.135  0.9193  1.2503 -1.4301
  142DOPC  H17S16845   5.200   3.517   9.251  0.1251  0.7382  1.3088
  142DOPC  C21816846   5.150   3.727   9.239  0.7692 -0.0085  0.1251
  142DOPC  H18R16847   5.079   3.782   9.173  1.2727 -0.9131 -1.2121
  142DOPC  H18S16848   5.252   3.732   9.195  0.2325 -0.5234 -1.2552
  142DOPC  H18T16849   5.151   3.771   9.341  0.9839 -1.3561  0.7209
  142DOPC   C3316850   4.659   3.571  10.492 -0.6529  0.5993 -0.7508
  142DOPC   H3X16851   4.596   3.522  10.568  0.3880 -1.4679 -1.1433
  142DOPC   H3Y16852   4.649   3.518  10.395 -0.5948 -0.2461 -0.2976
  142DOPC   C3416853   4.625   3.716  10.480  0.3370 -0.2541  0.0801
  142DOPC   H4X16854   4.691   3.744  10.396  1.1384 -1.8772  0.1286
  142DOPC   H4Y16855   4.661   3.771  10.569  0.3988 -1.5502  0.8822
  142DOPC   C3516856   4.480   3.749  10.457  0.7154 -0.1903 -0.1160
  142DOPC   H5X16857   4.410   3.693  10.523 -0.2680  2.0549  0.8730
  142DOPC   H5Y16858   4.455   3.732  10.350 -0.5961 -1.0376  0.3023
  142DOPC   C3616859   4.446   3.898  10.498  0.1158 -0.1067  0.1621
  142DOPC   H6X16860   4.345   3.917  10.456  0.6266 -1.9060 -2.0852
  142DOPC   H6Y16861   4.448   3.914  10.608  1.5355  1.3255 -0.0378
  142DOPC   C3716862   4.547   3.997  10.436  0.3077  0.4516 -0.2462
  142DOPC   H7X16863   4.649   3.995  10.479  0.5056 -0.9688 -0.7219
  142DOPC   H7Y16864   4.560   3.976  10.328  1.1068  0.4539 -0.1578
  142DOPC   C3816865   4.498   4.140  10.458  0.3133 -0.1342  0.9292
  142DOPC   H8X16866   4.398   4.151  10.411  0.5373  0.5492  0.5910
  142DOPC   H8Y16867   4.566   4.204  10.398  0.2670  2.2396  3.2345
  142DOPC   C3916868   4.494   4.198  10.598 -0.1774  0.2915  0.2645
  142DOPC   H9X16869   4.412   4.165  10.664 -0.5013 -1.5234 -0.9979
  142DOPC  C31016870   4.593   4.266  10.655 -0.0572  0.4983  0.3050
  142DOPC  H10X16871   4.595   4.285  10.763  1.1560 -3.4795  1.1388
  142DOPC  C31116872   4.722   4.309  10.592  0.4183 -0.2096 -0.1948
  142DOPC  H11X16873   4.745   4.241  10.507 -0.0277 -0.1458 -0.3688
  142DOPC  H11Y16874   4.796   4.293  10.673 -1.6579 -1.1461  1.6111
  142DOPC  C31216875   4.714   4.450  10.535  0.3814 -0.2184  0.2118
  142DOPC  H12X16876   4.687   4.524  10.614  0.3910 -0.2156  0.2123
  142DOPC  H12Y16877   4.631   4.452  10.461  0.1268 -1.6808  0.4379
  142DOPC  C31316878   4.841   4.496  10.457  0.0528  0.4061  0.3265
  142DOPC  H13X16879   4.838   4.602  10.423  3.1598  1.0172  1.6180
  142DOPC  H13Y16880   4.919   4.488  10.536 -0.9884  0.0941  1.3482
  142DOPC  C31416881   4.862   4.403  10.334 -0.0347  0.5285  0.0027
  142DOPC  H14X16882   4.966   4.427  10.302  0.9954  1.4373  3.5885
  142DOPC  H14Y16883   4.868   4.295  10.360  0.3236  0.7481  0.8862
  142DOPC  C31516884   4.757   4.425  10.225 -0.3689  0.0014  0.6475
  142DOPC  H15X16885   4.754   4.534  10.204 -0.3860 -0.1238 -0.0031
  142DOPC  H15Y16886   4.658   4.393  10.265 -0.9460  1.7038  0.6475
  142DOPC  C31616887   4.769   4.345  10.090  0.7662  0.2957 -0.9747
  142DOPC  H16X16888   4.740   4.239  10.107 -2.2564  1.3854  1.6770
  142DOPC  H16Y16889   4.683   4.378  10.028  1.1631  1.0531 -1.1339
  142DOPC  C31716890   4.902   4.363  10.021  0.1602  0.8138 -0.5483
  142DOPC  H17X16891   4.914   4.471  10.000 -0.4127  0.7500 -1.2157
  142DOPC  H17Y16892   4.986   4.341  10.091 -0.3907 -0.1506 -0.1593
  142DOPC  C31816893   4.887   4.284   9.893  0.1988  0.0695  0.7997
  142DOPC  H18X16894   4.885   4.175   9.911  3.4281 -0.7072 -2.5096
  142DOPC  H18Y16895   4.797   4.304   9.831  0.5876 -1.2566 -0.2317
  142DOPC  H18Z16896   4.974   4.302   9.826 -1.2107 -1.5071 -1.5749
  143DOPC     N16897   2.758   2.978  11.691 -0.6884  0.4152  0.2259
  143DOPC   C1216898   2.792   2.947  11.550 -0.6477  0.1497  0.5841
  143DOPC  H12A16899   2.898   2.928  11.552 -0.6859 -0.0719  2.1416
  143DOPC  H12B16900   2.795   3.040  11.494 -1.0739 -0.1891 -0.0128
  143DOPC   C1316901   2.642   3.072  11.683 -0.6997  0.0759  0.6548
  143DOPC  H13A16902   2.600   3.083  11.782  2.2486 -1.4691  2.2215
  143DOPC  H13B16903   2.677   3.167  11.646  1.9772 -1.4049 -0.9424
  143DOPC  H13C16904   2.569   3.034  11.613 -0.2361  0.6977 -0.1736
  143DOPC   C1416905   2.872   3.045  11.772 -1.0329 -0.4397 -0.0594
  143DOPC  H14A16906   2.909   3.132  11.720 -0.8915 -0.4320  0.0501
  143DOPC  H14B16907   2.837   3.065  11.873 -0.4680 -0.1998  0.0916
  143DOPC  H14C16908   2.958   2.980  11.782  0.1269  1.1682  1.0346
  143DOPC   C1516909   2.727   2.858  11.780 -0.4803 -0.9941  0.5078
  143DOPC  H15A16910   2.630   2.815  11.759 -0.2154 -2.2377  1.6502
  143DOPC  H15B16911   2.714   2.886  11.883 -1.2901 -1.3850  0.5174
  143DOPC  H15C16912   2.801   2.781  11.761  2.2892  1.6779 -0.4142
  143DOPC   C1116913   2.716   2.838  11.469 -0.6113 -0.5707  0.2873
  143DOPC  H11A16914   2.608   2.866  11.468 -0.7314 -1.0397 -0.5273
  143DOPC  H11B16915   2.741   2.866  11.364 -2.1281 -3.0598 -0.8288
  143DOPC     P16916   2.852   2.619  11.479 -0.2160 -0.2907 -0.3994
  143DOPC   O1316917   2.823   2.488  11.536  0.1250  0.0019 -0.1962
  143DOPC   O1416918   2.964   2.693  11.536 -0.4767  0.1200 -0.3724
  143DOPC   O1216919   2.716   2.700  11.500  0.2029 -0.1207 -0.4498
  143DOPC   O1116920   2.870   2.609  11.319  0.6950  0.8953  0.5334
  143DOPC    C116921   2.781   2.528  11.241  0.3350 -0.1027  0.1451
  143DOPC    HA16922   2.726   2.454  11.303 -0.0127 -0.3302 -0.4366
  143DOPC    HB16923   2.841   2.469  11.169 -1.6661 -1.0192 -0.8408
  143DOPC    C216924   2.673   2.619  11.163  0.4371  0.3519 -0.2572
  143DOPC    HS16925   2.616   2.660  11.249  0.5999 -0.6408  0.3303
  143DOPC   O2116926   2.595   2.538  11.070 -0.0934 -0.1013  0.4998
  143DOPC   C2116927   2.470   2.545  11.087 -0.0114  0.2321 -0.5028
  143DOPC   O2216928   2.414   2.620  11.165 -0.2098  0.5415 -0.7209
  143DOPC   C2216929   2.406   2.446  10.995  0.0680  0.4643  0.1627
  143DOPC   H2R16930   2.349   2.385  11.067 -0.0182 -1.6704 -1.6306
  143DOPC   H2S16931   2.479   2.381  10.943 -1.7072 -0.2795 -1.4924
  143DOPC    C316932   2.730   2.737  11.082 -0.4327 -0.0383  0.0532
  143DOPC    HX16933   2.820   2.691  11.036 -0.8310 -1.3476  0.5582
  143DOPC    HY16934   2.781   2.812  11.147  0.5226  0.4070 -1.1606
  143DOPC   O3116935   2.640   2.790  10.978  0.3114  0.0583  0.0081
  143DOPC   C3116936   2.563   2.894  11.017 -0.1126 -0.9593 -0.5827
  143DOPC   O3216937   2.556   2.941  11.130  1.1151 -0.1547 -0.2582
  143DOPC   C3216938   2.481   2.944  10.903  0.0495  0.4964  0.3877
  143DOPC   H2X16939   2.542   2.920  10.813  0.3374 -1.6043  1.0996
  143DOPC   H2Y16940   2.387   2.887  10.911  0.4873 -0.3717 -0.4392
  143DOPC   C2316941   2.335   2.510  10.878  0.8317 -0.0152  0.3631
  143DOPC   H3R16942   2.393   2.585  10.820 -0.5767 -0.6730 -2.0836
  143DOPC   H3S16943   2.246   2.562  10.920 -0.2270 -2.5048  1.4392
  143DOPC   C2416944   2.272   2.396  10.775 -0.3832 -0.1160 -0.5015
  143DOPC   H4R16945   2.195   2.340  10.832 -2.8162  1.9674 -1.5122
  143DOPC   H4S16946   2.358   2.329  10.757  1.1149  1.0401  1.9405
  143DOPC   C2516947   2.219   2.457  10.647  0.1610  0.2514  0.0033
  143DOPC   H5R16948   2.296   2.522  10.601  1.7460 -0.3446  1.6673
  143DOPC   H5S16949   2.131   2.520  10.670 -1.8090 -2.1449 -0.4958
  143DOPC   C2616950   2.162   2.357  10.542  0.1842  0.0736  0.7112
  143DOPC   H6R16951   2.089   2.288  10.589 -2.0004  0.3753 -2.0041
  143DOPC   H6S16952   2.244   2.290  10.510 -0.4327  0.2970 -1.4866
  143DOPC   C2716953   2.097   2.440  10.428  0.5751 -0.7154  0.0090
  143DOPC   H7R16954   2.184   2.489  10.378 -0.2566  2.7011  1.6338
  143DOPC   H7S16955   2.025   2.511  10.473  1.9469  0.8074 -0.0979
  143DOPC   C2816956   2.016   2.350  10.339  0.4541  0.5262 -0.0659
  143DOPC   H8R16957   1.927   2.298  10.381 -0.0139  1.3249 -0.0598
  143DOPC   H8S16958   2.087   2.266  10.323  1.0599  0.9557  0.3132
  143DOPC   C2916959   1.967   2.418  10.209 -0.6008 -0.0532 -0.3701
  143DOPC   H9R16960   1.898   2.503  10.215  1.3398  1.5361  0.3638
  143DOPC  C21016961   2.002   2.374  10.086  0.3116 -0.3395 -0.0873
  143DOPC  H10R16962   1.954   2.435  10.008 -0.4028  0.0537  0.6484
  143DOPC  C21116963   2.096   2.261  10.045  0.5234 -0.5696  0.7646
  143DOPC  H11R16964   2.050   2.169  10.085 -2.3049 -0.3826 -1.7254
  143DOPC  H11S16965   2.199   2.266  10.086  0.6995 -1.6739  0.4735
  143DOPC  C21216966   2.092   2.228   9.892 -0.3467  0.4091  0.7005
  143DOPC  H12R16967   2.124   2.322   9.841  2.8482 -1.5732 -1.3359
  143DOPC  H12S16968   1.992   2.198   9.856 -0.1779  0.7612 -0.0797
  143DOPC  C21316969   2.203   2.115   9.870  0.4656 -0.1872  0.4795
  143DOPC  H13R16970   2.180   2.034   9.942  0.0058  2.3446  3.3637
  143DOPC  H13S16971   2.300   2.155   9.904  0.4564 -0.7050  1.1146
  143DOPC  C21416972   2.218   2.070   9.728 -0.6062  0.8062  0.7382
  143DOPC  H14R16973   2.286   2.144   9.681  0.3832  0.9040  2.2565
  143DOPC  H14S16974   2.117   2.062   9.683 -0.4092  0.1114  0.4127
  143DOPC  C21516975   2.292   1.936   9.704  0.2841  0.1323  0.1627
  143DOPC  H15R16976   2.228   1.849   9.731  0.8806 -0.2712  0.2955
  143DOPC  H15S16977   2.383   1.944   9.767  0.3702  1.5704 -0.0980
  143DOPC  C21616978   2.338   1.926   9.554  0.1930 -0.1497  0.9213
  143DOPC  H16R16979   2.411   2.007   9.533  1.1000 -0.9177  1.0414
  143DOPC  H16S16980   2.248   1.934   9.489  0.0107  0.6826  1.2578
  143DOPC  C21716981   2.414   1.797   9.535  0.6829  0.0543 -0.5756
  143DOPC  H17R16982   2.349   1.710   9.558 -2.1411  1.7468 -1.5362
  143DOPC  H17S16983   2.484   1.791   9.621 -1.6594  1.3007  1.5807
  143DOPC  C21816984   2.473   1.784   9.395  0.6641  0.1849  1.1558
  143DOPC  H18R16985   2.396   1.760   9.318 -0.2711 -0.3655  2.2306
  143DOPC  H18S16986   2.542   1.698   9.407  2.2298  1.3166  0.5301
  143DOPC  H18T16987   2.529   1.875   9.366  0.6346 -0.2264 -0.2734
  143DOPC   C3316988   2.463   3.096  10.892 -0.0626 -0.0808 -0.2031
  143DOPC   H3X16989   2.564   3.142  10.893 -0.2183  0.2794 -0.6269
  143DOPC   H3Y16990   2.411   3.133  10.983 -0.8520 -2.0899  0.2163
  143DOPC   C3416991   2.390   3.143  10.768  0.5470  0.6284  0.6048
  143DOPC   H4X16992   2.459   3.139  10.682 -0.1541 -0.8516  0.0810
  143DOPC   H4Y16993   2.370   3.252  10.778 -1.3935  0.6488 -2.2666
  143DOPC   C3516994   2.261   3.069  10.727  0.2575 -0.1704  0.8315
  143DOPC   H5X16995   2.188   3.060  10.810 -0.2667  0.3750  0.4402
  143DOPC   H5Y16996   2.288   2.965  10.699  1.7998  0.3491  0.2965
  143DOPC   C3616997   2.184   3.125  10.614  0.7512 -0.3349 -0.6988
  143DOPC   H6X16998   2.253   3.185  10.550  0.8306 -1.5211 -1.7838
  143DOPC   H6Y16999   2.142   3.049  10.544 -2.9632  0.3491  0.5647
  143DOPC   C3717000   2.062   3.215  10.661 -0.2974 -0.4536 -0.0879
  143DOPC   H7X17001   1.995   3.146  10.718  1.4370 -1.2368  1.0864
  143DOPC   H7Y17002   2.096   3.297  10.729 -1.8012  0.5163 -0.4412
  143DOPC   C3817003   1.980   3.286  10.546  1.2895  0.6892 -0.1462
  143DOPC   H8X17004   2.050   3.353  10.492  2.1159  0.3368  0.4683
  143DOPC   H8Y17005   1.903   3.347  10.599  0.4619 -1.1083  0.8083
  143DOPC   C3917006   1.913   3.185  10.455  0.1987  0.1470  0.7979
  143DOPC   H9X17007   1.820   3.143  10.496  0.2559 -0.4460  0.3287
  143DOPC  C31017008   1.929   3.168  10.321 -0.1221 -0.8915  0.8286
  143DOPC  H10X17009   1.874   3.090  10.266  0.7531 -0.7008 -0.3356
  143DOPC  C31117010   2.032   3.243  10.240  0.3581  0.3167 -0.2079
  143DOPC  H11X17011   2.051   3.190  10.144  2.7248  0.2722  0.2385
  143DOPC  H11Y17012   2.124   3.240  10.302 -1.6447  2.3466  3.1349
  143DOPC  C31217013   1.978   3.381  10.222  0.4933 -0.4653  0.3239
  143DOPC  H12X17014   1.961   3.431  10.320 -0.7608 -0.7110  0.2460
  143DOPC  H12Y17015   1.873   3.374  10.189  0.2817 -3.0335  1.3136
  143DOPC  C31317016   2.075   3.473  10.137  0.2441 -0.9949 -0.2017
  143DOPC  H13X17017   2.045   3.576  10.168 -0.7242 -1.5884  0.9541
  143DOPC  H13Y17018   2.181   3.458  10.166  0.5286  1.0658 -0.0006
  143DOPC  C31417019   2.068   3.454   9.992  0.2677  1.2218 -0.1861
  143DOPC  H14X17020   2.104   3.351   9.970  0.1985  1.2254 -0.3147
  143DOPC  H14Y17021   1.962   3.468   9.961 -0.3395 -0.9443  0.6781
  143DOPC  C31517022   2.157   3.533   9.905 -0.9261  0.3188  0.1396
  143DOPC  H15X17023   2.258   3.550   9.947 -0.3855 -0.8166 -0.6638
  143DOPC  H15Y17024   2.103   3.629   9.888 -0.6601  0.4757  0.1748
  143DOPC  C31617025   2.163   3.473   9.765  0.1361 -0.2354  0.2099
  143DOPC  H16X17026   2.243   3.396   9.764 -0.8574 -1.2798  0.0917
  143DOPC  H16Y17027   2.072   3.418   9.734 -0.6855  0.5425  1.1620
  143DOPC  C31717028   2.203   3.576   9.655  0.2735 -0.9598  0.2613
  143DOPC  H17X17029   2.122   3.652   9.668  0.4861 -0.9875  2.0490
  143DOPC  H17Y17030   2.296   3.626   9.690 -1.3180  4.3825 -2.0253
  143DOPC  C31817031   2.213   3.514   9.522  0.3057 -0.1960  0.1142
  143DOPC  H18X17032   2.112   3.480   9.490  0.7366 -1.7173  0.3220
  143DOPC  H18Y17033   2.253   3.574   9.438  0.4604  2.0469  1.6791
  143DOPC  H18Z17034   2.274   3.422   9.527 -0.6658 -1.0226 -2.0562
  144DOPC     N17035   3.335   2.075  11.594 -0.0531 -0.2513 -0.0136
  144DOPC   C1217036   3.339   2.099  11.442 -0.3088 -0.0358  0.6917
  144DOPC  H12A17037   3.416   2.170  11.416  1.5414 -2.2229 -0.1182
  144DOPC  H12B17038   3.251   2.155  11.414  0.4091  1.3601  1.0905
  144DOPC   C1317039   3.459   1.995  11.630 -0.3218  0.8966 -1.3928
  144DOPC  H13A17040   3.483   1.915  11.562 -1.4595 -0.0359 -0.7287
  144DOPC  H13B17041   3.546   2.060  11.630  0.1013  0.5042  2.0399
  144DOPC  H13C17042   3.454   1.950  11.728  1.4955 -0.2450 -1.7734
  144DOPC   C1417043   3.218   1.989  11.627 -0.0277 -0.4606 -0.2138
  144DOPC  H14A17044   3.214   1.972  11.733  1.6861  0.0163 -0.0416
  144DOPC  H14B17045   3.124   2.035  11.600 -0.8816 -0.3293  2.6395
  144DOPC  H14C17046   3.223   1.892  11.579  1.3373 -0.1586 -0.7173
  144DOPC   C1517047   3.344   2.193  11.671 -0.3754  0.6213  0.4703
  144DOPC  H15A17048   3.263   2.262  11.654 -0.8168 -0.2340 -1.0599
  144DOPC  H15B17049   3.442   2.235  11.659  0.1999 -1.2310 -2.0475
  144DOPC  H15C17050   3.316   2.164  11.772 -2.9014 -1.6258 -0.7296
  144DOPC   C1117051   3.348   1.974  11.351  0.3922  0.3288  0.1590
  144DOPC  H11A17052   3.254   1.920  11.373  0.5066 -0.7983 -1.8868
  144DOPC  H11B17053   3.337   2.011  11.247  2.9737  0.9782  0.0389
  144DOPC     P17054   3.579   1.889  11.268 -0.0065  0.3705  0.1641
  144DOPC   O1317055   3.608   1.748  11.229 -0.0963  0.0400  0.1670
  144DOPC   O1417056   3.687   1.961  11.343  0.0686  0.2628  0.0810
  144DOPC   O1217057   3.457   1.885  11.365 -0.2234 -0.1368  0.3307
  144DOPC   O1117058   3.543   1.960  11.132 -0.3733  0.2692  0.0168
  144DOPC    C117059   3.441   1.898  11.045  0.2274  0.2273  0.0283
  144DOPC    HA17060   3.396   1.979  10.984 -0.0776  0.1592  0.1624
  144DOPC    HB17061   3.359   1.846  11.098  1.3886 -0.5464  1.1293
  144DOPC    C217062   3.492   1.797  10.942 -0.2320  0.1179  0.1584
  144DOPC    HS17063   3.529   1.704  10.991  2.4421  0.3577 -1.2335
  144DOPC   O2117064   3.603   1.865  10.874  0.0652 -0.1276  0.6288
  144DOPC   C2117065   3.677   1.785  10.804 -0.2617 -0.0434 -0.0070
  144DOPC   O2217066   3.689   1.663  10.818  0.2744  0.5164  0.0478
  144DOPC   C2217067   3.752   1.852  10.693 -0.6220 -0.1874 -0.0278
  144DOPC   H2R17068   3.842   1.900  10.737 -0.3264 -0.2810 -0.5192
  144DOPC   H2S17069   3.692   1.931  10.642  2.7351  3.5210  1.2592
  144DOPC    C317070   3.382   1.769  10.838 -0.5683 -0.4578 -0.4520
  144DOPC    HX17071   3.362   1.861  10.779  1.7437 -0.3349 -1.1381
  144DOPC    HY17072   3.287   1.738  10.888 -1.1118 -0.7808 -1.6469
  144DOPC   O3117073   3.423   1.660  10.748 -0.2923 -0.5323 -0.4096
  144DOPC   C3117074   3.408   1.535  10.793 -0.6240  0.2693 -0.4434
  144DOPC   O3217075   3.359   1.509  10.903 -0.2833  0.4010 -0.3539
  144DOPC   C3217076   3.484   1.438  10.691 -0.5890  0.1741 -0.3451
  144DOPC   H2X17077   3.461   1.469  10.587  2.8623  4.4984 -0.1241
  144DOPC   H2Y17078   3.593   1.455  10.706 -0.7351 -0.5573  1.9414
  144DOPC   C2317079   3.836   1.756  10.597 -0.2785  0.3719 -0.4484
  144DOPC   H3R17080   3.878   1.670  10.653  0.6220 -0.3986 -2.2365
  144DOPC   H3S17081   3.923   1.810  10.554  0.2576 -0.4757 -0.4404
  144DOPC   C2417082   3.754   1.708  10.473  1.3931  0.1213  0.1482
  144DOPC   H4R17083   3.748   1.785  10.393  1.7694  0.4778  0.4555
  144DOPC   H4S17084   3.649   1.706  10.510  1.4539  3.0040  0.6982
  144DOPC   C2517085   3.798   1.573  10.415 -0.4961  0.4095  0.5695
  144DOPC   H5R17086   3.716   1.531  10.353  0.0074 -1.6061  1.2167
  144DOPC   H5S17087   3.805   1.519  10.512 -1.6096 -0.6932  0.0606
  144DOPC   C2617088   3.931   1.583  10.339  0.2261 -0.1657 -0.0719
  144DOPC   H6R17089   4.017   1.606  10.405  0.1716  0.9497 -0.3787
  144DOPC   H6S17090   3.926   1.667  10.267 -0.1066  2.1322  2.4699
  144DOPC   C2717091   3.953   1.459  10.248  0.2049  0.0216  0.1240
  144DOPC   H7R17092   3.882   1.448  10.163  0.9173 -1.0145 -0.3634
  144DOPC   H7S17093   3.937   1.369  10.312  2.5940 -0.2753  0.3980
  144DOPC   C2817094   4.091   1.445  10.191 -0.1395  0.7080  0.3614
  144DOPC   H8R17095   4.100   1.345  10.142 -4.1072 -0.5955  1.8695
  144DOPC   H8S17096   4.167   1.433  10.271  0.5826 -0.9326 -0.5039
  144DOPC   C2917097   4.118   1.563  10.100 -0.3670  0.4311 -0.4316
  144DOPC   H9R17098   4.120   1.660  10.154 -0.7702  1.4219 -2.1207
  144DOPC  C21017099   4.110   1.568   9.963  0.2460 -0.4219  0.4701
  144DOPC  H10R17100   4.131   1.664   9.913 -2.8315  0.5702  0.8336
  144DOPC  C21117101   4.079   1.452   9.870  0.1812 -0.4132  0.3070
  144DOPC  H11R17102   4.012   1.374   9.912 -0.6430 -0.7001 -1.4168
  144DOPC  H11S17103   4.175   1.406   9.840  0.8950 -0.1012  2.0465
  144DOPC  C21217104   4.003   1.486   9.733 -0.3902 -0.2036  0.0016
  144DOPC  H12R17105   4.043   1.578   9.685  0.9065 -0.4136  0.6354
  144DOPC  H12S17106   3.901   1.512   9.771 -0.6960 -0.4043 -0.6709
  144DOPC  C21317107   4.005   1.366   9.641  0.5418 -0.2742 -0.4795
  144DOPC  H13R17108   4.105   1.329   9.611  0.5890  1.1480 -2.2553
  144DOPC  H13S17109   3.975   1.408   9.543 -2.0591  0.0697  0.3743
  144DOPC  C21417110   3.907   1.254   9.673  0.2515  0.0704  0.5027
  144DOPC  H14R17111   3.806   1.300   9.662 -0.3198 -1.3047 -0.2991
  144DOPC  H14S17112   3.934   1.224   9.776  0.7237  0.1981  0.4216
  144DOPC  C21517113   3.906   1.136   9.574 -0.5611 -0.0578 -0.2151
  144DOPC  H15R17114   3.991   1.075   9.610  1.3907  1.5577 -1.9022
  144DOPC  H15S17115   3.935   1.183   9.478 -0.3003 -0.6925 -0.4495
  144DOPC  C21617116   3.775   1.058   9.570 -0.6799 -0.4393  0.4575
  144DOPC  H16R17117   3.698   1.119   9.518  0.7694  0.9380 -0.1866
  144DOPC  H16S17118   3.742   1.034   9.673  1.7896  2.4006  2.0997
  144DOPC  C21717119   3.798   0.927   9.489  0.5524 -0.4325 -0.3002
  144DOPC  H17R17120   3.848   0.862   9.564 -0.9318  0.5578  1.6439
  144DOPC  H17S17121   3.876   0.940   9.410  1.7657  0.9215  1.0513
  144DOPC  C21817122   3.669   0.878   9.427  0.5230  0.7199  0.4928
  144DOPC  H18R17123   3.638   0.947   9.345 -1.8455  0.4303  1.0681
  144DOPC  H18S17124   3.587   0.862   9.501 -1.3299 -1.0883 -1.7771
  144DOPC  H18T17125   3.675   0.776   9.384  0.5544  0.2467  1.5976
  144DOPC   C3317126   3.450   1.284  10.711 -0.0351 -0.0995  0.1683
  144DOPC   H3X17127   3.463   1.266  10.820 -0.1642  1.8763  0.5442
  144DOPC   H3Y17128   3.523   1.220  10.657 -1.0177 -1.4477  0.3934
  144DOPC   C3417129   3.310   1.249  10.661 -0.5271 -0.2830 -0.8211
  144DOPC   H4X17130   3.245   1.339  10.672 -0.1862 -0.1456  0.1457
  144DOPC   H4Y17131   3.271   1.166  10.725 -0.6075  1.0153  0.8860
  144DOPC   C3517132   3.308   1.185  10.518 -0.3141  0.5206  0.8064
  144DOPC   H5X17133   3.203   1.148  10.516 -0.0747 -0.2355  1.6378
  144DOPC   H5Y17134   3.377   1.099  10.507 -2.5054 -1.0274 -2.6773
  144DOPC   C3617135   3.336   1.278  10.402 -0.2461  0.1652  0.8522
  144DOPC   H6X17136   3.440   1.316  10.404 -0.4218  0.7415 -0.0324
  144DOPC   H6Y17137   3.316   1.222  10.308 -1.6359  1.9280  0.0314
  144DOPC   C3717138   3.258   1.411  10.381  0.1176 -0.3272 -0.2410
  144DOPC   H7X17139   3.150   1.387  10.383  0.6934 -3.3137  2.0141
  144DOPC   H7Y17140   3.274   1.470  10.474 -0.3083 -2.4632  1.2808
  144DOPC   C3817141   3.289   1.493  10.255  0.1534 -0.3399  0.3017
  144DOPC   H8X17142   3.274   1.430  10.164 -0.0551  2.8716 -2.0829
  144DOPC   H8Y17143   3.398   1.514  10.259  0.0446  0.5916 -0.8985
  144DOPC   C3917144   3.209   1.619  10.239 -0.4024  0.2582 -0.6701
  144DOPC   H9X17145   3.265   1.711  10.264  0.6258 -0.8425  1.3034
  144DOPC  C31017146   3.089   1.616  10.183  0.2462 -0.0423  0.2238
  144DOPC  H10X17147   3.050   1.717  10.165  0.4788 -0.1820 -1.1637
  144DOPC  C31117148   3.032   1.501  10.108  0.2402 -0.3824  1.0161
  144DOPC  H11X17149   2.927   1.485  10.139 -1.3453  0.4093 -3.2776
  144DOPC  H11Y17150   3.073   1.398  10.110 -1.5596 -1.2488 -1.7825
  144DOPC  C31217151   3.006   1.538   9.960 -0.4058  0.2327 -0.7216
  144DOPC  H12X17152   2.929   1.618   9.963  0.1183  0.7290 -0.3950
  144DOPC  H12Y17153   2.953   1.459   9.902 -3.4702  2.6161 -1.4321
  144DOPC  C31317154   3.140   1.575   9.883  0.0599  0.3677 -0.1123
  144DOPC  H13X17155   3.172   1.675   9.919  1.0937 -0.1166  0.3581
  144DOPC  H13Y17156   3.215   1.498   9.913 -0.9783 -0.1701  1.1958
  144DOPC  C31417157   3.125   1.582   9.726 -0.7511  0.7748 -0.6442
  144DOPC  H14X17158   3.220   1.611   9.677 -0.3861  1.5431  0.4837
  144DOPC  H14Y17159   3.091   1.482   9.693 -0.5605  0.2622  0.6415
  144DOPC  C31517160   3.027   1.695   9.671 -0.6155  0.2279 -0.5169
  144DOPC  H15X17161   3.064   1.790   9.715  0.1950  0.5640 -1.8771
  144DOPC  H15Y17162   2.923   1.676   9.705 -0.1391 -1.3109  0.1576
  144DOPC  C31617163   3.016   1.702   9.516  0.1129  0.3965 -0.2012
  144DOPC  H16X17164   2.961   1.798   9.498 -2.1018 -0.5645  0.9668
  144DOPC  H16Y17165   3.118   1.707   9.474  0.8717 -1.6581  1.2412
  144DOPC  C31717166   2.938   1.582   9.458 -1.1586  0.8634  0.2264
  144DOPC  H17X17167   2.992   1.485   9.470 -1.4599  0.6835  0.1394
  144DOPC  H17Y17168   2.845   1.570   9.519 -0.1955 -1.0050  1.4214
  144DOPC  C31817169   2.899   1.601   9.309 -0.6352 -0.9380 -0.4018
  144DOPC  H18X17170   2.853   1.515   9.255 -1.5484  0.0539 -1.2484
  144DOPC  H18Y17171   2.838   1.688   9.278 -0.8304 -0.5833  0.9302
  144DOPC  H18Z17172   2.997   1.612   9.256  0.6896 -1.5574  1.8049
  145DOPC     N17173   4.197   5.020  11.407 -0.7135 -0.2433 -0.4600
  145DOPC   C1217174   4.208   5.107  11.281 -0.6168  0.2563  0.1409
  145DOPC  H12A17175   4.273   5.060  11.209  0.6791  1.2392  0.6353
  145DOPC  H12B17176   4.251   5.203  11.304 -0.8312  0.2607  0.5296
  145DOPC   C1317177   4.163   5.102  11.524 -0.3060 -0.0016  0.0405
  145DOPC  H13A17178   4.167   5.051  11.619 -1.0479  2.2304  1.3598
  145DOPC  H13B17179   4.222   5.192  11.531  2.1398 -1.4797 -0.4914
  145DOPC  H13C17180   4.059   5.131  11.514 -0.3515  0.0552  0.6290
  145DOPC   C1417181   4.339   4.962  11.438  0.4831  0.1650  0.3197
  145DOPC  H14A17182   4.361   4.874  11.379 -1.5354  1.0250 -1.8658
  145DOPC  H14B17183   4.415   5.039  11.435  0.4953  0.1408  0.0066
  145DOPC  H14C17184   4.340   4.928  11.541  1.3386  1.1763  0.6693
  145DOPC   C1517185   4.106   4.903  11.383 -0.1329  0.3208  0.2772
  145DOPC  H15A17186   4.079   4.857  11.477  0.9646 -1.3265 -0.1746
  145DOPC  H15B17187   4.149   4.825  11.323 -0.4216 -0.5834  1.2118
  145DOPC  H15C17188   4.011   4.929  11.338 -1.6099 -0.0094  2.9993
  145DOPC   C1117189   4.081   5.125  11.198  0.2707 -0.1953  0.1531
  145DOPC  H11A17190   4.115   5.169  11.102 -0.7912 -0.1218 -0.2112
  145DOPC  H11B17191   4.019   5.039  11.164 -2.1036  1.4939 -0.0216
  145DOPC     P17192   4.025   5.371  11.249 -0.3754  0.1060 -0.2413
  145DOPC   O1317193   4.170   5.392  11.251  0.2863 -0.5765  0.0461
  145DOPC   O1417194   3.946   5.448  11.348 -0.3900  0.0667 -0.2595
  145DOPC   O1217195   4.000   5.215  11.268 -0.3524  0.1905  0.5050
  145DOPC   O1117196   3.957   5.390  11.110  0.2985  0.3216  0.1926
  145DOPC    C117197   3.818   5.385  11.084  0.8899 -0.2723  0.4115
  145DOPC    HA17198   3.762   5.477  11.111  1.5137  0.5113 -0.8444
  145DOPC    HB17199   3.776   5.295  11.134  1.2068  0.1214  1.4262
  145DOPC    C217200   3.789   5.360  10.932 -1.2990  0.2938  0.6227
  145DOPC    HS17201   3.684   5.326  10.920 -0.3457 -2.9722  0.6195
  145DOPC   O2117202   3.874   5.254  10.895  0.1194  0.8369  0.3551
  145DOPC   C2117203   3.841   5.133  10.930  0.2927 -0.1813  0.1063
  145DOPC   O2217204   3.735   5.104  10.986  0.4679  0.2095 -0.7155
  145DOPC   C2217205   3.946   5.029  10.872  0.2422 -0.0471  0.2052
  145DOPC   H2R17206   3.913   4.925  10.896 -0.1875  0.3643  1.4958
  145DOPC   H2S17207   4.037   5.052  10.930 -0.1341  0.6746  0.5229
  145DOPC    C317208   3.820   5.479  10.847  0.5690 -0.3909 -0.3196
  145DOPC    HX17209   3.924   5.517  10.862  0.5035 -0.1370 -0.5113
  145DOPC    HY17210   3.755   5.564  10.876  0.3298 -0.5773 -0.3103
  145DOPC   O3117211   3.799   5.447  10.710  0.5676  0.5122 -0.2545
  145DOPC   C3117212   3.895   5.413  10.628  0.0271  0.5339 -0.6832
  145DOPC   O3217213   4.011   5.393  10.652 -0.6969 -0.2474  0.2543
  145DOPC   C3217214   3.834   5.406  10.488  0.7295  0.7088  0.1614
  145DOPC   H2X17215   3.741   5.346  10.483 -0.1550  2.1501 -1.1658
  145DOPC   H2Y17216   3.792   5.506  10.465  1.5523  1.2908  1.0537
  145DOPC   C2317217   3.997   5.032  10.720  0.1527 -0.1107 -0.0398
  145DOPC   H3R17218   4.099   4.989  10.704  0.0783 -0.0580 -0.6752
  145DOPC   H3S17219   3.998   5.133  10.674  0.3935 -0.7883 -1.6002
  145DOPC   C2417220   3.911   4.950  10.619 -0.3794 -0.4779  0.6103
  145DOPC   H4R17221   3.927   4.844  10.649 -0.3474 -0.7063 -0.2050
  145DOPC   H4S17222   3.965   4.978  10.526  0.8005  2.0800  1.9787
  145DOPC   C2517223   3.761   4.990  10.615 -0.0176  0.3462  0.6368
  145DOPC   H5R17224   3.745   5.089  10.665  0.0970  0.8056 -0.2193
  145DOPC   H5S17225   3.693   4.922  10.670  1.5722 -0.5313  1.5910
  145DOPC   C2617226   3.721   5.007  10.466 -0.2622  0.0343 -0.1224
  145DOPC   H6R17227   3.730   4.904  10.425  0.0838  0.0475 -0.0823
  145DOPC   H6S17228   3.792   5.072  10.412  0.5181  0.1975  1.0723
  145DOPC   C2717229   3.574   5.059  10.442 -1.0910 -0.1628 -0.1862
  145DOPC   H7R17230   3.579   5.159  10.490  1.8893  0.3590 -1.3573
  145DOPC   H7S17231   3.507   4.993  10.501  0.3876 -0.0441  1.7164
  145DOPC   C2817232   3.531   5.068  10.299 -0.2999 -0.6941  0.5398
  145DOPC   H8R17233   3.594   5.143  10.246 -1.0123  0.8926  1.8299
  145DOPC   H8S17234   3.427   5.102  10.281 -0.5017 -1.1219  0.8973
  145DOPC   C2917235   3.539   4.933  10.223 -0.6487 -0.5810 -0.6270
  145DOPC   H9R17236   3.543   4.841  10.285 -1.8515 -0.8655 -0.9476
  145DOPC  C21017237   3.553   4.916  10.089  0.0218  0.5747 -0.0997
  145DOPC  H10R17238   3.548   4.814  10.048  0.5400  0.2403  0.6628
  145DOPC  C21117239   3.555   5.028   9.994  0.5753 -0.1054  0.3954
  145DOPC  H11R17240   3.539   5.127  10.042  1.7675  1.3593 -1.9799
  145DOPC  H11S17241   3.466   5.026   9.927 -1.5303  1.3619  2.9592
  145DOPC  C21217242   3.693   5.042   9.922 -0.1718  0.7257 -0.7475
  145DOPC  H12R17243   3.721   4.947   9.871 -0.2584  1.0534 -1.4166
  145DOPC  H12S17244   3.763   5.052  10.008 -0.0157  1.4897 -0.9542
  145DOPC  C21317245   3.710   5.160   9.819 -1.0178  0.8162  0.3584
  145DOPC  H13R17246   3.813   5.173   9.782 -1.0570 -0.8676 -0.4042
  145DOPC  H13S17247   3.677   5.249   9.879 -0.3990  1.5447 -0.3653
  145DOPC  C21417248   3.633   5.127   9.697  0.2483 -0.1644  0.8806
  145DOPC  H14R17249   3.525   5.107   9.707 -0.1513 -0.2516 -2.3050
  145DOPC  H14S17250   3.677   5.045   9.636  0.0511  1.1026 -1.0765
  145DOPC  C21517251   3.644   5.249   9.599  0.2447 -0.4823  0.3092
  145DOPC  H15R17252   3.751   5.273   9.585 -0.4076  2.1716 -0.6472
  145DOPC  H15S17253   3.599   5.343   9.637  1.4249  0.3039 -0.1877
  145DOPC  C21617254   3.571   5.223   9.468  0.2542  0.8032  0.6821
  145DOPC  H16R17255   3.532   5.324   9.443  0.9541  1.5190  2.3212
  145DOPC  H16S17256   3.472   5.176   9.487  0.0277  1.0744  0.2064
  145DOPC  C21717257   3.639   5.163   9.347 -0.5515  0.1195  0.5838
  145DOPC  H17R17258   3.677   5.061   9.369 -1.1349  0.1564  1.8418
  145DOPC  H17S17259   3.731   5.220   9.321 -0.5725 -1.1080 -2.6810
  145DOPC  C21817260   3.547   5.166   9.224 -0.1668  0.2984 -0.0303
  145DOPC  H18R17261   3.451   5.115   9.249 -0.3662 -0.0839 -1.4939
  145DOPC  H18S17262   3.594   5.114   9.138  1.2027 -1.7073  1.8105
  145DOPC  H18T17263   3.517   5.270   9.201 -1.1281  0.5577  2.1495
  145DOPC   C3317264   3.931   5.367  10.377 -0.0672  0.4995 -0.7876
  145DOPC   H3X17265   4.009   5.293  10.404  1.0574  2.3030  1.1916
  145DOPC   H3Y17266   3.986   5.459  10.347 -0.6889  0.8443 -0.8879
  145DOPC   C3417267   3.864   5.312  10.246 -0.1299 -0.0183  0.0156
  145DOPC   H4X17268   3.786   5.386  10.220  2.2196  1.4870 -3.5323
  145DOPC   H4Y17269   3.805   5.221  10.269 -0.7670  0.6716  1.1549
  145DOPC   C3517270   3.957   5.290  10.123 -0.1214 -0.0271  0.4766
  145DOPC   H5X17271   3.893   5.281  10.032  0.9069  0.7134 -0.3615
  145DOPC   H5Y17272   4.011   5.195  10.142  0.5556 -0.2714 -2.2613
  145DOPC   C3617273   4.055   5.407  10.087  0.1138  0.2698  0.2927
  145DOPC   H6X17274   3.998   5.492  10.045  1.2124  0.9243  0.0813
  145DOPC   H6Y17275   4.102   5.457  10.175 -0.2820  2.9183 -0.9247
  145DOPC   C3717276   4.166   5.354  10.001  0.1996 -0.4322  0.0880
  145DOPC   H7X17277   4.216   5.271  10.055  0.1024 -1.1869 -0.9528
  145DOPC   H7Y17278   4.111   5.309   9.916 -1.8886  1.1774  0.4979
  145DOPC   C3817279   4.276   5.450   9.946  0.1614  0.0595 -1.1075
  145DOPC   H8X17280   4.217   5.538   9.911 -0.5375  0.0333 -0.0581
  145DOPC   H8Y17281   4.318   5.401   9.856  0.3364  1.7851 -1.9918
  145DOPC   C3917282   4.386   5.478  10.046  0.2048  0.3015  0.4237
  145DOPC   H9X17283   4.355   5.522  10.142 -3.4190  0.9507 -0.8679
  145DOPC  C31017284   4.515   5.458  10.023 -0.1720  0.2618  1.2879
  145DOPC  H10X17285   4.591   5.473  10.101  0.8161 -2.0962  0.8568
  145DOPC  C31117286   4.575   5.405   9.892  0.2725 -1.2355  0.2662
  145DOPC  H11X17287   4.524   5.316   9.851  0.2769 -1.5412  0.9078
  145DOPC  H11Y17288   4.674   5.364   9.921  0.0977  0.4406  3.6943
  145DOPC  C31217289   4.608   5.522   9.790 -0.2528 -0.5964  1.0840
  145DOPC  H12X17290   4.660   5.602   9.847  1.3276 -1.0882  0.3696
  145DOPC  H12Y17291   4.506   5.553   9.757 -0.5956 -0.1633  2.4866
  145DOPC  C31317292   4.694   5.488   9.668 -0.2616 -0.2242 -0.3265
  145DOPC  H13X17293   4.731   5.581   9.620  0.9419 -0.6181 -0.1938
  145DOPC  H13Y17294   4.781   5.426   9.698  0.3739  0.0616 -1.5259
  145DOPC  C31417295   4.613   5.421   9.561 -0.5079 -0.0848  0.3829
  145DOPC  H14X17296   4.675   5.339   9.520 -1.0406  0.0024 -0.6342
  145DOPC  H14Y17297   4.531   5.360   9.605  0.8889 -0.5297  2.5130
  145DOPC  C31517298   4.574   5.516   9.453 -0.0020  0.6872  0.5670
  145DOPC  H15X17299   4.664   5.570   9.415  1.4326 -1.9874 -0.1018
  145DOPC  H15Y17300   4.504   5.586   9.505 -1.0809 -0.0631  0.1455
  145DOPC  C31617301   4.492   5.466   9.329  0.7722  0.3581  0.5168
  145DOPC  H16X17302   4.561   5.417   9.258 -1.7212 -1.5929 -0.7052
  145DOPC  H16Y17303   4.423   5.389   9.370  0.9934  0.5114  1.1881
  145DOPC  C31717304   4.405   5.582   9.266  0.2481  0.3574 -0.0735
  145DOPC  H17X17305   4.298   5.572   9.295 -0.0590 -0.9095 -1.4965
  145DOPC  H17Y17306   4.435   5.682   9.304 -0.3863  0.6963 -0.4488
  145DOPC  C31817307   4.409   5.585   9.108  0.1387 -0.1869  0.2818
  145DOPC  H18X17308   4.320   5.642   9.074  0.6492  0.6983  0.3979
  145DOPC  H18Y17309   4.507   5.632   9.082  0.4654  0.0828  1.8745
  145DOPC  H18Z17310   4.403   5.479   9.076  3.6410 -0.1521 -0.9495
  146DOPC     N17311   5.874   2.188  11.651  0.0227  0.2315 -0.2998
  146DOPC   C1217312   5.924   2.159  11.509  0.5316 -0.4333  0.5174
  146DOPC  H12A17313   5.902   2.059  11.474 -2.7658  1.3635 -3.3258
  146DOPC  H12B17314   6.031   2.171  11.518  0.5382  0.4362 -0.5379
  146DOPC   C1317315   5.729   2.145  11.677 -0.8016  0.1555 -0.4355
  146DOPC  H13A17316   5.656   2.197  11.616 -0.3450  1.2275 -0.1052
  146DOPC  H13B17317   5.731   2.041  11.650 -1.3710 -0.0760  0.3516
  146DOPC  H13C17318   5.701   2.155  11.781 -0.3500 -2.7902  0.0359
  146DOPC   C1417319   5.884   2.328  11.690  0.2805 -0.2135 -0.0078
  146DOPC  H14A17320   5.816   2.386  11.629  2.8942  1.1159 -1.8373
  146DOPC  H14B17321   5.857   2.346  11.793  1.7674  0.5002  0.2879
  146DOPC  H14C17322   5.981   2.372  11.675  0.4796 -0.5467  0.2835
  146DOPC   C1517323   5.951   2.108  11.752 -0.5483 -0.6237 -0.1267
  146DOPC  H15A17324   6.053   2.134  11.725 -0.0278 -1.5320  0.9038
  146DOPC  H15B17325   5.933   2.002  11.756  0.3582 -0.7895  4.2332
  146DOPC  H15C17326   5.938   2.147  11.852  2.2589 -0.1629  0.1454
  146DOPC   C1117327   5.868   2.249  11.401  0.3790  0.1282  0.2013
  146DOPC  H11A17328   5.883   2.210  11.298 -3.3780  1.1365 -0.9122
  146DOPC  H11B17329   5.757   2.245  11.415  0.6267  1.2355  3.1479
  146DOPC     P17330   6.049   2.419  11.335 -0.1323 -0.0057  0.1482
  146DOPC   O1317331   6.141   2.308  11.346  0.1777  0.4525 -0.4998
  146DOPC   O1417332   6.098   2.545  11.395  0.1228 -0.5558  0.4583
  146DOPC   O1217333   5.916   2.384  11.411  0.1434  0.1451  0.0498
  146DOPC   O1117334   6.000   2.424  11.181  0.2904 -0.3843  0.1536
  146DOPC    C117335   5.900   2.527  11.155 -0.4685 -0.0818  0.0064
  146DOPC    HA17336   5.914   2.627  11.200  0.9182  0.9985 -2.5930
  146DOPC    HB17337   5.798   2.486  11.172  0.0482 -1.8441 -0.9062
  146DOPC    C217338   5.896   2.561  11.000  0.2349  0.3658  0.0617
  146DOPC    HS17339   5.882   2.459  10.958 -1.2990  0.3218  0.6094
  146DOPC   O2117340   6.015   2.618  10.952  0.1611 -0.0030  0.5872
  146DOPC   C2117341   6.061   2.568  10.842 -0.1182  0.4087  0.8297
  146DOPC   O2217342   6.011   2.477  10.776  0.5151 -0.2496  0.0670
  146DOPC   C2217343   6.202   2.628  10.803  0.1940  0.2559  0.8256
  146DOPC   H2R17344   6.272   2.544  10.789 -1.5436 -1.7233  3.1195
  146DOPC   H2S17345   6.237   2.697  10.883  1.7299  2.8932 -1.9314
  146DOPC    C317346   5.779   2.648  10.960 -0.2351 -0.6528  0.1558
  146DOPC    HX17347   5.791   2.748  11.009 -2.3529 -0.2827  0.0328
  146DOPC    HY17348   5.685   2.601  10.995 -0.7311  0.1848 -0.0351
  146DOPC   O3117349   5.779   2.666  10.816  0.9136 -0.0032  0.1915
  146DOPC   C3117350   5.719   2.569  10.739  0.2072  0.2952 -0.7081
  146DOPC   O3217351   5.671   2.470  10.791 -0.9310  0.6180 -0.3860
  146DOPC   C3217352   5.739   2.607  10.593  0.7595 -0.0113  0.4125
  146DOPC   H2X17353   5.701   2.711  10.583 -1.1985 -0.7438 -0.3789
  146DOPC   H2Y17354   5.846   2.599  10.565  0.6648  2.1769 -0.7507
  146DOPC   C2317355   6.199   2.692  10.666  1.0435 -0.2153 -0.2154
  146DOPC   H3R17356   6.174   2.620  10.585 -1.6955  0.0383  0.3197
  146DOPC   H3S17357   6.301   2.732  10.649  0.8992 -0.4103 -1.6637
  146DOPC   C2417358   6.094   2.807  10.663  0.1315 -0.1015 -0.5767
  146DOPC   H4R17359   6.094   2.879  10.747 -0.7012  1.6853 -2.0361
  146DOPC   H4S17360   5.991   2.764  10.669 -0.6929  1.9325  0.9759
  146DOPC   C2517361   6.092   2.893  10.535 -0.4345 -0.5587 -0.3957
  146DOPC   H5R17362   6.198   2.922  10.516 -0.6765  1.5284  1.0068
  146DOPC   H5S17363   6.031   2.985  10.548  1.0204  0.4022  0.0101
  146DOPC   C2617364   6.029   2.827  10.417  0.0280 -0.1295  0.2489
  146DOPC   H6R17365   5.919   2.840  10.414  0.1931  1.3719 -1.5983
  146DOPC   H6S17366   6.052   2.719  10.419  0.9401  0.0051 -1.3939
  146DOPC   C2717367   6.086   2.900  10.293 -0.8802 -0.4581 -0.0501
  146DOPC   H7R17368   6.197   2.908  10.289 -0.8031 -1.6544 -0.4680
  146DOPC   H7S17369   6.052   3.006  10.302  3.2283  0.9773  0.9987
  146DOPC   C2817370   6.034   2.850  10.159  0.9913 -0.1571 -0.8082
  146DOPC   H8R17371   6.065   2.933  10.092  1.2615  0.2404 -0.2077
  146DOPC   H8S17372   5.923   2.852  10.174  0.7777  0.6837 -2.2960
  146DOPC   C2917373   6.073   2.714  10.122  0.3664  0.1862 -0.6520
  146DOPC   H9R17374   6.122   2.653  10.199  0.1047  0.4920 -0.2444
  146DOPC  C21017375   6.031   2.663  10.005  0.2461 -0.0285 -0.5258
  146DOPC  H10R17376   6.051   2.558   9.980 -0.5702 -0.8223  1.8920
  146DOPC  C21117377   5.945   2.743   9.904  0.2395  0.2570 -0.6796
  146DOPC  H11R17378   6.011   2.809   9.844  1.8511 -0.6440  0.0284
  146DOPC  H11S17379   5.864   2.804   9.949 -0.0427 -0.2250 -0.5379
  146DOPC  C21217380   5.867   2.659   9.802 -0.1549  0.2991  0.0604
  146DOPC  H12R17381   5.788   2.721   9.754 -0.3820  1.2132  1.5498
  146DOPC  H12S17382   5.814   2.578   9.856  2.0992  0.0291  2.0546
  146DOPC  C21317383   5.949   2.578   9.697 -0.8998 -0.5816 -0.1085
  146DOPC  H13R17384   5.891   2.485   9.683 -0.3786 -0.7197 -1.4954
  146DOPC  H13S17385   6.049   2.562   9.744 -0.3650  3.0689  0.3078
  146DOPC  C21417386   5.965   2.656   9.566  0.2039 -0.8093  0.1994
  146DOPC  H14R17387   5.991   2.762   9.584 -3.9548  0.4458 -0.0070
  146DOPC  H14S17388   5.861   2.652   9.526  0.5840 -0.7245 -0.8103
  146DOPC  C21517389   6.057   2.588   9.472 -0.1544  0.3282 -0.2846
  146DOPC  H15R17390   6.019   2.486   9.449 -1.6907  0.7222  0.3317
  146DOPC  H15S17391   6.156   2.592   9.520 -0.7538 -0.9546  1.1515
  146DOPC  C21617392   6.083   2.666   9.343  0.2137  0.2065 -0.6168
  146DOPC  H16R17393   6.150   2.749   9.374 -1.5285  1.1802  0.7216
  146DOPC  H16S17394   5.983   2.697   9.306  0.2787  1.1793 -0.0147
  146DOPC  C21717395   6.152   2.581   9.238  0.5141  0.7140 -0.6352
  146DOPC  H17R17396   6.143   2.634   9.141 -0.2877  2.9105  0.5770
  146DOPC  H17S17397   6.086   2.494   9.217  1.8665 -0.4200 -0.4027
  146DOPC  C21817398   6.296   2.522   9.266  0.2624  0.3252  0.5039
  146DOPC  H18R17399   6.320   2.448   9.187 -0.7477  0.2595  0.2397
  146DOPC  H18S17400   6.320   2.477   9.365  0.9604 -0.0719  0.1545
  146DOPC  H18T17401   6.369   2.606   9.261 -0.5820  1.2312  2.2130
  146DOPC   C3317402   5.645   2.535  10.495  0.5693 -0.6243 -0.8430
  146DOPC   H3X17403   5.546   2.562  10.537 -0.3473 -2.4701 -1.7204
  146DOPC   H3Y17404   5.664   2.425  10.495 -0.7655 -0.8779  0.5083
  146DOPC   C3417405   5.658   2.584  10.352 -0.9856  0.3334 -0.3114
  146DOPC   H4X17406   5.763   2.571  10.319 -0.8983 -0.9934  0.4096
  146DOPC   H4Y17407   5.628   2.691  10.343  0.2455  0.6243 -1.2774
  146DOPC   C3517408   5.564   2.515  10.244  0.1393 -0.4535 -0.0895
  146DOPC   H5X17409   5.461   2.553  10.265 -0.1306 -1.7954  1.1709
  146DOPC   H5Y17410   5.578   2.408  10.267  0.7635  0.0403  2.0552
  146DOPC   C3617411   5.598   2.548  10.097 -0.4431 -0.2108  0.4956
  146DOPC   H6X17412   5.623   2.656  10.084  3.6484 -0.7980  1.8529
  146DOPC   H6Y17413   5.692   2.498  10.063  0.3996  1.8435 -0.4040
  146DOPC   C3717414   5.490   2.510   9.992 -0.4690  0.4321 -0.0296
  146DOPC   H7X17415   5.472   2.401  10.000 -0.3649  0.0216 -3.6386
  146DOPC   H7Y17416   5.396   2.565  10.016 -1.0268 -0.2944 -0.4937
  146DOPC   C3817417   5.538   2.538   9.853 -0.0134  0.5921 -0.0420
  146DOPC   H8X17418   5.633   2.482   9.841 -0.5583 -0.0809 -1.6172
  146DOPC   H8Y17419   5.549   2.648   9.860  0.0559  0.4486  3.2144
  146DOPC   C3917420   5.440   2.509   9.744  0.0243  0.0843  0.7214
  146DOPC   H9X17421   5.347   2.463   9.779 -0.6419 -0.1159 -1.2120
  146DOPC  C31017422   5.449   2.548   9.616  0.3194 -0.5189 -0.1645
  146DOPC  H10X17423   5.368   2.518   9.548 -1.1691  0.9625  0.8731
  146DOPC  C31117424   5.568   2.593   9.544 -1.1737  0.1494 -0.5255
  146DOPC  H11X17425   5.561   2.541   9.447 -0.3322 -1.6654  0.3359
  146DOPC  H11Y17426   5.654   2.558   9.606 -1.1350 -1.3065 -1.3617
  146DOPC  C31217427   5.573   2.744   9.516 -0.1609 -0.0621  0.0654
  146DOPC  H12X17428   5.673   2.776   9.480 -0.3281  0.0951 -0.2621
  146DOPC  H12Y17429   5.549   2.792   9.614 -2.2651  0.1104 -0.4828
  146DOPC  C31317430   5.475   2.777   9.399  0.7218  0.3393 -1.2530
  146DOPC  H13X17431   5.497   2.714   9.310  3.6302 -0.4340 -0.1127
  146DOPC  H13Y17432   5.377   2.746   9.441 -0.8149  3.5747 -2.1374
  146DOPC  C31417433   5.486   2.929   9.375 -0.0956 -0.0082  0.1064
  146DOPC  H14X17434   5.506   2.972   9.476  1.3879  0.7538 -0.4806
  146DOPC  H14Y17435   5.582   2.946   9.323  0.0216  4.3146  1.3460
  146DOPC  C31517436   5.369   3.002   9.306  0.0710  0.1659 -0.0833
  146DOPC  H15X17437   5.390   3.111   9.314 -0.6124  0.2970  0.0286
  146DOPC  H15Y17438   5.274   2.984   9.361  1.4843 -2.8943  1.6217
  146DOPC  C31617439   5.343   2.946   9.158  0.1720  0.5901  0.8300
  146DOPC  H16X17440   5.437   2.957   9.099 -0.5167  1.4645 -0.1569
  146DOPC  H16Y17441   5.324   2.838   9.173 -0.0606  0.5991  0.6022
  146DOPC  C31717442   5.234   3.015   9.071 -0.0134  1.0189 -0.3144
  146DOPC  H17X17443   5.238   2.962   8.973  0.1181  1.2556 -0.4355
  146DOPC  H17Y17444   5.133   3.002   9.116  0.6065  1.0008  1.1109
  146DOPC  C31817445   5.261   3.161   9.044 -0.6700  0.1079  0.4437
  146DOPC  H18X17446   5.353   3.172   8.982 -1.1969 -0.6070 -0.4887
  146DOPC  H18Y17447   5.177   3.210   8.991  0.7386 -0.3975 -2.4715
  146DOPC  H18Z17448   5.283   3.216   9.138 -0.1990  0.8997 -0.1096
  147DOPC     N17449   2.562   2.152  11.378 -0.2394 -0.9148 -0.7220
  147DOPC   C1217450   2.657   2.056  11.313 -0.6261 -0.2598  0.3696
  147DOPC  H12A17451   2.596   1.982  11.264 -0.2450 -0.1659 -0.2563
  147DOPC  H12B17452   2.716   1.992  11.378 -0.3410 -0.8395 -0.4386
  147DOPC   C1317453   2.647   2.250  11.461 -0.2151 -0.3146 -0.0369
  147DOPC  H13A17454   2.719   2.300  11.397 -0.1092  0.0862  0.3881
  147DOPC  H13B17455   2.584   2.326  11.504  0.4035  0.4563 -0.4640
  147DOPC  H13C17456   2.698   2.204  11.544 -2.3880 -1.6507  0.6371
  147DOPC   C1417457   2.476   2.073  11.468  0.1486  0.3807  0.2430
  147DOPC  H14A17458   2.420   2.135  11.536  1.9195  0.7927  1.4053
  147DOPC  H14B17459   2.408   2.005  11.419 -0.8162  1.6876 -0.2925
  147DOPC  H14C17460   2.541   2.016  11.533  0.9075  1.8372  0.8155
  147DOPC   C1517461   2.481   2.225  11.276  0.1371  0.0199  0.0016
  147DOPC  H15A17462   2.431   2.312  11.316  2.0873  0.2390  2.2146
  147DOPC  H15B17463   2.399   2.162  11.244 -1.3804  0.7041  2.2995
  147DOPC  H15C17464   2.531   2.250  11.183  1.5975 -0.5744  0.5893
  147DOPC   C1117465   2.753   2.120  11.209 -0.0852 -0.0523 -0.1732
  147DOPC  H11A17466   2.798   2.025  11.171  1.3730 -0.0374  1.3767
  147DOPC  H11B17467   2.687   2.167  11.133  0.8482  2.8543  0.6848
  147DOPC     P17468   3.004   2.159  11.262  0.0514 -0.3417 -0.3418
  147DOPC   O1317469   3.020   2.020  11.310 -0.0051  0.1987  0.2176
  147DOPC   O1417470   3.091   2.261  11.322  0.1908  0.1941 -0.1624
  147DOPC   O1217471   2.854   2.201  11.268  0.2316  0.2309 -0.3130
  147DOPC   O1117472   3.031   2.160  11.109 -0.6495 -0.1122  0.2343
  147DOPC    C117473   3.009   2.290  11.041  0.0736  0.2923  0.0403
  147DOPC    HA17474   3.048   2.382  11.090  3.1261 -0.7779 -0.1500
  147DOPC    HB17475   2.902   2.302  11.015  0.1103 -0.3071 -0.4120
  147DOPC    C217476   3.083   2.299  10.905  0.6730  0.0213 -0.4046
  147DOPC    HS17477   3.064   2.217  10.833  2.4548  1.1208 -2.2086
  147DOPC   O2117478   3.221   2.324  10.928 -0.5374  0.4887 -1.3805
  147DOPC   C2117479   3.304   2.237  10.881 -0.0096 -0.6839 -0.1666
  147DOPC   O2217480   3.281   2.142  10.811 -0.4499 -0.1400 -0.1618
  147DOPC   C2217481   3.446   2.283  10.922 -0.3976  0.0468  0.6154
  147DOPC   H2R17482   3.493   2.197  10.974  0.0664  0.1463  0.3622
  147DOPC   H2S17483   3.434   2.369  10.991  0.9061  0.4076  0.4162
  147DOPC    C317484   3.035   2.422  10.823 -0.5374 -0.2422 -0.0270
  147DOPC    HX17485   3.096   2.423  10.730  0.9744  2.5169  0.8519
  147DOPC    HY17486   3.049   2.511  10.888 -0.3188  0.5873 -1.1667
  147DOPC   O3117487   2.898   2.413  10.785  0.2340 -0.1792 -0.1970
  147DOPC   C3117488   2.828   2.526  10.776  0.4983  0.3334 -0.1161
  147DOPC   O3217489   2.866   2.638  10.812 -0.0740  0.6252  0.3049
  147DOPC   C3217490   2.693   2.490  10.711 -0.6284  0.0543 -0.3868
  147DOPC   H2X17491   2.724   2.459  10.609  0.9509 -1.3999  0.4896
  147DOPC   H2Y17492   2.644   2.401  10.757 -1.5817  1.8560  2.3608
  147DOPC   C2317493   3.532   2.331  10.797 -0.1675  0.2272 -0.3162
  147DOPC   H3R17494   3.607   2.401  10.840 -0.1536  0.1911 -0.2818
  147DOPC   H3S17495   3.472   2.374  10.714  1.7215 -0.7421 -2.2733
  147DOPC   C2417496   3.605   2.204  10.748 -0.5637  0.0388  0.6466
  147DOPC   H4R17497   3.540   2.124  10.708  0.3065 -1.7293  2.5857
  147DOPC   H4S17498   3.653   2.165  10.840 -1.6813  0.6682  1.5256
  147DOPC   C2517499   3.703   2.227  10.631 -0.5845  0.1350  0.2949
  147DOPC   H5R17500   3.799   2.175  10.654 -0.1403  1.3590  1.3435
  147DOPC   H5S17501   3.735   2.333  10.619  2.6623 -0.6209  1.2460
  147DOPC   C2617502   3.645   2.168  10.496  0.5681  0.4316 -0.1161
  147DOPC   H6R17503   3.578   2.244  10.451  0.9426  0.3818 -0.7684
  147DOPC   H6S17504   3.591   2.073  10.519  0.3049  0.2224 -1.4951
  147DOPC   C2717505   3.753   2.131  10.391 -0.2388 -0.9464 -0.5170
  147DOPC   H7R17506   3.819   2.050  10.428  0.0932 -1.7308 -2.6766
  147DOPC   H7S17507   3.811   2.225  10.381  1.7935 -1.9298  1.3359
  147DOPC   C2817508   3.691   2.089  10.253  0.1161 -0.6365 -0.8549
  147DOPC   H8R17509   3.778   2.089  10.184  0.6690  0.4289 -0.1971
  147DOPC   H8S17510   3.632   2.176  10.216  0.7373  0.5056  0.7456
  147DOPC   C2917511   3.597   1.968  10.247 -0.0331 -0.3738  0.1244
  147DOPC   H9R17512   3.588   1.925  10.348  0.7448  0.0725  0.3890
  147DOPC  C21017513   3.552   1.891  10.145  0.4224 -0.9042 -0.0760
  147DOPC  H10R17514   3.496   1.805  10.184 -2.0935  1.2129  1.3651
  147DOPC  C21117515   3.563   1.910   9.996  0.4275 -0.4815 -0.3966
  147DOPC  H11R17516   3.615   1.826   9.945  0.2943 -0.1434 -1.0982
  147DOPC  H11S17517   3.625   1.999   9.972 -0.9328  1.4320  2.6838
  147DOPC  C21217518   3.426   1.926   9.931 -0.0602  0.2774  0.6138
  147DOPC  H12R17519   3.367   1.834   9.949  3.4375 -2.4935 -0.8781
  147DOPC  H12S17520   3.441   1.930   9.821  2.9567  1.2958  0.9815
  147DOPC  C21317521   3.344   2.049   9.991 -0.9547  0.2376  0.0159
  147DOPC  H13R17522   3.419   2.130   9.985 -0.9062  0.0658 -2.6949
  147DOPC  H13S17523   3.309   2.036  10.096  0.8152  1.2294  0.7754
  147DOPC  C21417524   3.222   2.089   9.900 -0.5604  0.2341  0.0447
  147DOPC  H14R17525   3.250   2.116   9.796 -1.2952  0.7444 -0.0317
  147DOPC  H14S17526   3.184   2.182   9.947  0.8323  0.8826 -0.0780
  147DOPC  C21517527   3.114   1.981   9.921 -0.4567 -0.5108  0.2058
  147DOPC  H15R17528   3.094   1.968  10.030  0.7500  0.1975  0.5348
  147DOPC  H15S17529   3.149   1.888   9.872 -1.0537 -0.2426 -0.7512
  147DOPC  C21617530   2.984   2.032   9.856  0.0806 -0.0723  0.0260
  147DOPC  H16R17531   2.925   1.942   9.828  0.5011 -0.6473  0.9030
  147DOPC  H16S17532   3.023   2.095   9.774 -1.7064  0.1725 -0.6611
  147DOPC  C21717533   2.896   2.120   9.956  0.5420  0.5112  0.3025
  147DOPC  H17R17534   2.970   2.186  10.006 -0.2995  1.5369  0.2221
  147DOPC  H17S17535   2.844   2.058  10.032 -0.5056  0.8096 -0.1572
  147DOPC  C21817536   2.782   2.196   9.884  0.2243  0.2670 -0.4950
  147DOPC  H18R17537   2.824   2.258   9.801  1.6644 -1.2652 -0.9826
  147DOPC  H18S17538   2.723   2.268   9.944  0.2680 -2.0752  2.6200
  147DOPC  H18T17539   2.710   2.119   9.849 -1.0494  0.8593  0.7034
  147DOPC   C3317540   2.606   2.614  10.672  0.3089  0.1517 -0.8436
  147DOPC   H3X17541   2.583   2.673  10.764 -2.1048 -1.3226 -0.4092
  147DOPC   H3Y17542   2.513   2.570  10.630  0.2650 -1.5293  0.8625
  147DOPC   C3417543   2.660   2.708  10.561  0.3676 -0.5233  0.2762
  147DOPC   H4X17544   2.694   2.657  10.468 -0.4530 -1.7657  0.6359
  147DOPC   H4Y17545   2.748   2.762  10.602  0.6580 -2.1414  1.8986
  147DOPC   C3517546   2.573   2.828  10.507 -0.2395  0.9956  0.1401
  147DOPC   H5X17547   2.634   2.886  10.435 -0.8946  1.9981  0.3757
  147DOPC   H5Y17548   2.534   2.893  10.588 -3.5842  0.8862 -1.2013
  147DOPC   C3617549   2.451   2.774  10.429  0.3450 -0.1306 -0.0331
  147DOPC   H6X17550   2.465   2.685  10.364 -1.7698 -1.5451  1.3439
  147DOPC   H6Y17551   2.376   2.737  10.502  0.3050  0.1982  0.0910
  147DOPC   C3717552   2.380   2.898  10.366  0.0232  0.3000  0.0470
  147DOPC   H7X17553   2.275   2.869  10.350  0.2310 -0.7111  0.4854
  147DOPC   H7Y17554   2.371   2.976  10.445 -0.6628 -0.4435  0.7193
  147DOPC   C3817555   2.431   2.942  10.236  0.2740  0.1403  0.8374
  147DOPC   H8X17556   2.441   2.854  10.168  2.1333 -0.9497  2.4410
  147DOPC   H8Y17557   2.536   2.975  10.248  0.1548  1.0985 -0.5000
  147DOPC   C3917558   2.337   3.050  10.182  0.0348  0.2708  0.7831
  147DOPC   H9X17559   2.245   3.067  10.241 -0.8159 -0.0418 -0.4139
  147DOPC  C31017560   2.350   3.112  10.059  0.0249 -0.2428 -0.4226
  147DOPC  H10X17561   2.268   3.181  10.035 -1.0346 -0.4631  2.1959
  147DOPC  C31117562   2.466   3.105   9.965 -0.0922  0.0205 -0.2241
  147DOPC  H11X17563   2.538   3.034  10.011 -0.3995  0.6680  1.3436
  147DOPC  H11Y17564   2.515   3.204   9.950  1.3446 -0.5949  0.2079
  147DOPC  C31217565   2.420   3.041   9.829  0.4819 -0.6804  0.1632
  147DOPC  H12X17566   2.344   3.114   9.796  0.3517  0.0757  1.9702
  147DOPC  H12Y17567   2.366   2.946   9.845  1.2757 -1.0106  1.0292
  147DOPC  C31317568   2.532   3.037   9.724 -0.6214 -0.2519 -0.1140
  147DOPC  H13X17569   2.606   3.114   9.753 -1.6691  1.4071 -1.5873
  147DOPC  H13Y17570   2.561   2.932   9.742  0.2026  0.4063  2.8303
  147DOPC  C31417571   2.485   3.072   9.578 -0.3931 -0.6166 -0.0207
  147DOPC  H14X17572   2.401   3.013   9.535 -1.1054  1.4788 -1.6793
  147DOPC  H14Y17573   2.457   3.177   9.602 -0.7478 -0.6703 -0.1919
  147DOPC  C31517574   2.593   3.078   9.469 -0.8665 -0.3287 -0.1557
  147DOPC  H15X17575   2.682   3.135   9.501 -1.0691 -0.8041  1.3537
  147DOPC  H15Y17576   2.555   3.120   9.374  2.2125  1.4874 -0.7169
  147DOPC  C31617577   2.649   2.939   9.428  0.7792  0.3030  0.0678
  147DOPC  H16X17578   2.725   2.907   9.502  0.6022  1.6919  0.8853
  147DOPC  H16Y17579   2.562   2.870   9.419 -0.7812  2.4282 -2.5090
  147DOPC  C31717580   2.718   2.948   9.295  0.3865  0.1088 -0.0028
  147DOPC  H17X17581   2.651   2.976   9.211  0.3141 -1.4058 -0.4838
  147DOPC  H17Y17582   2.781   3.040   9.302 -1.6003  1.6643 -1.4745
  147DOPC  C31817583   2.807   2.828   9.255  0.0747 -0.0085 -0.6647
  147DOPC  H18X17584   2.861   2.866   9.166 -1.1725  1.1999 -0.9480
  147DOPC  H18Y17585   2.885   2.796   9.327 -0.5900 -0.8606 -0.3043
  147DOPC  H18Z17586   2.746   2.737   9.236 -0.6522 -0.2742  2.4334
  148DOPC     N17587   2.622   5.842  10.945 -0.1131  0.0020  0.1452
  148DOPC   C1217588   2.650   5.709  10.879 -0.0948  0.2684  0.5025
  148DOPC  H12A17589   2.738   5.720  10.817  0.4647  1.7743  1.5120
  148DOPC  H12B17590   2.571   5.684  10.810 -0.1586 -0.1138  0.7100
  148DOPC   C1317591   2.630   5.950  10.835 -0.0184  0.2052 -0.4172
  148DOPC  H13A17592   2.548   5.932  10.766 -1.2433  1.1656  0.7334
  148DOPC  H13B17593   2.629   6.051  10.872  1.5796  0.3600 -0.7409
  148DOPC  H13C17594   2.725   5.938  10.786  0.5654 -0.9396  0.9335
  148DOPC   C1417595   2.723   5.873  11.051 -0.1194  0.2509  0.2361
  148DOPC  H14A17596   2.731   5.811  11.139 -0.5211 -1.3952 -0.8293
  148DOPC  H14B17597   2.819   5.866  11.002 -0.9746 -1.8652 -1.2991
  148DOPC  H14C17598   2.711   5.971  11.095 -1.3203 -0.1403  0.8212
  148DOPC   C1517599   2.491   5.848  11.009 -0.7186  0.2174  0.5872
  148DOPC  H15A17600   2.481   5.928  11.081 -1.1074 -0.6413  1.5163
  148DOPC  H15B17601   2.479   5.756  11.064  2.3812  0.1138  1.2916
  148DOPC  H15C17602   2.420   5.859  10.929  1.1747  2.3575 -0.9229
  148DOPC   C1117603   2.662   5.577  10.958 -0.5455  0.2818  0.7609
  148DOPC  H11A17604   2.698   5.500  10.887 -0.5182  1.0849 -0.1159
  148DOPC  H11B17605   2.741   5.586  11.036  1.2036  2.4004 -1.1463
  148DOPC     P17606   2.430   5.471  10.940  0.1168  0.1256  0.4502
  148DOPC   O1317607   2.306   5.537  10.985 -0.0393 -0.1849  0.1368
  148DOPC   O1417608   2.436   5.327  10.961 -0.8887  0.4784 -0.8207
  148DOPC   O1217609   2.538   5.545  11.016  0.1519 -0.0506 -0.1967
  148DOPC   O1117610   2.476   5.506  10.795  0.3138  0.5465 -0.3770
  148DOPC    C117611   2.367   5.526  10.700  0.1529  0.0404 -0.6626
  148DOPC    HA17612   2.400   5.575  10.606 -2.9015  3.9214  0.0186
  148DOPC    HB17613   2.291   5.599  10.737 -0.3776 -0.8403  0.0154
  148DOPC    C217614   2.294   5.399  10.660  1.0836  0.1893  0.3863
  148DOPC    HS17615   2.226   5.372  10.744  2.0851 -2.5631  0.3938
  148DOPC   O2117616   2.390   5.290  10.643 -0.3484  0.4625 -0.1285
  148DOPC   C2117617   2.333   5.170  10.641 -0.0959  0.4037  0.8347
  148DOPC   O2217618   2.215   5.149  10.663 -0.3653 -0.2110 -0.3501
  148DOPC   C2217619   2.434   5.067  10.607 -0.1110  0.3099 -0.5594
  148DOPC   H2R17620   2.451   5.011  10.702 -0.5649 -0.1088 -0.7267
  148DOPC   H2S17621   2.530   5.108  10.567  0.0332 -0.5230 -1.0774
  148DOPC    C317622   2.207   5.419  10.528  0.2875 -0.7280  0.9145
  148DOPC    HX17623   2.147   5.510  10.546  1.8756  0.4542  0.4348
  148DOPC    HY17624   2.149   5.324  10.521  1.8815 -1.9724  3.1478
  148DOPC   O3117625   2.299   5.440  10.415  0.2494 -0.5296 -0.0774
  148DOPC   C3117626   2.232   5.450  10.301 -0.4302  0.5531  0.3207
  148DOPC   O3217627   2.112   5.448  10.296 -0.0728 -0.3640  0.1236
  148DOPC   C3217628   2.325   5.453  10.181 -0.0177  0.9186 -0.8038
  148DOPC   H2X17629   2.401   5.532  10.201  0.4976  0.1063  0.5548
  148DOPC   H2Y17630   2.359   5.350  10.157  1.0110  1.4377 -1.6704
  148DOPC   C2317631   2.383   4.961  10.505  0.7175  0.0811 -0.1770
  148DOPC   H3R17632   2.295   4.909  10.548 -1.1650  1.9332 -1.5974
  148DOPC   H3S17633   2.461   4.884  10.487  1.4341  0.2301  1.9964
  148DOPC   C2417634   2.331   5.008  10.369 -0.5385  0.2826 -1.2878
  148DOPC   H4R17635   2.407   5.079  10.328  1.0423  0.1085  1.1847
  148DOPC   H4S17636   2.237   5.064  10.391  0.2387  0.6184  1.5488
  148DOPC   C2517637   2.289   4.900  10.277  0.4620  0.1102  0.3050
  148DOPC   H5R17638   2.221   4.830  10.331  0.8657 -0.5259  0.0123
  148DOPC   H5S17639   2.379   4.854  10.232 -1.0921 -1.3188 -1.5332
  148DOPC   C2617640   2.206   4.947  10.155 -0.2443 -0.9765 -0.1936
  148DOPC   H6R17641   2.134   5.027  10.186  1.9792  1.2578 -0.5303
  148DOPC   H6S17642   2.159   4.855  10.113  1.4459 -0.6808 -2.9263
  148DOPC   C2717643   2.281   5.005  10.034  0.6697  0.0634 -0.0318
  148DOPC   H7R17644   2.369   4.939  10.018  1.4118  1.2076 -0.7384
  148DOPC   H7S17645   2.323   5.106  10.054  2.0181 -0.1311 -1.6822
  148DOPC   C2817646   2.190   5.023   9.904 -0.1924  0.3922 -0.0778
  148DOPC   H8R17647   2.109   5.098   9.921  0.4724  0.9746  0.5980
  148DOPC   H8S17648   2.130   4.932   9.885 -0.0079  0.5807 -1.6965
  148DOPC   C2917649   2.282   5.064   9.791  1.0536 -0.4936  0.2830
  148DOPC   H9R17650   2.366   5.121   9.832  0.8447 -0.9742  1.3967
  148DOPC  C21017651   2.244   5.058   9.661 -0.0133 -1.0026  0.5098
  148DOPC  H10R17652   2.310   5.106   9.587 -0.1631  1.8853  2.0745
  148DOPC  C21117653   2.127   4.982   9.609  0.4023  0.1104  0.2886
  148DOPC  H11R17654   2.048   5.053   9.576  1.3249  0.8846 -0.2920
  148DOPC  H11S17655   2.079   4.917   9.686  0.3487  0.7788  0.8282
  148DOPC  C21217656   2.167   4.890   9.495  0.5041 -0.1516  0.0087
  148DOPC  H12R17657   2.252   4.828   9.533 -1.3565 -2.1567  1.0913
  148DOPC  H12S17658   2.199   4.943   9.403  2.6782  2.1743  1.9586
  148DOPC  C21317659   2.059   4.787   9.456  0.5125 -0.4011 -0.9388
  148DOPC  H13R17660   1.957   4.831   9.456  0.9125  0.5685  0.0705
  148DOPC  H13S17661   2.044   4.720   9.542  0.4097  0.7839 -0.0069
  148DOPC  C21417662   2.094   4.696   9.331  0.6892  0.1985 -0.2641
  148DOPC  H14R17663   2.017   4.616   9.325  1.3524 -0.4928  0.1612
  148DOPC  H14S17664   2.192   4.646   9.347 -0.2940 -1.0045  2.7922
  148DOPC  C21517665   2.097   4.765   9.194  0.2999 -0.6530  0.1682
  148DOPC  H15R17666   2.161   4.856   9.201  0.3203 -0.4503 -2.0221
  148DOPC  H15S17667   2.004   4.813   9.158  0.0339  0.8466  2.5886
  148DOPC  C21617668   2.166   4.679   9.083 -0.0855  0.4773  0.2146
  148DOPC  H16R17669   2.092   4.601   9.056 -1.0627  1.2343  0.6385
  148DOPC  H16S17670   2.264   4.642   9.120  0.7001  1.9546 -0.2991
  148DOPC  C21717671   2.196   4.768   8.964 -0.9293  0.1905  0.2637
  148DOPC  H17R17672   2.241   4.866   8.992 -0.0486  0.3261 -1.5224
  148DOPC  H17S17673   2.098   4.795   8.919  0.7556  1.5268 -2.8529
  148DOPC  C21817674   2.280   4.708   8.859  0.2330 -0.3046  0.2660
  148DOPC  H18R17675   2.389   4.710   8.884  0.7984 -0.9911 -1.8875
  148DOPC  H18S17676   2.279   4.760   8.761 -0.0230 -0.0511  0.4029
  148DOPC  H18T17677   2.255   4.602   8.836 -0.2520  0.0851 -1.0996
  148DOPC   C3317678   2.239   5.500  10.061  0.0103 -0.5550  0.1940
  148DOPC   H3X17679   2.207   5.606  10.058 -0.4280 -0.6666  0.7164
  148DOPC   H3Y17680   2.157   5.426  10.050 -0.8789  0.0482  2.3880
  148DOPC   C3417681   2.316   5.483   9.936 -0.9828  0.8447  0.5869
  148DOPC   H4X17682   2.358   5.381   9.925  1.3370  1.6486  1.2943
  148DOPC   H4Y17683   2.402   5.553   9.930 -1.1826  0.9680 -1.7212
  148DOPC   C3517684   2.248   5.529   9.813  0.2437 -0.3968  0.5448
  148DOPC   H5X17685   2.215   5.635   9.818  0.4056 -0.1239 -2.6188
  148DOPC   H5Y17686   2.149   5.480   9.802 -0.5807  1.2341  0.3744
  148DOPC   C3617687   2.334   5.526   9.684 -0.3165  0.3562  0.2505
  148DOPC   H6X17688   2.432   5.578   9.691  1.0193 -1.7194 -1.6833
  148DOPC   H6Y17689   2.357   5.422   9.653 -2.7421  0.1694 -1.1713
  148DOPC   C3717690   2.258   5.580   9.563  0.3172 -0.3211 -0.4265
  148DOPC   H7X17691   2.174   5.509   9.549 -0.7212 -0.0875  3.4938
  148DOPC   H7Y17692   2.216   5.681   9.585  1.5943 -0.3730  2.7618
  148DOPC   C3817693   2.348   5.591   9.440 -0.1000  0.1629  0.1940
  148DOPC   H8X17694   2.401   5.496   9.415  0.4875  0.7656 -0.9591
  148DOPC   H8Y17695   2.419   5.674   9.462 -1.0716  0.0927  4.3567
  148DOPC   C3917696   2.257   5.626   9.326  0.6306 -0.2354 -0.1821
  148DOPC   H9X17697   2.168   5.562   9.318  0.9429 -0.6518 -0.3355
  148DOPC  C31017698   2.260   5.741   9.254 -0.4410  0.0330 -0.0131
  148DOPC  H10X17699   2.190   5.754   9.170 -0.5670  2.2664  0.3878
  148DOPC  C31117700   2.380   5.835   9.248 -0.1144 -0.9719 -0.1524
  148DOPC  H11X17701   2.421   5.826   9.146 -0.0385  1.0773 -0.3502
  148DOPC  H11Y17702   2.462   5.792   9.309 -0.2833 -1.5332 -0.3188
  148DOPC  C31217703   2.355   5.975   9.294 -0.2250  0.0396 -0.7153
  148DOPC  H12X17704   2.296   6.036   9.223 -0.4525 -0.0296 -0.5855
  148DOPC  H12Y17705   2.457   6.017   9.305 -0.3232 -0.1370  1.1548
  148DOPC  C31317706   2.287   5.974   9.433  0.7098  0.1403 -0.0239
  148DOPC  H13X17707   2.180   5.947   9.416  1.8862 -3.6512 -2.4891
  148DOPC  H13Y17708   2.330   5.890   9.492 -1.1663 -0.5971  0.3594
  148DOPC  C31417709   2.314   6.091   9.522 -0.3386 -0.0122 -1.1247
  148DOPC  H14X17710   2.421   6.100   9.550 -0.3667 -1.2455 -0.5680
  148DOPC  H14Y17711   2.296   6.178   9.455 -0.9874  0.0125 -0.9299
  148DOPC  C31517712   2.239   6.100   9.655 -0.8240  0.0911 -0.2457
  148DOPC  H15X17713   2.274   6.012   9.713  0.3620 -0.0165 -1.0908
  148DOPC  H15Y17714   2.136   6.080   9.620 -0.2740 -0.3805 -1.6583
  148DOPC  C31617715   2.226   6.226   9.736  0.0905 -0.7020  0.0608
  148DOPC  H16X17716   2.233   6.317   9.674  1.2162 -0.4802  0.4910
  148DOPC  H16Y17717   2.129   6.241   9.787 -0.0285  2.1913 -0.8367
  148DOPC  C31717718   2.330   6.237   9.851  0.6436  0.1840  0.0074
  148DOPC  H17X17719   2.321   6.150   9.919 -0.0397 -0.3727 -0.7728
  148DOPC  H17Y17720   2.426   6.231   9.797 -0.9585 -1.8953 -2.9000
  148DOPC  C31817721   2.326   6.365   9.935  0.5792 -0.4609  0.5774
  148DOPC  H18X17722   2.233   6.359   9.996  0.4115 -2.5908  0.1851
  148DOPC  H18Y17723   2.414   6.371  10.002  1.6661 -1.7274 -0.6794
  148DOPC  H18Z17724   2.322   6.451   9.865 -0.4360 -1.3902 -0.5492
  149DOPC     N17725   2.597   1.398  11.884  0.5862  0.0521 -0.2765
  149DOPC   C1217726   2.542   1.400  11.742  0.0006 -0.6641 -0.3250
  149DOPC  H12A17727   2.472   1.482  11.742  0.6527 -0.0880  0.5066
  149DOPC  H12B17728   2.488   1.308  11.722 -0.8392  0.2931 -2.8428
  149DOPC   C1317729   2.649   1.535  11.919 -0.2246 -0.1115 -0.0264
  149DOPC  H13A17730   2.722   1.571  11.848 -0.7958  0.0613 -0.5413
  149DOPC  H13B17731   2.572   1.610  11.916  0.0827  0.1847 -1.0515
  149DOPC  H13C17732   2.697   1.536  12.015 -0.5469 -0.2152  0.1377
  149DOPC   C1417733   2.697   1.288  11.889  0.2960 -0.1244  0.0337
  149DOPC  H14A17734   2.653   1.190  11.876  1.8102 -1.1718  2.2138
  149DOPC  H14B17735   2.786   1.294  11.829 -0.8242 -0.3573 -1.7293
  149DOPC  H14C17736   2.730   1.290  11.992 -1.2631  1.8783  0.5608
  149DOPC   C1517737   2.486   1.367  11.986  0.3191 -0.1184 -0.4513
  149DOPC  H15A17738   2.424   1.284  11.955  0.1102  0.4378 -1.5841
  149DOPC  H15B17739   2.420   1.453  11.987  1.3186  0.6740 -0.7188
  149DOPC  H15C17740   2.517   1.352  12.088  1.1344 -2.4864 -0.9917
  149DOPC   C1117741   2.650   1.413  11.626 -0.0071  0.4669 -0.1559
  149DOPC  H11A17742   2.732   1.339  11.635  0.5337  1.1313  0.4998
  149DOPC  H11B17743   2.597   1.375  11.536  1.9469 -0.9812 -0.7421
  149DOPC     P17744   2.610   1.649  11.519  0.3482  0.0903 -0.1559
  149DOPC   O1317745   2.686   1.774  11.491 -0.4673 -0.4242  0.1804
  149DOPC   O1417746   2.474   1.668  11.577 -0.3044 -0.2709  0.6779
  149DOPC   O1217747   2.689   1.547  11.613 -0.0475 -0.2487 -0.2949
  149DOPC   O1117748   2.595   1.563  11.387 -0.3243  0.3245  0.4323
  149DOPC    C117749   2.705   1.528  11.299 -0.7053  0.1377 -0.1921
  149DOPC    HA17750   2.702   1.422  11.266 -0.7201  0.2282 -0.4813
  149DOPC    HB17751   2.804   1.540  11.349 -0.8244  0.8156 -0.1061
  149DOPC    C217752   2.717   1.622  11.170 -0.9997  0.4380  0.8024
  149DOPC    HS17753   2.727   1.725  11.212 -2.5996  2.3998 -3.0540
  149DOPC   O2117754   2.604   1.618  11.083 -0.2253  0.0301  0.1961
  149DOPC   C2117755   2.510   1.711  11.087 -0.1902 -0.1138 -0.3771
  149DOPC   O2217756   2.526   1.817  11.145  0.5297 -1.1611 -1.2763
  149DOPC   C2217757   2.392   1.673  10.991  0.1563 -0.0033 -0.1280
  149DOPC   H2R17758   2.302   1.722  11.034  0.2658 -0.6368  0.8639
  149DOPC   H2S17759   2.383   1.563  10.998 -1.1824  0.1195  0.3601
  149DOPC    C317760   2.843   1.584  11.088 -0.6803  0.1554 -0.5219
  149DOPC    HX17761   2.821   1.481  11.053 -1.7034  0.3377 -0.4427
  149DOPC    HY17762   2.928   1.576  11.159 -0.3331  2.1083 -0.6535
  149DOPC   O3117763   2.856   1.663  10.972  0.4055  0.0193  0.5369
  149DOPC   C3117764   2.941   1.603  10.888 -0.4309 -0.7613  0.1976
  149DOPC   O3217765   2.990   1.491  10.911  0.3323 -0.5016 -0.4951
  149DOPC   C3217766   2.991   1.698  10.780  0.8477 -0.0958  0.2178
  149DOPC   H2X17767   3.023   1.789  10.835 -0.5779  0.5225  0.0846
  149DOPC   H2Y17768   3.078   1.660  10.723  0.6197 -0.8020  0.3365
  149DOPC   C2317769   2.426   1.708  10.843  0.5611  0.2681  0.2767
  149DOPC   H3R17770   2.506   1.638  10.814  0.3662  0.5910 -1.1085
  149DOPC   H3S17771   2.451   1.814  10.819  1.8289  0.0246  0.4996
  149DOPC   C2417772   2.298   1.674  10.754 -0.2385 -0.2725 -0.0649
  149DOPC   H4R17773   2.211   1.733  10.788 -1.2739 -1.0321 -1.2949
  149DOPC   H4S17774   2.282   1.567  10.778  0.2105 -0.6576 -1.3610
  149DOPC   C2517775   2.332   1.701  10.611 -0.1927 -0.0058  0.6569
  149DOPC   H5R17776   2.263   1.644  10.545  0.7484 -3.1915  2.2348
  149DOPC   H5S17777   2.433   1.660  10.588  0.3441  1.9983 -0.7562
  149DOPC   C2617778   2.325   1.843  10.576  0.5768  0.4792  0.3961
  149DOPC   H6R17779   2.421   1.888  10.608  2.0320  0.0333 -2.9768
  149DOPC   H6S17780   2.239   1.892  10.627  0.2743 -0.3538  0.6997
  149DOPC   C2717781   2.319   1.890  10.432  0.6096 -0.4523 -0.3789
  149DOPC   H7R17782   2.220   1.874  10.385 -0.0403  2.0876  0.0011
  149DOPC   H7S17783   2.385   1.826  10.369  0.4650 -2.3028  1.2571
  149DOPC   C2817784   2.344   2.046  10.418  0.5157  0.2048  0.4520
  149DOPC   H8R17785   2.440   2.070  10.468  0.2048  1.4892  0.4630
  149DOPC   H8S17786   2.263   2.094  10.477  0.4573  0.2965  0.2986
  149DOPC   C2917787   2.351   2.093  10.276 -0.1212 -0.5377  0.1077
  149DOPC   H9R17788   2.324   2.020  10.199 -3.1837 -0.2491  0.7999
  149DOPC  C21017789   2.423   2.205  10.245  0.3089  0.0409 -0.4559
  149DOPC  H10R17790   2.424   2.231  10.138 -1.7671 -0.1185 -0.5499
  149DOPC  C21117791   2.484   2.302  10.342  0.5624  0.0520  0.7448
  149DOPC  H11R17792   2.450   2.281  10.445  1.0162 -0.8125  0.7333
  149DOPC  H11S17793   2.433   2.398  10.323  0.2307  0.1214  1.9038
  149DOPC  C21217794   2.641   2.318  10.338 -0.0132 -0.0910 -0.4199
  149DOPC  H12R17795   2.678   2.381  10.421 -0.1059 -0.2423 -0.2649
  149DOPC  H12S17796   2.683   2.346  10.239  1.8649  0.2026  0.4142
  149DOPC  C21317797   2.705   2.174  10.359  0.2252  0.4335 -0.1720
  149DOPC  H13R17798   2.669   2.121  10.268 -1.1980  0.6168  0.2632
  149DOPC  H13S17799   2.659   2.134  10.451 -1.2639 -0.3351 -1.2032
  149DOPC  C21417800   2.855   2.194  10.354 -0.4878 -0.5746  0.0131
  149DOPC  H14R17801   2.887   2.264  10.434  2.6650 -2.1775  0.2960
  149DOPC  H14S17802   2.890   2.238  10.259  2.7148 -2.2585  0.2962
  149DOPC  C21517803   2.939   2.065  10.373 -0.4150  0.5513 -0.5791
  149DOPC  H15R17804   2.923   1.990  10.292 -0.0897 -0.3214  0.1561
  149DOPC  H15S17805   2.916   2.021  10.472 -1.0929 -0.4610 -1.1671
  149DOPC  C21617806   3.089   2.099  10.360  0.3731 -0.0934 -0.8857
  149DOPC  H16R17807   3.090   2.152  10.262 -0.5259  1.0606 -0.3110
  149DOPC  H16S17808   3.152   2.009  10.349  1.2919  0.7064 -2.6732
  149DOPC  C21717809   3.148   2.177  10.471  0.4729  0.2740 -0.7406
  149DOPC  H17R17810   3.147   2.115  10.563 -0.2258  2.5364  0.8698
  149DOPC  H17S17811   3.082   2.263  10.497  0.7312  0.8355 -1.8672
  149DOPC  C21817812   3.282   2.243  10.446 -0.3753 -0.1923  0.3509
  149DOPC  H18R17813   3.316   2.309  10.528  0.8882 -2.4241  1.7341
  149DOPC  H18S17814   3.284   2.302  10.352 -1.1066  3.0046  2.1969
  149DOPC  H18T17815   3.358   2.162  10.441  0.5193  0.6701 -0.3674
  149DOPC   C3317816   2.871   1.749  10.694 -0.1794  0.3254 -1.0811
  149DOPC   H3X17817   2.899   1.852  10.663  1.6181  0.8314  1.7655
  149DOPC   H3Y17818   2.785   1.760  10.763 -0.7954 -0.6431 -1.6863
  149DOPC   C3417819   2.838   1.671  10.575  0.3439  0.1430  0.8824
  149DOPC   H4X17820   2.802   1.572  10.608 -0.0708 -0.6936 -1.8217
  149DOPC   H4Y17821   2.928   1.649  10.513  0.5292 -1.6851  1.7600
  149DOPC   C3517822   2.733   1.732  10.482 -0.0624  1.0258  0.0673
  149DOPC   H5X17823   2.718   1.842  10.483  1.8635  1.3347  1.5187
  149DOPC   H5Y17824   2.634   1.694  10.515  0.1356  0.1723 -0.2910
  149DOPC   C3617825   2.748   1.680  10.340  0.1565 -0.4144 -0.3190
  149DOPC   H6X17826   2.830   1.736  10.290  0.4316 -0.7156 -0.2115
  149DOPC   H6Y17827   2.769   1.571  10.344  1.3590 -0.2904 -2.0006
  149DOPC   C3717828   2.620   1.716  10.262  0.6351 -0.2066 -0.7221
  149DOPC   H7X17829   2.530   1.696  10.324 -0.1693  2.1567 -1.0460
  149DOPC   H7Y17830   2.605   1.824  10.240 -0.4186 -0.1097  0.3796
  149DOPC   C3817831   2.596   1.639  10.128  0.2489 -0.3022  0.0105
  149DOPC   H8X17832   2.491   1.612  10.104 -0.1534  1.6893 -0.6642
  149DOPC   H8Y17833   2.636   1.537  10.147 -1.4539 -0.8501  0.8333
  149DOPC   C3917834   2.652   1.710  10.011  0.2765  0.6809  0.2395
  149DOPC   H9X17835   2.732   1.782  10.031 -1.2217  2.5281 -0.0869
  149DOPC  C31017836   2.626   1.683   9.882  0.6488 -0.1404  0.4772
  149DOPC  H10X17837   2.663   1.751   9.803 -2.5102 -1.1218 -2.0696
  149DOPC  C31117838   2.526   1.580   9.833 -0.7913  0.1248  0.0046
  149DOPC  H11X17839   2.432   1.632   9.807 -0.4095  0.4743 -0.7114
  149DOPC  H11Y17840   2.511   1.501   9.910  0.1258  0.1355  0.2134
  149DOPC  C31217841   2.573   1.496   9.711 -0.6822  0.2673  0.5152
  149DOPC  H12X17842   2.602   1.574   9.638  0.4946  0.4402  1.1375
  149DOPC  H12Y17843   2.481   1.445   9.676  0.4524 -0.9151 -0.8726
  149DOPC  C31317844   2.687   1.392   9.737  0.3261 -0.2040 -0.2249
  149DOPC  H13X17845   2.772   1.444   9.786  0.6013 -0.1632 -0.7384
  149DOPC  H13Y17846   2.636   1.328   9.812 -2.8186 -0.4453 -2.3979
  149DOPC  C31417847   2.736   1.308   9.618  0.7178 -0.8892 -0.2278
  149DOPC  H14X17848   2.656   1.276   9.548  1.7830 -1.8977 -1.0135
  149DOPC  H14Y17849   2.816   1.369   9.569 -0.0333  1.4515  1.2764
  149DOPC  C31517850   2.792   1.173   9.668  0.3436 -0.0535 -0.5912
  149DOPC  H15X17851   2.819   1.102   9.587 -2.3800  0.3363 -1.9606
  149DOPC  H15Y17852   2.708   1.131   9.728  0.0670  0.7567 -0.4024
  149DOPC  C31617853   2.912   1.192   9.767 -0.1482 -0.0261  0.5756
  149DOPC  H16X17854   2.978   1.276   9.737  1.6793 -0.3782  3.2839
  149DOPC  H16Y17855   2.877   1.218   9.869 -1.4782 -0.8624  0.3620
  149DOPC  C31717856   3.000   1.069   9.781  0.7528  0.4696 -0.1369
  149DOPC  H17X17857   2.934   0.980   9.792 -1.6108  1.9723 -1.3679
  149DOPC  H17Y17858   3.054   1.048   9.686  0.0816 -0.4202 -0.3342
  149DOPC  C31817859   3.101   1.065   9.900 -0.1027 -0.3372  1.0414
  149DOPC  H18X17860   3.169   1.150   9.877 -1.8272  1.1574  1.2506
  149DOPC  H18Y17861   3.045   1.076   9.995  1.6327  1.5631  1.9041
  149DOPC  H18Z17862   3.148   0.965   9.889  0.2800  0.0333 -1.2246
  150DOPC     N17863   6.045   4.042  11.431 -0.6503 -0.3997 -0.4870
  150DOPC   C1217864   6.018   4.016  11.288 -0.4335 -0.0175  0.1717
  150DOPC  H12A17865   6.081   3.935  11.253 -1.0556  0.3059 -1.8620
  150DOPC  H12B17866   6.054   4.100  11.229 -1.1164  0.1428 -0.0259
  150DOPC   C1317867   6.023   3.924  11.516  0.3194 -0.0082 -0.4619
  150DOPC  H13A17868   6.052   3.833  11.465  1.1909  0.9409 -1.7043
  150DOPC  H13B17869   6.069   3.924  11.614 -2.1550 -0.7231  0.7775
  150DOPC  H13C17870   5.917   3.915  11.536  0.2867 -1.3146 -1.1081
  150DOPC   C1417871   5.971   4.158  11.485 -0.0689  0.5908  0.0409
  150DOPC  H14A17872   6.012   4.196  11.577 -0.5795  1.2217  0.0129
  150DOPC  H14B17873   5.977   4.238  11.413  3.1218 -0.2827 -0.8149
  150DOPC  H14C17874   5.864   4.145  11.493 -0.1444  0.8864 -0.4559
  150DOPC   C1517875   6.193   4.071  11.450  0.4546  0.0281 -0.0704
  150DOPC  H15A17876   6.216   4.097  11.553  2.6043 -2.0836  0.0742
  150DOPC  H15B17877   6.231   4.140  11.376 -1.4709 -0.6421 -1.7618
  150DOPC  H15C17878   6.263   3.989  11.438  2.4047  1.3818  1.3140
  150DOPC   C1117879   5.872   3.997  11.247  0.6242  0.5185  0.3914
  150DOPC  H11A17880   5.834   3.911  11.307 -0.4999  0.5831 -0.2066
  150DOPC  H11B17881   5.811   4.085  11.276 -1.2801  0.0775 -2.0004
  150DOPC     P17882   5.859   4.069  10.990  0.1053  0.0358 -0.6180
  150DOPC   O1317883   5.945   4.179  11.041  0.1611 -0.3849  0.4754
  150DOPC   O1417884   5.718   4.088  10.964  0.0164  0.9760 -0.1095
  150DOPC   O1217885   5.859   3.970  11.105  0.0492 -0.2991 -0.2124
  150DOPC   O1117886   5.939   3.988  10.874 -0.6183 -0.4899  0.0506
  150DOPC    C117887   5.978   4.072  10.760  0.7028  0.5693  1.0620
  150DOPC    HA17888   6.051   4.146  10.800 -0.4202  1.7867  0.9435
  150DOPC    HB17889   5.896   4.137  10.724  1.3370  2.1498  2.3539
  150DOPC    C217890   6.041   3.971  10.653  0.1457 -0.5839  0.9760
  150DOPC    HS17891   6.080   4.034  10.569  2.5034 -3.5598 -0.3889
  150DOPC   O2117892   5.948   3.873  10.597  0.3679 -0.4390  0.1097
  150DOPC   C2117893   5.845   3.913  10.535  0.7391 -0.8927  0.5553
  150DOPC   O2217894   5.806   4.029  10.515  0.0746  0.0575  0.4013
  150DOPC   C2217895   5.777   3.783  10.488 -0.4228  0.3466 -1.0644
  150DOPC   H2R17896   5.726   3.747  10.579  1.3977 -1.1492 -0.5685
  150DOPC   H2S17897   5.853   3.706  10.464  0.3804  0.6647  0.3613
  150DOPC    C317898   6.175   3.893  10.696 -0.1103 -0.4082  0.6446
  150DOPC    HX17899   6.146   3.797  10.744 -1.6033 -0.4418 -0.2660
  150DOPC    HY17900   6.226   3.953  10.774 -1.7540 -1.2936  2.4923
  150DOPC   O3117901   6.256   3.858  10.584  0.6958 -0.2828  0.2184
  150DOPC   C3117902   6.323   3.958  10.538 -0.4239 -0.3107  0.1497
  150DOPC   O3217903   6.319   4.079  10.563 -0.3098 -0.0850 -0.3475
  150DOPC   C3217904   6.408   3.899  10.436 -0.8400 -1.0985 -1.1893
  150DOPC   H2X17905   6.456   3.801  10.459 -0.5313 -0.8282 -0.6707
  150DOPC   H2Y17906   6.338   3.879  10.353 -2.5887 -1.6688  0.3729
  150DOPC   C2317907   5.689   3.798  10.363 -0.1830  0.6129  0.2009
  150DOPC   H3R17908   5.614   3.872  10.395 -0.0816  1.2719 -1.0320
  150DOPC   H3S17909   5.638   3.701  10.341  0.3098 -0.6585  3.8479
  150DOPC   C2417910   5.760   3.866  10.240 -0.6159 -0.7277  0.2244
  150DOPC   H4R17911   5.845   3.809  10.197 -0.4887  0.3856 -1.0911
  150DOPC   H4S17912   5.801   3.966  10.267 -1.7239 -0.1222 -0.2889
  150DOPC   C2517913   5.659   3.889  10.123  0.0869  0.6782  0.2948
  150DOPC   H5R17914   5.559   3.926  10.151 -1.1260 -1.8060 -0.4185
  150DOPC   H5S17915   5.645   3.785  10.085  3.7093 -0.1087  0.6975
  150DOPC   C2617916   5.703   3.982  10.008 -0.2239  0.4414  0.7475
  150DOPC   H6R17917   5.803   3.949   9.972  0.2624  2.4664  0.1218
  150DOPC   H6S17918   5.711   4.088  10.039  0.8650  0.6151 -0.0587
  150DOPC   C2717919   5.595   3.971   9.904 -0.1584 -0.2974 -0.1135
  150DOPC   H7R17920   5.499   4.022   9.930 -0.7777  0.6408 -3.5940
  150DOPC   H7S17921   5.565   3.865   9.891  0.5208 -0.5033 -0.0110
  150DOPC   C2817922   5.638   4.012   9.760  0.6596  0.6754  0.9430
  150DOPC   H8R17923   5.717   3.939   9.731 -0.6517  0.2451 -1.8556
  150DOPC   H8S17924   5.692   4.109   9.763 -0.4224  1.3417 -0.2778
  150DOPC   C2917925   5.531   4.003   9.649 -0.4311  0.6268 -0.1138
  150DOPC   H9R17926   5.445   4.069   9.668 -0.7227  0.0176  0.7381
  150DOPC  C21017927   5.528   3.908   9.553  0.0766  0.8622 -0.2655
  150DOPC  H10R17928   5.437   3.899   9.492 -1.6417 -2.5589  2.4481
  150DOPC  C21117929   5.627   3.797   9.519 -0.1276 -0.1058 -0.1928
  150DOPC  H11R17930   5.574   3.703   9.494  1.7590 -1.7902  1.7178
  150DOPC  H11S17931   5.694   3.771   9.604  1.2523 -1.3972 -1.6198
  150DOPC  C21217932   5.716   3.834   9.400 -0.4163  0.6304 -0.5891
  150DOPC  H12R17933   5.775   3.742   9.378  1.9083  2.0164 -0.5078
  150DOPC  H12S17934   5.797   3.901   9.437 -1.2741  1.0726  0.5040
  150DOPC  C21317935   5.654   3.877   9.272  0.2690  0.2286 -0.5372
  150DOPC  H13R17936   5.628   3.981   9.300  0.1971 -0.0448  0.4286
  150DOPC  H13S17937   5.552   3.836   9.251 -0.1744  0.9809  0.1081
  150DOPC  C21417938   5.741   3.880   9.143 -0.6408  0.1418  0.4405
  150DOPC  H14R17939   5.756   3.775   9.109 -2.7871  0.2993 -1.2354
  150DOPC  H14S17940   5.842   3.914   9.172 -1.0955  1.5233  0.4476
  150DOPC  C21517941   5.686   3.971   9.027  0.5060 -0.3295 -0.0983
  150DOPC  H15R17942   5.659   4.070   9.068  0.9861 -0.3422  0.2550
  150DOPC  H15S17943   5.589   3.920   9.004  2.1040 -1.6031 -5.3944
  150DOPC  C21617944   5.757   3.990   8.892 -0.7679 -0.1788  0.5183
  150DOPC  H16R17945   5.684   4.039   8.825  1.9223  3.3624 -0.0901
  150DOPC  H16S17946   5.779   3.895   8.838 -0.0880  0.1285  0.2389
  150DOPC  C21717947   5.892   4.068   8.901  0.0090 -0.4673 -0.4037
  150DOPC  H17R17948   5.928   4.078   8.796  2.4289 -1.3107  0.2859
  150DOPC  H17S17949   5.975   4.015   8.952  1.1253  1.2878 -0.3202
  150DOPC  C21817950   5.871   4.204   8.970 -0.4258 -0.4618 -0.4202
  150DOPC  H18R17951   5.781   4.262   8.943 -1.3016 -1.4524  0.3130
  150DOPC  H18S17952   5.964   4.264   8.957 -0.4902 -0.4180 -0.6788
  150DOPC  H18T17953   5.853   4.188   9.078 -2.2722  1.5336 -0.3775
  150DOPC   C3317954   6.510   4.008  10.397 -0.1795 -0.2609  0.2314
  150DOPC   H3X17955   6.576   4.019  10.485  0.0898 -2.9405  0.4234
  150DOPC   H3Y17956   6.463   4.107  10.379  1.7976  0.4953 -1.1065
  150DOPC   C3417957   6.608   3.984  10.280  0.3652 -0.2398  0.5391
  150DOPC   H4X17958   6.685   3.908  10.306 -0.4038 -2.3413 -2.6616
  150DOPC   H4Y17959   6.660   4.076  10.245  0.8668  0.1470  2.2253
  150DOPC   C3517960   6.539   3.914  10.161 -0.0219 -0.6588 -0.0192
  150DOPC   H5X17961   6.456   3.982  10.132  2.3054  2.1429 -0.6653
  150DOPC   H5Y17962   6.496   3.815  10.186  0.5538 -0.9726 -0.2401
  150DOPC   C3617963   6.627   3.886  10.035 -0.0416  0.9798  0.3443
  150DOPC   H6X17964   6.646   3.980   9.978  0.2082  2.2423  2.4188
  150DOPC   H6Y17965   6.731   3.874  10.070 -0.2826  2.5946  1.7334
  150DOPC   C3717966   6.574   3.777   9.947 -0.1762 -0.4614 -0.6376
  150DOPC   H7X17967   6.641   3.765   9.860  1.4867  1.5080  0.2960
  150DOPC   H7Y17968   6.578   3.679   9.998  0.5361  0.5593  1.3479
  150DOPC   C3817969   6.432   3.801   9.902  0.3602 -0.0271  0.2241
  150DOPC   H8X17970   6.431   3.895   9.843  0.8483 -0.7059 -0.9047
  150DOPC   H8Y17971   6.364   3.818   9.989 -0.8811 -0.3754 -0.6384
  150DOPC   C3917972   6.380   3.682   9.825  0.7876  0.4170  0.2547
  150DOPC   H9X17973   6.411   3.582   9.857 -0.8394 -0.3529 -0.4341
  150DOPC  C31017974   6.312   3.677   9.709 -0.0606 -0.1591 -0.1150
  150DOPC  H10X17975   6.290   3.578   9.667  1.4998 -0.6637  0.1851
  150DOPC  C31117976   6.265   3.798   9.629 -0.3922 -0.1272 -0.7667
  150DOPC  H11X17977   6.336   3.883   9.630 -0.9386  0.3406 -0.7598
  150DOPC  H11Y17978   6.170   3.840   9.669 -1.4727 -1.3085 -1.9889
  150DOPC  C31217979   6.226   3.774   9.485  0.0021  0.7136 -0.4625
  150DOPC  H12X17980   6.314   3.730   9.432 -1.9130 -1.6939 -1.8790
  150DOPC  H12Y17981   6.219   3.871   9.431 -2.1463  0.5733 -0.5172
  150DOPC  C31317982   6.108   3.686   9.452  0.2090 -0.8900 -0.4399
  150DOPC  H13X17983   6.126   3.594   9.513  0.3836  1.2726  3.0030
  150DOPC  H13Y17984   6.018   3.741   9.487  1.2720 -0.8717  2.5514
  150DOPC  C31417985   6.083   3.653   9.306 -0.6745  0.1916 -0.1983
  150DOPC  H14X17986   5.980   3.614   9.319 -1.1361  1.2443 -0.5839
  150DOPC  H14Y17987   6.084   3.742   9.240  2.1936 -0.1633 -0.7945
  150DOPC  C31517988   6.184   3.551   9.250 -0.1780 -0.6460 -0.6964
  150DOPC  H15X17989   6.171   3.459   9.311  1.7293  0.9706  2.4392
  150DOPC  H15Y17990   6.281   3.602   9.272 -0.9918  0.0651  1.5724
  150DOPC  C31617991   6.159   3.510   9.101  0.6723  0.0478 -0.4502
  150DOPC  H16X17992   6.057   3.467   9.092  0.1960  1.3800 -1.7499
  150DOPC  H16Y17993   6.158   3.609   9.050  0.0788  1.1285  1.5560
  150DOPC  C31717994   6.255   3.415   9.043 -0.4383  0.2741 -0.1178
  150DOPC  H17X17995   6.357   3.444   9.077  0.0709 -0.1752 -1.2102
  150DOPC  H17Y17996   6.242   3.313   9.084 -0.6810 -0.0359 -0.9431
  150DOPC  C31817997   6.255   3.424   8.890  0.4376 -0.5275  0.3711
  150DOPC  H18X17998   6.160   3.375   8.858 -0.4357 -0.7328  3.0721
  150DOPC  H18Y17999   6.248   3.527   8.849 -0.7283 -0.8284 -0.2642
  150DOPC  H18Z18000   6.340   3.374   8.838  2.1266  1.0743  1.4953
  151DOPC     N18001   1.561   2.400  11.402 -0.0867 -0.0429 -0.5530
  151DOPC   C1218002   1.490   2.533  11.362  0.4826  0.0682  0.2388
  151DOPC  H12A18003   1.506   2.602  11.443  2.0428  1.3692 -1.1065
  151DOPC  H12B18004   1.384   2.512  11.362  0.6938 -1.1667  1.7809
  151DOPC   C1318005   1.517   2.360  11.537 -0.6738 -0.0806  0.4333
  151DOPC  H13A18006   1.566   2.269  11.571 -1.2138  0.0092  1.5108
  151DOPC  H13B18007   1.541   2.442  11.604 -0.8481  1.0392 -0.8423
  151DOPC  H13C18008   1.411   2.342  11.533 -0.7109 -0.7483  2.6537
  151DOPC   C1418009   1.711   2.437  11.413  0.3657  0.4447  0.8111
  151DOPC  H14A18010   1.772   2.349  11.431  0.4603  0.4873  0.6977
  151DOPC  H14B18011   1.743   2.493  11.327 -2.1739  0.1835 -0.3848
  151DOPC  H14C18012   1.727   2.503  11.497 -1.0278  0.4742  1.0710
  151DOPC   C1518013   1.542   2.287  11.305 -0.7955 -0.3187  0.1529
  151DOPC  H15A18014   1.444   2.243  11.306 -1.8784  1.9241  0.9536
  151DOPC  H15B18015   1.616   2.215  11.336  1.8706  2.2818  0.3902
  151DOPC  H15C18016   1.579   2.318  11.208  3.6334 -0.5791  1.5345
  151DOPC   C1118017   1.540   2.615  11.231  0.1342  0.5616  0.6173
  151DOPC  H11A18018   1.528   2.538  11.152 -4.5304  0.8295  0.7854
  151DOPC  H11B18019   1.464   2.693  11.212  0.2617  1.1856  2.4846
  151DOPC     P18020   1.696   2.802  11.317  0.3541  0.2478 -0.3857
  151DOPC   O1318021   1.838   2.842  11.321  0.0959  0.4660  0.0742
  151DOPC   O1418022   1.627   2.791  11.443 -0.0815  0.2814 -1.0195
  151DOPC   O1218023   1.678   2.664  11.239  0.3071 -0.3626 -0.3908
  151DOPC   O1118024   1.612   2.894  11.218  0.0456  0.4494  0.2438
  151DOPC    C118025   1.675   2.921  11.096  0.3650 -0.2498  0.2389
  151DOPC    HA18026   1.728   2.832  11.055  0.7691 -0.3718  1.0208
  151DOPC    HB18027   1.737   3.011  11.116 -0.8732  1.0943 -1.5859
  151DOPC    C218028   1.570   2.953  10.988  0.2683  0.0038 -0.2699
  151DOPC    HS18029   1.506   3.037  11.019  1.4738  0.2943  1.6018
  151DOPC   O2118030   1.508   2.830  10.938 -0.4127  0.3311 -0.3153
  151DOPC   C2118031   1.379   2.825  10.948  0.4421 -0.4270 -0.2532
  151DOPC   O2218032   1.302   2.911  10.985  0.2563  0.4055 -0.1321
  151DOPC   C2218033   1.327   2.682  10.918  0.3576  0.4357  0.1427
  151DOPC   H2R18034   1.253   2.653  10.996 -1.4827 -0.3843 -1.7911
  151DOPC   H2S18035   1.419   2.621  10.924  1.0633  0.8578 -3.5973
  151DOPC    C318036   1.644   3.012  10.868  0.4988 -0.1795 -0.1091
  151DOPC    HX18037   1.694   2.923  10.825 -2.5736 -1.7521 -0.6605
  151DOPC    HY18038   1.727   3.077  10.904  0.3383  0.2321 -0.4671
  151DOPC   O3118039   1.563   3.061  10.763  0.6183 -0.2570  0.1022
  151DOPC   C3118040   1.567   3.194  10.740  0.3360  0.7181  0.6422
  151DOPC   O3218041   1.627   3.273  10.811  0.4477  0.4104  0.0716
  151DOPC   C3218042   1.480   3.226  10.615 -0.3205 -0.3549 -0.5394
  151DOPC   H2X18043   1.471   3.129  10.561  2.9383 -0.1970 -1.5759
  151DOPC   H2Y18044   1.375   3.246  10.646 -0.4497 -2.2255  0.3256
  151DOPC   C2318045   1.252   2.673  10.783  0.2392 -0.3593 -0.2859
  151DOPC   H3R18046   1.160   2.735  10.781  1.0568  1.1745  2.8954
  151DOPC   H3S18047   1.209   2.571  10.797  0.7085 -0.6085 -0.6544
  151DOPC   C2418048   1.331   2.689  10.663  0.4548  0.3774  0.2747
  151DOPC   H4R18049   1.397   2.602  10.643 -0.7812  0.0829 -3.0599
  151DOPC   H4S18050   1.404   2.772  10.672  0.7575  0.1859 -0.3645
  151DOPC   C2518051   1.242   2.713  10.541 -0.1473 -0.2132  0.2895
  151DOPC   H5R18052   1.151   2.771  10.569  1.0295  1.5053  0.7550
  151DOPC   H5S18053   1.207   2.618  10.495  1.0920 -0.0351 -1.0854
  151DOPC   C2618054   1.312   2.792  10.430 -0.0362 -0.5060  1.1432
  151DOPC   H6R18055   1.410   2.747  10.402  0.3472  0.5632  0.7118
  151DOPC   H6S18056   1.331   2.890  10.479 -2.9084  1.1710 -0.8224
  151DOPC   C2718057   1.226   2.816  10.303 -0.0792  0.5672  0.4292
  151DOPC   H7R18058   1.126   2.862  10.316  0.3320  2.3733 -2.0506
  151DOPC   H7S18059   1.215   2.719  10.252  0.6202  0.4619  0.4707
  151DOPC   C2818060   1.294   2.914  10.198 -0.0359  0.5283 -0.3670
  151DOPC   H8R18061   1.391   2.863  10.177 -1.5735 -2.3343 -1.0525
  151DOPC   H8S18062   1.305   3.006  10.259 -2.1623  0.5705  0.0231
  151DOPC   C2918063   1.234   2.935  10.070  1.0299  0.4810 -0.1761
  151DOPC   H9R18064   1.149   3.004  10.067 -1.5354 -2.5284 -1.6396
  151DOPC  C21018065   1.258   2.866   9.962  0.3515 -0.1113 -0.3485
  151DOPC  H10R18066   1.206   2.898   9.870  1.1749 -0.8379 -1.0892
  151DOPC  C21118067   1.365   2.760   9.947 -0.1672 -0.1247 -0.2759
  151DOPC  H11R18068   1.318   2.670   9.902 -2.0559  1.7046 -2.1637
  151DOPC  H11S18069   1.406   2.731  10.046  0.6213  0.9827 -0.2535
  151DOPC  C21218070   1.482   2.798   9.860 -0.6405 -0.7212  0.8722
  151DOPC  H12R18071   1.438   2.803   9.758 -2.7730  0.4073  1.7645
  151DOPC  H12S18072   1.551   2.713   9.848  0.4967  0.5077 -2.7063
  151DOPC  C21318073   1.565   2.916   9.904  0.1987  0.2224  0.0009
  151DOPC  H13R18074   1.607   2.890  10.003 -0.5061  0.7572  0.4475
  151DOPC  H13S18075   1.507   3.007   9.931 -0.1137 -0.2993  1.1038
  151DOPC  C21418076   1.673   2.956   9.804  0.4015 -0.1834 -0.0052
  151DOPC  H14R18077   1.631   2.980   9.704  0.5100  1.5880  0.3453
  151DOPC  H14S18078   1.743   2.871   9.786 -0.4682 -0.9264  0.0428
  151DOPC  C21518079   1.760   3.072   9.854  0.2548 -0.7595  0.3337
  151DOPC  H15R18080   1.818   3.047   9.946  0.1381  0.6593  0.8265
  151DOPC  H15S18081   1.700   3.162   9.880  0.5611  0.0744 -1.6635
  151DOPC  C21618082   1.865   3.122   9.752  0.4097  0.1708 -0.0180
  151DOPC  H16R18083   1.885   3.229   9.773 -1.5533  0.6155 -0.2205
  151DOPC  H16S18084   1.809   3.139   9.658 -2.7229 -0.1039  1.6489
  151DOPC  C21718085   1.985   3.028   9.725  0.0489  0.0480 -0.4157
  151DOPC  H17R18086   1.954   2.922   9.734  2.2976 -0.7008 -0.9754
  151DOPC  H17S18087   2.059   3.048   9.806  0.2627  1.6494 -0.9609
  151DOPC  C21818088   2.057   3.052   9.591  0.3443  0.2030 -0.3491
  151DOPC  H18R18089   2.161   3.012   9.596 -0.7184 -2.7710  0.4827
  151DOPC  H18S18090   2.056   3.155   9.551  0.0253  0.1330 -0.5253
  151DOPC  H18T18091   1.995   2.998   9.516  1.8482  1.2136 -2.4219
  151DOPC   C3318092   1.550   3.334  10.524  0.4326 -0.0789 -0.4380
  151DOPC   H3X18093   1.653   3.298  10.500 -0.4233 -2.9115 -0.2678
  151DOPC   H3Y18094   1.549   3.427  10.584  1.7848 -0.3441  0.0408
  151DOPC   C3418095   1.484   3.349  10.383 -0.1629  0.3803 -0.0226
  151DOPC   H4X18096   1.487   3.456  10.352 -1.5391  0.3561 -0.2829
  151DOPC   H4Y18097   1.383   3.304  10.388  0.1705 -0.4248 -0.4077
  151DOPC   C3518098   1.568   3.277  10.273  0.2806  0.7343  0.5380
  151DOPC   H5X18099   1.598   3.174  10.300 -2.5548 -0.0607  0.9756
  151DOPC   H5Y18100   1.658   3.333  10.241  1.3933 -2.1283 -1.7824
  151DOPC   C3618101   1.491   3.256  10.144 -0.1660 -0.1409  0.4127
  151DOPC   H6X18102   1.569   3.241  10.067  1.8896  0.4093  2.2887
  151DOPC   H6Y18103   1.425   3.168  10.160 -2.8683  1.5533 -0.6426
  151DOPC   C3718104   1.394   3.368  10.096 -0.0643 -0.1651 -0.5866
  151DOPC   H7X18105   1.312   3.364  10.172  1.1299 -1.7376  0.6836
  151DOPC   H7Y18106   1.443   3.468  10.091  1.7274 -0.9320  0.7974
  151DOPC   C3818107   1.325   3.331   9.965 -0.1016  0.4195 -0.7180
  151DOPC   H8X18108   1.236   3.397   9.953  1.0827  2.2309 -0.0736
  151DOPC   H8Y18109   1.296   3.224   9.962  0.4464  0.2590 -0.5514
  151DOPC   C3918110   1.424   3.353   9.852 -0.2980 -0.4507 -1.0330
  151DOPC   H9X18111   1.509   3.284   9.855  1.6816  1.8857 -0.4271
  151DOPC  C31018112   1.410   3.444   9.750  0.1583  0.3243 -0.3831
  151DOPC  H10X18113   1.501   3.470   9.692  1.6439 -1.8873  0.8297
  151DOPC  C31118114   1.294   3.539   9.718  0.0050  0.2317  0.4371
  151DOPC  H11X18115   1.311   3.648   9.714  0.8238  0.1517  1.4250
  151DOPC  H11Y18116   1.215   3.524   9.795  0.9811 -0.5224  1.3140
  151DOPC  C31218117   1.235   3.515   9.577 -1.1409 -0.2752 -0.1707
  151DOPC  H12X18118   1.152   3.588   9.568 -0.1914  0.6140 -2.7540
  151DOPC  H12Y18119   1.194   3.414   9.554 -0.7210  0.0648 -2.7401
  151DOPC  C31318120   1.328   3.554   9.464 -0.3519  0.4731 -0.5116
  151DOPC  H13X18121   1.421   3.493   9.459 -0.6257  0.0470 -0.4622
  151DOPC  H13Y18122   1.275   3.529   9.370 -1.1046  2.7845 -0.7615
  151DOPC  C31418123   1.351   3.709   9.457 -0.1122  0.8694 -0.8792
  151DOPC  H14X18124   1.255   3.765   9.462 -1.2818 -0.8788 -2.4081
  151DOPC  H14Y18125   1.412   3.739   9.545 -0.0240 -2.5075  0.3576
  151DOPC  C31518126   1.414   3.754   9.326  0.1489  0.3025  0.4535
  151DOPC  H15X18127   1.348   3.752   9.236 -1.5605  2.2493  1.5668
  151DOPC  H15Y18128   1.492   3.676   9.314 -1.4499 -1.4589  0.8976
  151DOPC  C31618129   1.484   3.895   9.325 -0.2165  0.3536 -0.2752
  151DOPC  H16X18130   1.533   3.917   9.422 -0.9399  0.3540  0.1004
  151DOPC  H16Y18131   1.561   3.898   9.246 -0.0694 -0.6599 -0.1784
  151DOPC  C31718132   1.373   4.000   9.293 -0.4642  0.5406 -0.4623
  151DOPC  H17X18133   1.322   3.971   9.198  1.3072 -3.2422 -0.4353
  151DOPC  H17Y18134   1.291   3.985   9.367 -0.0884 -0.1863 -0.1837
  151DOPC  C31818135   1.416   4.140   9.278  0.2611  0.3605  0.5987
  151DOPC  H18X18136   1.329   4.208   9.281 -0.7604 -0.7719 -1.1391
  151DOPC  H18Y18137   1.494   4.172   9.350 -2.6539  1.0591  3.7011
  151DOPC  H18Z18138   1.457   4.143   9.175 -0.2150 -2.0387  0.2771
  152DOPC     N18139   3.520   1.103  11.442  0.5709 -0.1149  0.0679
  152DOPC   C1218140   3.529   0.965  11.516 -0.2816 -0.0056 -0.5436
  152DOPC  H12A18141   3.466   0.898  11.460  0.5240 -0.7979 -0.5063
  152DOPC  H12B18142   3.489   0.970  11.617 -2.5904 -2.5750 -1.1994
  152DOPC   C1318143   3.377   1.153  11.434 -0.0464  0.3560 -0.0089
  152DOPC  H13A18144   3.354   1.225  11.357  0.2069  2.0672  1.4388
  152DOPC  H13B18145   3.311   1.069  11.419 -0.9561  0.8610  1.0805
  152DOPC  H13C18146   3.345   1.196  11.527 -0.0052  0.3274  0.0186
  152DOPC   C1418147   3.575   1.104  11.306  0.5803 -0.0286  0.0986
  152DOPC  H14A18148   3.515   1.050  11.235  0.2770  0.3108  0.0937
  152DOPC  H14B18149   3.573   1.205  11.269  0.1536 -0.6575 -1.6694
  152DOPC  H14C18150   3.674   1.060  11.305  0.2273 -0.9793  1.9849
  152DOPC   C1518151   3.589   1.202  11.528  0.0116 -0.2911 -0.3590
  152DOPC  H15A18152   3.592   1.303  11.491  1.6301  0.0569  0.6413
  152DOPC  H15B18153   3.694   1.179  11.533 -0.0658 -0.6911 -0.5073
  152DOPC  H15C18154   3.538   1.213  11.622 -0.7939 -0.6515 -0.7448
  152DOPC   C1118155   3.673   0.905  11.525  0.2834 -0.4454  0.0669
  152DOPC  H11A18156   3.650   0.809  11.576 -2.1485  1.3418  2.6671
  152DOPC  H11B18157   3.700   0.896  11.418  1.9349 -3.3238  0.6178
  152DOPC     P18158   3.911   1.016  11.571 -0.0541 -0.1663 -0.1289
  152DOPC   O1318159   4.002   0.909  11.613  0.2427  0.2341 -0.6665
  152DOPC   O1418160   3.942   1.148  11.632 -0.0389 -0.2461 -0.1918
  152DOPC   O1218161   3.761   0.980  11.601 -0.1832 -0.6223  0.2917
  152DOPC   O1118162   3.931   1.034  11.412  0.1224 -0.3503 -0.2332
  152DOPC    C118163   3.925   1.159  11.338 -0.1003 -0.0246  0.5070
  152DOPC    HA18164   4.018   1.216  11.355 -1.1720  1.2987  2.2028
  152DOPC    HB18165   3.839   1.224  11.364 -0.2877 -0.5972  1.3592
  152DOPC    C218166   3.921   1.138  11.183  0.0719 -0.5765 -1.0008
  152DOPC    HS18167   3.813   1.121  11.160 -0.2273  1.2638 -1.1399
  152DOPC   O2118168   3.994   1.021  11.143 -0.1319 -0.7783  0.3267
  152DOPC   C2118169   3.945   0.902  11.176 -0.1116  0.5459 -0.5292
  152DOPC   O2218170   3.828   0.877  11.206  0.1238 -0.0636 -0.3135
  152DOPC   C2218171   4.049   0.788  11.169 -0.5060 -0.2973  0.2320
  152DOPC   H2R18172   3.996   0.691  11.183 -0.3492 -1.0451 -3.3381
  152DOPC   H2S18173   4.134   0.807  11.237  0.8760 -0.8679 -1.2647
  152DOPC    C318174   3.962   1.270  11.105 -0.3386 -0.1515 -0.5797
  152DOPC    HX18175   4.064   1.293  11.142 -0.8053  1.3983 -0.2021
  152DOPC    HY18176   3.901   1.358  11.136 -0.6555 -0.0861 -1.3806
  152DOPC   O3118177   3.965   1.246  10.961 -0.2679 -0.8479  0.0856
  152DOPC   C3118178   3.854   1.219  10.901 -0.0256  0.4502 -0.3380
  152DOPC   O3218179   3.748   1.193  10.954 -0.2259 -0.1678 -0.1794
  152DOPC   C3218180   3.872   1.222  10.749  0.0111  0.2437  0.0440
  152DOPC   H2X18181   3.836   1.320  10.712  1.5507  1.1913  0.9291
  152DOPC   H2Y18182   3.982   1.225  10.729 -0.1394 -0.6195 -1.0650
  152DOPC   C2318183   4.114   0.785  11.030 -0.4589  0.6766  0.2610
  152DOPC   H3R18184   4.198   0.713  11.029 -0.6017  0.5022  0.5479
  152DOPC   H3S18185   4.157   0.883  11.000 -0.0444  0.0589 -1.2797
  152DOPC   C2418186   4.009   0.737  10.928 -0.2596  0.2377 -0.4155
  152DOPC   H4R18187   3.912   0.789  10.944  0.3849  1.1415  0.7133
  152DOPC   H4S18188   3.983   0.629  10.942 -3.2885  0.8066 -0.8904
  152DOPC   C2518189   4.046   0.745  10.780 -0.6861 -0.8010 -0.0725
  152DOPC   H5R18190   4.128   0.671  10.764 -0.6650 -0.8238  0.1399
  152DOPC   H5S18191   4.078   0.849  10.760 -0.2471 -0.8641  0.2975
  152DOPC   C2618192   3.920   0.713  10.685 -0.3493 -0.6445 -0.4603
  152DOPC   H6R18193   3.843   0.790  10.707  0.4168 -0.1556  0.6203
  152DOPC   H6S18194   3.881   0.611  10.706 -0.5452 -0.2792  1.1629
  152DOPC   C2718195   3.943   0.729  10.537 -0.2005  0.6142  0.2779
  152DOPC   H7R18196   4.037   0.671  10.520 -0.8285 -0.5447  0.6217
  152DOPC   H7S18197   3.956   0.834  10.503 -1.3145  0.2457 -1.4014
  152DOPC   C2818198   3.832   0.673  10.439 -0.1877 -0.3202 -0.4751
  152DOPC   H8R18199   3.742   0.738  10.447  0.5039  0.6342 -0.2480
  152DOPC   H8S18200   3.812   0.570  10.476 -1.0200  0.2955  0.8557
  152DOPC   C2918201   3.882   0.698  10.297  0.4265 -0.4766 -0.2366
  152DOPC   H9R18202   3.936   0.793  10.285 -0.2831 -0.0816 -0.3513
  152DOPC  C21018203   3.881   0.612  10.189 -0.4763  0.0185 -0.4034
  152DOPC  H10R18204   3.927   0.640  10.093  2.7142  0.8204  1.2479
  152DOPC  C21118205   3.798   0.491  10.192  0.1945 -0.8448  0.4748
  152DOPC  H11R18206   3.721   0.500  10.272 -0.8499  2.3324 -0.7092
  152DOPC  H11S18207   3.859   0.399  10.202 -0.0136 -1.4480 -2.8607
  152DOPC  C21218208   3.717   0.479  10.063 -0.0021  0.5603 -0.4587
  152DOPC  H12R18209   3.667   0.380  10.062  1.0375 -0.1376  3.3140
  152DOPC  H12S18210   3.779   0.500   9.973 -1.0431 -1.8311 -1.8196
  152DOPC  C21318211   3.606   0.592  10.056 -0.4245 -0.0041  0.1155
  152DOPC  H13R18212   3.655   0.692  10.053  0.0099 -0.2371 -2.0714
  152DOPC  H13S18213   3.556   0.576  10.154  2.2763 -1.7897  1.3318
  152DOPC  C21418214   3.506   0.589   9.945 -0.1100  0.0203 -0.3375
  152DOPC  H14R18215   3.443   0.497   9.946  0.6793 -0.5298 -0.7170
  152DOPC  H14S18216   3.567   0.579   9.853  0.5237 -1.0411  0.1696
  152DOPC  C21518217   3.413   0.704   9.926 -0.3048 -0.3687 -0.0966
  152DOPC  H15R18218   3.466   0.791   9.882 -1.1886 -0.2759 -1.0296
  152DOPC  H15S18219   3.374   0.738  10.024 -0.3233  0.7159 -0.4568
  152DOPC  C21618220   3.296   0.686   9.829 -0.6088 -0.2073  0.4097
  152DOPC  H16R18221   3.340   0.620   9.751  0.1241 -0.0297  0.6663
  152DOPC  H16S18222   3.270   0.786   9.787  1.1009 -0.2362 -0.8287
  152DOPC  C21718223   3.168   0.637   9.882  0.6278  0.1071  0.5536
  152DOPC  H17R18224   3.144   0.694   9.974 -1.1353 -0.9467  0.7775
  152DOPC  H17S18225   3.176   0.531   9.914  0.0730  0.2349  1.1422
  152DOPC  C21818226   3.052   0.650   9.786 -0.1064 -0.3251  0.6105
  152DOPC  H18R18227   3.061   0.569   9.710 -0.7024  1.4349 -1.4252
  152DOPC  H18S18228   3.055   0.747   9.732 -1.8505 -0.4065  0.3133
  152DOPC  H18T18229   2.947   0.635   9.818  0.0376 -1.6264  0.5231
  152DOPC   C3318230   3.806   1.109  10.660 -0.0866 -0.0430 -0.0621
  152DOPC   H3X18231   3.717   1.073  10.716 -1.1600  0.6544 -1.2719
  152DOPC   H3Y18232   3.883   1.030  10.646  0.5209  0.8166 -1.9927
  152DOPC   C3418233   3.755   1.173  10.527  0.3021  0.9096  0.0427
  152DOPC   H4X18234   3.844   1.221  10.483 -0.1145  2.9660  1.3208
  152DOPC   H4Y18235   3.686   1.259  10.534 -0.4564  0.2228  1.4880
  152DOPC   C3518236   3.679   1.066  10.440  0.0733 -0.4171 -0.5277
  152DOPC   H5X18237   3.587   1.037  10.496  0.7396 -1.0487  0.2801
  152DOPC   H5Y18238   3.743   0.975  10.434 -1.5185 -1.7531  1.3396
  152DOPC   C3618239   3.654   1.107  10.294 -0.1294 -0.3211 -0.1945
  152DOPC   H6X18240   3.581   1.190  10.296  0.0157 -0.1846  2.2628
  152DOPC   H6Y18241   3.735   1.159  10.239 -1.0027  1.2822 -0.0014
  152DOPC   C3718242   3.615   0.985  10.206  0.3109  0.1337 -0.0594
  152DOPC   H7X18243   3.700   0.913  10.206 -1.7497 -2.4278 -0.4046
  152DOPC   H7Y18244   3.534   0.937  10.264  0.9595 -1.1837 -0.2181
  152DOPC   C3818245   3.576   1.012  10.058 -0.0464 -0.4012 -0.4842
  152DOPC   H8X18246   3.475   1.057  10.054  0.1855  0.1267 -0.5082
  152DOPC   H8Y18247   3.582   0.910  10.016  2.6867 -0.0038 -1.2372
  152DOPC   C3918248   3.675   1.098   9.995 -0.0476 -0.5982  0.3926
  152DOPC   H9X18249   3.770   1.055   9.961 -0.6429 -2.1644  0.6510
  152DOPC  C31018250   3.639   1.221   9.947 -0.2466  0.1844 -0.9608
  152DOPC  H10X18251   3.699   1.265   9.865  0.3637 -0.8913 -1.1220
  152DOPC  C31118252   3.508   1.298   9.973  0.1276 -0.1271 -0.1930
  152DOPC  H11X18253   3.497   1.294  10.083 -1.7196  2.1109 -0.2285
  152DOPC  H11Y18254   3.425   1.239   9.928 -0.4908  0.0545  0.6970
  152DOPC  C31218255   3.516   1.439   9.925 -0.3679 -0.3860  1.1712
  152DOPC  H12X18256   3.615   1.482   9.951 -0.5886 -0.1182  1.5793
  152DOPC  H12Y18257   3.436   1.502   9.968 -1.5914 -0.6863 -0.5453
  152DOPC  C31318258   3.496   1.453   9.770 -0.0094  0.8308  0.3139
  152DOPC  H13X18259   3.550   1.374   9.715 -0.6516  1.0386 -0.6357
  152DOPC  H13Y18260   3.389   1.430   9.749  0.2474 -2.1073  1.7569
  152DOPC  C31418261   3.539   1.587   9.708  0.5375 -0.0474 -0.6582
  152DOPC  H14X18262   3.467   1.665   9.743  0.5759  0.5559 -1.8398
  152DOPC  H14Y18263   3.642   1.624   9.726  1.0346 -1.0476 -1.3598
  152DOPC  C31518264   3.530   1.581   9.557  0.5406 -0.1417  0.6166
  152DOPC  H15X18265   3.435   1.539   9.519  0.4633  1.6330 -1.4139
  152DOPC  H15Y18266   3.615   1.518   9.523 -1.9850 -2.3178 -2.1204
  152DOPC  C31618267   3.532   1.716   9.486  0.0031 -0.1164 -0.6564
  152DOPC  H16X18268   3.554   1.718   9.377  0.5822  2.2503 -0.5481
  152DOPC  H16Y18269   3.444   1.778   9.512  0.5305  0.0197  0.8933
  152DOPC  C31718270   3.654   1.809   9.524 -0.1834  0.1590 -0.2631
  152DOPC  H17X18271   3.648   1.900   9.461  0.9240  1.9484  2.0549
  152DOPC  H17Y18272   3.631   1.840   9.628 -0.0077 -0.1327 -0.1353
  152DOPC  C31818273   3.793   1.757   9.489  0.4386 -0.5483  0.4251
  152DOPC  H18X18274   3.813   1.664   9.547 -1.0051  0.1035  2.0759
  152DOPC  H18Y18275   3.794   1.737   9.380 -1.4672  1.6875 -0.0806
  152DOPC  H18Z18276   3.862   1.837   9.525  2.4621 -1.3373 -1.5208
  153DOPC     N18277   4.686   6.130  11.288  0.0512  0.3673 -0.3601
  153DOPC   C1218278   4.680   6.156  11.137 -0.0375  0.3270 -0.6435
  153DOPC  H12A18279   4.577   6.175  11.113  0.2829  2.0298 -0.7904
  153DOPC  H12B18280   4.719   6.070  11.085  3.3158  0.8173  0.7830
  153DOPC   C1318281   4.820   6.143  11.356  0.1008  0.3032 -0.0761
  153DOPC  H13A18282   4.857   6.241  11.329 -1.0705  0.7343 -0.1892
  153DOPC  H13B18283   4.823   6.143  11.464  3.2808  0.1112 -0.0661
  153DOPC  H13C18284   4.888   6.065  11.326  0.5008  0.6970 -0.2128
  153DOPC   C1418285   4.641   5.986  11.308 -0.8259  0.0546 -0.1269
  153DOPC  H14A18286   4.635   5.971  11.415  0.4127  1.6919  0.2090
  153DOPC  H14B18287   4.543   5.960  11.270 -0.6216  0.4079 -0.9134
  153DOPC  H14C18288   4.704   5.911  11.261 -4.0183 -2.3956 -0.8634
  153DOPC   C1518289   4.585   6.221  11.359  0.4418 -0.7876  0.0187
  153DOPC  H15A18290   4.625   6.322  11.363 -1.3127 -0.0105 -0.9872
  153DOPC  H15B18291   4.549   6.189  11.456 -1.4819 -0.4896 -0.5496
  153DOPC  H15C18292   4.496   6.237  11.300  1.0141  1.0559 -0.4162
  153DOPC   C1118293   4.765   6.274  11.082 -0.4208 -0.1101  0.8120
  153DOPC  H11A18294   4.873   6.257  11.101  0.0411  1.3667 -0.3431
  153DOPC  H11B18295   4.765   6.268  10.971  1.5103 -1.1367  0.8167
  153DOPC     P18296   4.592   6.472  11.078 -0.2468 -0.1944 -0.2698
  153DOPC   O1318297   4.577   6.609  11.124 -0.3250 -0.2013  0.6268
  153DOPC   O1418298   4.484   6.383  11.117  0.3369  0.0607  0.2505
  153DOPC   O1218299   4.721   6.400  11.132  0.0492  0.2955 -0.3514
  153DOPC   O1118300   4.604   6.463  10.923  0.2580  0.0600  0.0809
  153DOPC    C118301   4.710   6.533  10.857 -0.2145  0.0535 -0.3805
  153DOPC    HA18302   4.805   6.489  10.894  1.3074  2.7060 -0.8482
  153DOPC    HB18303   4.699   6.639  10.890 -3.2213 -0.2428 -0.2097
  153DOPC    C218304   4.709   6.511  10.701  0.0888 -0.1222  0.5117
  153DOPC    HS18305   4.793   6.572  10.661  0.3391 -1.1504 -0.5817
  153DOPC   O2118306   4.589   6.552  10.635 -0.2169  0.0707  0.1430
  153DOPC   C2118307   4.571   6.673  10.624  0.0406 -0.4708  0.1345
  153DOPC   O2218308   4.646   6.769  10.649 -0.1098  0.3817 -0.4725
  153DOPC   C2218309   4.434   6.690  10.553 -0.7562 -0.9940  0.0306
  153DOPC   H2R18310   4.386   6.789  10.571 -0.9973 -1.2174  0.6176
  153DOPC   H2S18311   4.364   6.625  10.608 -1.9109  1.3557  1.5084
  153DOPC    C318312   4.748   6.368  10.657  0.1030  0.3596  0.1421
  153DOPC    HX18313   4.699   6.294  10.724 -2.3374  2.2801  0.6232
  153DOPC    HY18314   4.853   6.356  10.693 -0.6159  2.1281  3.0919
  153DOPC   O3118315   4.732   6.337  10.513 -0.2304  0.1893  0.2082
  153DOPC   C3118316   4.619   6.281  10.490  0.2110  0.3029  0.1420
  153DOPC   O3218317   4.531   6.250  10.569 -0.1205  0.1645 -0.0059
  153DOPC   C3218318   4.610   6.251  10.341 -0.1856  0.1013  0.0763
  153DOPC   H2X18319   4.625   6.351  10.294 -0.9002  0.9834  1.6720
  153DOPC   H2Y18320   4.700   6.192  10.312  1.4748  1.7757  1.5397
  153DOPC   C2318321   4.446   6.673  10.399  0.3983  0.0569  0.0629
  153DOPC   H3R18322   4.472   6.568  10.375  0.3577 -0.3930  1.8398
  153DOPC   H3S18323   4.529   6.742  10.371 -0.1784  0.6198 -0.2832
  153DOPC   C2418324   4.331   6.722  10.313  0.3587 -0.6962  1.1742
  153DOPC   H4R18325   4.371   6.737  10.211  0.2473 -0.9880  1.0877
  153DOPC   H4S18326   4.277   6.813  10.347  2.5602  0.7945  0.8830
  153DOPC   C2518327   4.216   6.615  10.303  0.2298 -0.8505  0.2081
  153DOPC   H5R18328   4.155   6.604  10.396  0.8385  1.5063  0.9523
  153DOPC   H5S18329   4.267   6.518  10.287  2.5542  0.6418 -2.0371
  153DOPC   C2618330   4.114   6.650  10.186  0.5038 -0.0172 -0.2999
  153DOPC   H6R18331   4.058   6.557  10.162  2.4031 -0.8279 -1.8661
  153DOPC   H6S18332   4.179   6.666  10.098  1.4059  0.6889  0.4697
  153DOPC   C2718333   4.007   6.755  10.213  0.2199  0.1870 -0.1755
  153DOPC   H7R18334   4.058   6.852  10.232 -0.5016  1.2583 -3.1415
  153DOPC   H7S18335   3.939   6.719  10.293  1.3201  1.0179  1.1845
  153DOPC   C2818336   3.944   6.794  10.081  0.1177  0.2394  0.0749
  153DOPC   H8R18337   4.020   6.804  10.002 -0.8831  1.4880 -0.7738
  153DOPC   H8S18338   3.889   6.889  10.098  0.9160  0.7059  0.1033
  153DOPC   C2918339   3.849   6.687  10.025 -0.4238  0.1440  0.5836
  153DOPC   H9R18340   3.888   6.590   9.989 -1.5820  0.0653 -0.5387
  153DOPC  C21018341   3.724   6.702   9.986  0.7379 -0.3993 -0.3367
  153DOPC  H10R18342   3.665   6.615   9.955  0.9900 -1.1461  1.2016
  153DOPC  C21118343   3.649   6.828  10.022 -0.2243 -0.9207  0.3139
  153DOPC  H11R18344   3.676   6.872  10.121  1.8348  1.0319 -1.0194
  153DOPC  H11S18345   3.539   6.810  10.014 -0.5963  1.8031 -2.5525
  153DOPC  C21218346   3.676   6.943   9.926 -0.3449 -0.2150 -0.0016
  153DOPC  H12R18347   3.780   6.962   9.891 -0.7750 -1.6924 -2.2941
  153DOPC  H12S18348   3.633   7.031   9.979  0.3029  0.1375 -0.0510
  153DOPC  C21318349   3.598   6.933   9.801  0.2275 -0.0028  0.4232
  153DOPC  H13R18350   3.615   7.029   9.748  2.5384 -0.8570 -0.5021
  153DOPC  H13S18351   3.491   6.910   9.821  0.5493 -0.5807  1.6031
  153DOPC  C21418352   3.664   6.827   9.709  0.3761 -0.0717  0.0950
  153DOPC  H14R18353   3.642   6.722   9.737  0.9307 -0.9978 -2.5837
  153DOPC  H14S18354   3.774   6.840   9.712  0.2294  1.8846 -0.7730
  153DOPC  C21518355   3.609   6.847   9.566 -0.2059  0.1436  0.1140
  153DOPC  H15R18356   3.678   6.917   9.515  1.1890 -1.1266  0.1959
  153DOPC  H15S18357   3.506   6.887   9.565 -0.8233 -1.3868 -0.0227
  153DOPC  C21618358   3.592   6.712   9.487 -0.6761 -0.2115  0.0344
  153DOPC  H16R18359   3.533   6.640   9.548 -0.0066  1.4696  2.8669
  153DOPC  H16S18360   3.692   6.670   9.466  0.3326  3.1162 -2.7342
  153DOPC  C21718361   3.534   6.737   9.349  0.3115 -1.1197  0.5533
  153DOPC  H17R18362   3.568   6.835   9.309  0.7088 -0.6259  2.0210
  153DOPC  H17S18363   3.426   6.746   9.375  0.0167 -0.4615 -0.8282
  153DOPC  C21818364   3.552   6.625   9.251 -0.1358 -0.4699  0.0580
  153DOPC  H18R18365   3.525   6.662   9.149 -0.3737  1.9342  0.9256
  153DOPC  H18S18366   3.485   6.542   9.281  1.3850 -2.0676 -0.8156
  153DOPC  H18T18367   3.658   6.593   9.241  0.0572 -0.0194  0.6427
  153DOPC   C3318368   4.475   6.193  10.288  0.2176 -0.0110 -0.0734
  153DOPC   H3X18369   4.389   6.247  10.333  1.6655  2.4038 -0.0411
  153DOPC   H3Y18370   4.459   6.087  10.316  0.6187 -0.3992 -1.2610
  153DOPC   C3418371   4.479   6.198  10.134  0.1652 -0.2048  0.0975
  153DOPC   H4X18372   4.485   6.301  10.091  2.9233 -0.5874 -0.6569
  153DOPC   H4Y18373   4.384   6.153  10.098  0.5011 -0.9662  0.1419
  153DOPC   C3518374   4.605   6.132  10.078 -0.4825  0.1289 -1.0026
  153DOPC   H5X18375   4.632   6.055  10.153 -1.8557 -1.8358 -2.4349
  153DOPC   H5Y18376   4.691   6.200  10.092 -1.0330  0.4006  1.6494
  153DOPC   C3618377   4.596   6.077   9.941  0.2707 -0.2042 -0.2778
  153DOPC   H6X18378   4.490   6.047   9.922  0.4149 -1.1760  0.3521
  153DOPC   H6Y18379   4.637   6.147   9.866  0.1054 -0.7934 -0.9368
  153DOPC   C3718380   4.671   5.945   9.925  0.5675 -0.2288 -0.1019
  153DOPC   H7X18381   4.777   5.967   9.951  0.1227 -0.3098  1.9747
  153DOPC   H7Y18382   4.628   5.860   9.982  1.0959  0.2031  0.9824
  153DOPC   C3818383   4.689   5.891   9.777 -0.0483  0.0599  0.4143
  153DOPC   H8X18384   4.771   5.817   9.788  0.0028 -0.5677 -3.1108
  153DOPC   H8Y18385   4.748   5.970   9.724  0.1305 -0.5970 -0.3911
  153DOPC   C3918386   4.577   5.831   9.696  0.2841  0.1807  0.6567
  153DOPC   H9X18387   4.512   5.755   9.742 -0.2348  1.1318  1.5539
  153DOPC  C31018388   4.534   5.888   9.583 -0.3043 -0.0402  0.2938
  153DOPC  H10X18389   4.436   5.855   9.545 -0.4692  1.4872 -0.7117
  153DOPC  C31118390   4.584   6.011   9.511  0.5707 -0.2734 -0.2163
  153DOPC  H11X18391   4.683   6.052   9.541  0.1733  0.9040 -0.4743
  153DOPC  H11Y18392   4.502   6.086   9.521  2.1228  1.6952 -1.4583
  153DOPC  C31218393   4.598   5.978   9.356  0.4108 -0.1702 -0.2185
  153DOPC  H12X18394   4.604   6.070   9.294  0.1929 -0.9027 -1.3508
  153DOPC  H12Y18395   4.505   5.935   9.312  0.1805  0.3401 -0.2364
  153DOPC  C31318396   4.714   5.884   9.316 -0.5150  0.8212  0.2185
  153DOPC  H13X18397   4.805   5.947   9.327  0.2488 -0.1560 -0.3218
  153DOPC  H13Y18398   4.739   5.795   9.378  0.1269  0.4948 -0.4850
  153DOPC  C31418399   4.725   5.866   9.163  0.0829  0.2970 -0.2674
  153DOPC  H14X18400   4.643   5.796   9.135 -0.6994  1.2928 -0.5467
  153DOPC  H14Y18401   4.711   5.971   9.130 -0.1773  1.2062  2.5072
  153DOPC  C31518402   4.866   5.815   9.121 -0.0952  0.0267  0.2572
  153DOPC  H15X18403   4.896   5.732   9.188  1.3299 -0.4474 -0.9082
  153DOPC  H15Y18404   4.933   5.898   9.151  1.1899 -0.4997 -1.0256
  153DOPC  C31618405   4.881   5.772   8.970  0.4913 -0.6274 -0.2379
  153DOPC  H16X18406   4.871   5.852   8.894  0.9290 -1.7898 -1.5815
  153DOPC  H16Y18407   4.987   5.742   8.959  1.2151  2.1152 -1.5128
  153DOPC  C31718408   4.769   5.668   8.920  0.1787  0.3994  0.4625
  153DOPC  H17X18409   4.754   5.586   8.993  2.6452  0.9306  1.6766
  153DOPC  H17Y18410   4.671   5.721   8.920  0.1768  0.4797 -1.9690
  153DOPC  C31818411   4.794   5.611   8.778 -0.8882  0.0742 -0.1069
  153DOPC  H18X18412   4.881   5.541   8.783  0.3637  1.6126  0.2706
  153DOPC  H18Y18413   4.706   5.553   8.743 -0.4766 -1.6662  1.5324
  153DOPC  H18Z18414   4.815   5.690   8.704 -1.3536 -0.9332 -1.3430
  154DOPC     N18415   6.650   3.215  11.470 -0.5817 -0.4098 -0.3842
  154DOPC   C1218416   6.542   3.328  11.466  0.2934  0.1902 -0.3717
  154DOPC  H12A18417   6.532   3.380  11.372 -2.2692  0.2172 -0.1498
  154DOPC  H12B18418   6.573   3.404  11.537 -2.1140 -0.5614  1.6043
  154DOPC   C1318419   6.590   3.098  11.389  0.3984 -0.2659 -0.0245
  154DOPC  H13A18420   6.563   3.128  11.289 -2.2176  0.4284  0.8165
  154DOPC  H13B18421   6.650   3.008  11.383  1.3935  0.4043 -0.5091
  154DOPC  H13C18422   6.506   3.068  11.449  0.3213  1.7299  0.9681
  154DOPC   C1418423   6.682   3.170  11.608 -0.3374  0.5254  0.0583
  154DOPC  H14A18424   6.600   3.137  11.669  1.6038 -0.6297  2.1768
  154DOPC  H14B18425   6.751   3.088  11.604 -0.6656  0.2385  0.2839
  154DOPC  H14C18426   6.735   3.248  11.661 -1.1769  1.3131 -0.2347
  154DOPC   C1518427   6.776   3.260  11.394  0.1240  0.1760  0.6106
  154DOPC  H15A18428   6.852   3.183  11.385  0.5411  0.4745  1.4867
  154DOPC  H15B18429   6.829   3.334  11.452  1.6830 -1.5695  1.5164
  154DOPC  H15C18430   6.756   3.298  11.295  1.3213  1.0927  0.6932
  154DOPC   C1118431   6.399   3.279  11.510 -0.0266 -0.0981  0.1675
  154DOPC  H11A18432   6.402   3.206  11.594 -0.6617 -0.8099 -0.4170
  154DOPC  H11B18433   6.339   3.364  11.549  3.7265  3.2498 -0.6423
  154DOPC     P18434   6.296   3.325  11.271  0.2043 -0.0344  0.5002
  154DOPC   O1318435   6.423   3.348  11.203 -0.9471 -0.1596 -0.2710
  154DOPC   O1418436   6.233   3.442  11.328 -0.1496  0.0720 -0.4890
  154DOPC   O1218437   6.336   3.230  11.394 -0.1185  0.0018 -0.0982
  154DOPC   O1118438   6.199   3.245  11.165 -0.0212  0.2219 -0.0194
  154DOPC    C118439   6.212   3.103  11.165 -0.3265 -0.2357  0.0568
  154DOPC    HA18440   6.172   3.064  11.262  1.3323 -0.6112  0.6153
  154DOPC    HB18441   6.318   3.076  11.149  0.2331  1.8629 -0.0760
  154DOPC    C218442   6.145   3.045  11.041 -0.3707 -0.7540  0.0879
  154DOPC    HS18443   6.151   2.934  11.041  0.5848 -0.7408 -2.0358
  154DOPC   O2118444   6.207   3.101  10.920 -0.5120  0.1840 -0.0553
  154DOPC   C2118445   6.328   3.043  10.901 -0.3944  0.1713 -0.3116
  154DOPC   O2218446   6.375   2.944  10.959  0.1208 -0.0382  0.4597
  154DOPC   C2218447   6.394   3.118  10.779  0.4349 -0.4915  0.3854
  154DOPC   H2R18448   6.391   3.224  10.812  2.1162  0.0979 -1.1840
  154DOPC   H2S18449   6.319   3.102  10.698  0.6473 -1.1107  0.3057
  154DOPC    C318450   5.995   3.076  11.032 -0.0353  0.7169  0.0994
  154DOPC    HX18451   5.981   3.185  11.046  0.0323  0.5861  1.2323
  154DOPC    HY18452   5.945   3.028  11.118  1.9926 -1.0918  0.3788
  154DOPC   O3118453   5.936   3.050  10.899 -0.1412  0.5353 -0.5618
  154DOPC   C3118454   5.808   3.029  10.891 -0.2655  0.3297 -0.2235
  154DOPC   O3218455   5.736   3.026  10.990  0.0989  0.3788  0.8125
  154DOPC   C3218456   5.765   3.012  10.744 -0.0671 -0.2231  0.0628
  154DOPC   H2X18457   5.850   3.016  10.673 -1.0696 -0.8605 -1.1991
  154DOPC   H2Y18458   5.734   2.906  10.730  0.4245 -0.3903  0.2000
  154DOPC   C2318459   6.532   3.073  10.744  0.3037  0.0432 -0.4525
  154DOPC   H3R18460   6.542   2.963  10.729  0.5461  0.3582 -3.0668
  154DOPC   H3S18461   6.608   3.095  10.822  0.5986  1.6731 -1.1536
  154DOPC   C2418462   6.582   3.146  10.622  0.1975 -0.0451 -0.2593
  154DOPC   H4R18463   6.629   3.238  10.661 -0.5243  0.0913  0.2883
  154DOPC   H4S18464   6.504   3.190  10.556  1.2086  0.6007 -1.0552
  154DOPC   C2518465   6.682   3.067  10.537 -0.1431  0.7120 -0.5498
  154DOPC   H5R18466   6.755   3.034  10.614 -0.9856  1.8358  0.7677
  154DOPC   H5S18467   6.736   3.136  10.469  3.6033  0.0354  1.5107
  154DOPC   C2618468   6.627   2.937  10.466  0.7154  0.1629 -0.0288
  154DOPC   H6R18469   6.583   2.870  10.543  2.0615  1.4962  2.0037
  154DOPC   H6S18470   6.714   2.885  10.419  1.3897  1.6623 -0.4937
  154DOPC   C2718471   6.529   2.960  10.358 -0.4691 -0.3338  0.7231
  154DOPC   H7R18472   6.563   3.042  10.291 -1.0816 -0.5738  0.0969
  154DOPC   H7S18473   6.427   2.995  10.385 -1.4786  2.0417 -4.7892
  154DOPC   C2818474   6.504   2.841  10.261 -0.0070 -0.0025  0.0033
  154DOPC   H8R18475   6.437   2.760  10.298  0.8960  0.2514  2.3863
  154DOPC   H8S18476   6.590   2.770  10.258  0.2976  0.2309  1.7108
  154DOPC   C2918477   6.465   2.881  10.116  0.3954 -0.8219 -0.1356
  154DOPC   H9R18478   6.357   2.896  10.104  0.7158  1.5979 -0.6030
  154DOPC  C21018479   6.544   2.900  10.011  0.4449  0.1812 -0.6167
  154DOPC  H10R18480   6.488   2.917   9.918 -2.4039 -1.0853  0.7591
  154DOPC  C21118481   6.694   2.904   9.999  0.6387 -0.1570  0.2773
  154DOPC  H11R18482   6.725   2.797   9.987  0.7546 -0.1337  0.3683
  154DOPC  H11S18483   6.742   2.933  10.095  0.1662 -0.1817  0.5204
  154DOPC  C21218484   6.733   2.982   9.869 -0.1130 -0.8047  0.5834
  154DOPC  H12R18485   6.725   2.915   9.781  0.4302 -0.9613  0.6472
  154DOPC  H12S18486   6.843   2.981   9.884 -0.1241 -1.4897  0.6552
  154DOPC  C21318487   6.686   3.125   9.855  0.4368  0.3775 -0.1886
  154DOPC  H13R18488   6.723   3.178   9.945  2.5970 -2.2174  0.5831
  154DOPC  H13S18489   6.576   3.129   9.866  0.4178  0.8408 -0.5044
  154DOPC  C21418490   6.729   3.177   9.721  0.4725  0.4919 -0.2560
  154DOPC  H14R18491   6.694   3.109   9.641  0.1832  1.2659 -0.7907
  154DOPC  H14S18492   6.840   3.168   9.715  0.7056  0.7872  2.2879
  154DOPC  C21518493   6.666   3.315   9.696  0.3987 -0.0390 -0.2919
  154DOPC  H15R18494   6.688   3.372   9.789 -1.5709 -2.4383  1.8099
  154DOPC  H15S18495   6.558   3.290   9.703  0.5512 -0.7119 -0.2857
  154DOPC  C21618496   6.708   3.372   9.561  0.5728  0.6814 -0.1965
  154DOPC  H16R18497   6.814   3.345   9.542  0.3542  1.0028 -2.0805
  154DOPC  H16S18498   6.704   3.483   9.560 -0.0621  0.6659 -0.2130
  154DOPC  C21718499   6.620   3.328   9.444 -0.5070  0.2041  0.1597
  154DOPC  H17R18500   6.622   3.217   9.434  1.0390  0.2636 -0.4622
  154DOPC  H17S18501   6.679   3.368   9.358  2.6192 -1.6372  1.2770
  154DOPC  C21818502   6.479   3.385   9.446 -0.0274  0.5738  0.4943
  154DOPC  H18R18503   6.475   3.494   9.463  0.0337  0.3203  2.2771
  154DOPC  H18S18504   6.423   3.340   9.531 -0.3461  1.1475  0.5930
  154DOPC  H18T18505   6.424   3.359   9.353  0.9920  1.0826 -0.2656
  154DOPC   C3318506   5.647   3.091  10.693  0.4113 -0.6114  0.1471
  154DOPC   H3X18507   5.671   3.199  10.693 -2.4343  0.1260 -0.6331
  154DOPC   H3Y18508   5.557   3.080  10.758  0.1077 -0.0539 -0.1738
  154DOPC   C3418509   5.609   3.031  10.555 -0.2327  0.4030 -0.2779
  154DOPC   H4X18510   5.560   2.933  10.572  0.9223  0.2285  2.6521
  154DOPC   H4Y18511   5.704   3.015  10.499 -0.0357  0.7090 -0.0329
  154DOPC   C3518512   5.512   3.127  10.481 -0.4153  0.0801 -0.4211
  154DOPC   H5X18513   5.567   3.222  10.461  0.7273 -0.4257  0.2317
  154DOPC   H5Y18514   5.434   3.151  10.557 -0.2930 -0.7546 -0.0211
  154DOPC   C3618515   5.441   3.062  10.366 -0.0091 -0.1232 -0.2586
  154DOPC   H6X18516   5.407   2.966  10.410  2.9353 -0.8458  0.6824
  154DOPC   H6Y18517   5.351   3.126  10.352 -1.2286 -1.4527  1.1065
  154DOPC   C3718518   5.520   3.047  10.236  0.1965 -0.3490 -0.3027
  154DOPC   H7X18519   5.540   3.149  10.198 -1.4099  0.2519  0.3479
  154DOPC   H7Y18520   5.610   2.991  10.270 -0.6622 -0.7308  1.4945
  154DOPC   C3818521   5.460   2.980  10.117  0.0358 -0.1528 -0.5856
  154DOPC   H8X18522   5.376   3.046  10.088  0.6598  1.9543  1.9631
  154DOPC   H8Y18523   5.422   2.878  10.138 -0.9579  0.7430  2.4426
  154DOPC   C3918524   5.549   2.980  10.000 -0.4525  0.6331 -0.2741
  154DOPC   H9X18525   5.655   3.005  10.013 -0.5074  0.4499  0.6050
  154DOPC  C31018526   5.504   2.941   9.883  0.5213  0.6842 -0.4073
  154DOPC  H10X18527   5.570   2.941   9.794 -0.3458  0.2352 -1.0605
  154DOPC  C31118528   5.361   2.913   9.846 -0.2245  0.1935 -0.3335
  154DOPC  H11X18529   5.295   2.889   9.932 -0.5484  2.4289  0.0909
  154DOPC  H11Y18530   5.373   2.822   9.783  0.7108 -0.1652  0.3355
  154DOPC  C31218531   5.294   3.033   9.768 -0.1677  0.2473  0.0480
  154DOPC  H12X18532   5.357   3.044   9.678  1.6351  0.0406  1.2296
  154DOPC  H12Y18533   5.306   3.124   9.832 -0.8775  1.2201 -1.1586
  154DOPC  C31318534   5.152   3.016   9.735  0.5574 -1.0256 -0.3520
  154DOPC  H13X18535   5.098   2.970   9.820 -0.6889 -3.3994 -2.2775
  154DOPC  H13Y18536   5.103   3.114   9.716 -0.4331 -1.5091 -0.4026
  154DOPC  C31418537   5.117   2.954   9.605  0.9282 -0.3647 -0.3605
  154DOPC  H14X18538   5.137   3.040   9.538 -3.1113  0.2034 -1.0831
  154DOPC  H14Y18539   5.184   2.866   9.601  0.6335 -0.7744  2.0497
  154DOPC  C31518540   4.965   2.906   9.583  0.0606  0.0922 -0.2905
  154DOPC  H15X18541   4.901   2.992   9.610  0.1660  0.7792 -2.0667
  154DOPC  H15Y18542   4.942   2.813   9.639 -0.9864  0.0760 -0.7377
  154DOPC  C31618543   4.956   2.874   9.436  0.5613  0.3085  0.0132
  154DOPC  H16X18544   4.970   2.970   9.381  1.0380 -1.8008 -3.9112
  154DOPC  H16Y18545   5.036   2.799   9.418  0.1506 -0.6930  1.9993
  154DOPC  C31718546   4.825   2.814   9.401 -0.2175  0.0574  0.0240
  154DOPC  H17X18547   4.741   2.872   9.444 -0.7854 -0.4104 -0.4493
  154DOPC  H17Y18548   4.812   2.814   9.291 -0.2009 -0.8885  0.0078
  154DOPC  C31818549   4.809   2.667   9.455  0.2928  0.1167  0.1833
  154DOPC  H18X18550   4.817   2.669   9.566 -1.4553  0.0865  0.3236
  154DOPC  H18Y18551   4.710   2.633   9.419  0.0455 -0.8910  1.7184
  154DOPC  H18Z18552   4.888   2.594   9.426  0.2278  0.0684  0.1266
  155DOPC     N18553   1.836   1.897  11.834  0.1744 -0.0972 -0.2675
  155DOPC   C1218554   1.732   1.918  11.725  0.1786  0.3391 -0.3279
  155DOPC  H12A18555   1.676   2.008  11.746 -0.2809  0.0533 -0.3017
  155DOPC  H12B18556   1.666   1.834  11.744  1.0009 -0.4329 -0.8415
  155DOPC   C1318557   1.779   1.899  11.971  0.2543 -0.0961  0.1388
  155DOPC  H13A18558   1.859   1.891  12.043  2.6103 -0.6057 -2.3571
  155DOPC  H13B18559   1.718   1.984  11.996  0.8921  1.1967 -2.3760
  155DOPC  H13C18560   1.723   1.807  11.983  1.9848 -1.5993 -2.2175
  155DOPC   C1418561   1.945   1.998  11.836  0.0086 -0.3107 -0.1694
  155DOPC  H14A18562   1.899   2.095  11.847  0.4557 -0.0541 -0.5037
  155DOPC  H14B18563   2.017   1.984  11.915  0.3628 -1.2882 -0.6478
  155DOPC  H14C18564   1.999   2.002  11.742  0.1332  0.4951 -0.0686
  155DOPC   C1518565   1.898   1.757  11.820 -0.4561 -0.1610 -0.3316
  155DOPC  H15A18566   1.955   1.737  11.910 -2.6801 -0.2972  1.1247
  155DOPC  H15B18567   1.955   1.754  11.729 -0.9251  1.3291 -0.7086
  155DOPC  H15C18568   1.821   1.682  11.822 -3.0094  2.2875 -0.5500
  155DOPC   C1118569   1.765   1.911  11.575  0.4031 -0.1393 -0.2539
  155DOPC  H11A18570   1.821   1.820  11.544  0.2952 -1.7525  3.6828
  155DOPC  H11B18571   1.665   1.913  11.527 -0.3656 -0.8708  1.2467
  155DOPC     P18572   1.874   2.058  11.391 -0.0952  0.2430  0.3089
  155DOPC   O1318573   1.960   1.949  11.335  0.1407  0.1126 -0.2003
  155DOPC   O1418574   1.925   2.192  11.382  0.3268  0.0044  0.0172
  155DOPC   O1218575   1.841   2.025  11.540  0.0750 -0.6267  0.2006
  155DOPC   O1118576   1.736   2.044  11.317 -0.0727 -0.5445 -0.1020
  155DOPC    C118577   1.700   1.965  11.201 -0.5731  0.8813 -0.2029
  155DOPC    HA18578   1.596   1.992  11.170 -0.4431 -0.0212 -1.5106
  155DOPC    HB18579   1.704   1.856  11.223 -0.0328  0.6575 -1.3533
  155DOPC    C218580   1.790   2.008  11.078  0.3503 -0.3074 -0.0184
  155DOPC    HS18581   1.897   1.982  11.092  0.9300  0.5576 -2.3181
  155DOPC   O2118582   1.779   2.155  11.061  0.4868 -0.7245 -0.6056
  155DOPC   C2118583   1.890   2.223  11.038 -0.1788  0.2639  0.0310
  155DOPC   O2218584   1.998   2.169  11.035  0.3540  0.4872  0.2674
  155DOPC   C2218585   1.876   2.377  11.025  0.0951  0.0112 -0.1229
  155DOPC   H2R18586   1.978   2.419  11.037 -0.1575  0.3581  0.9132
  155DOPC   H2S18587   1.796   2.412  11.094  0.4867  2.1439 -0.6706
  155DOPC    C318588   1.754   1.926  10.956 -0.5728  0.0023  0.2090
  155DOPC    HX18589   1.645   1.938  10.939 -0.2985  0.3227 -1.4905
  155DOPC    HY18590   1.768   1.818  10.979 -1.4932 -0.0270  0.7038
  155DOPC   O3118591   1.808   1.978  10.830  0.7066  0.0842 -0.8698
  155DOPC   C3118592   1.939   1.951  10.825  0.2964 -0.4903  1.1102
  155DOPC   O3218593   1.997   1.871  10.895  0.3454 -0.3016  0.1182
  155DOPC   C3218594   2.005   2.035  10.714  0.2972 -0.8939  0.0674
  155DOPC   H2X18595   1.984   2.142  10.734  1.4370 -0.7333  0.4363
  155DOPC   H2Y18596   2.115   2.027  10.724  0.4690  1.0687  0.0819
  155DOPC   C2318597   1.822   2.413  10.887 -0.7182  0.1606 -0.3966
  155DOPC   H3R18598   1.721   2.372  10.869 -1.4015  0.6106  2.0622
  155DOPC   H3S18599   1.892   2.373  10.811  0.5521  1.0471  0.2623
  155DOPC   C2418600   1.791   2.561  10.858  0.0194  0.0298  0.6885
  155DOPC   H4R18601   1.872   2.634  10.880  0.1033 -0.5344  2.4208
  155DOPC   H4S18602   1.709   2.587  10.929  0.8519  0.3823  1.5515
  155DOPC   C2518603   1.751   2.581  10.711  0.6747  0.5212 -0.0921
  155DOPC   H5R18604   1.644   2.610  10.723  1.2624  3.6004 -1.4047
  155DOPC   H5S18605   1.761   2.488  10.651  0.2685  0.3861  0.0407
  155DOPC   C2618606   1.815   2.695  10.635 -0.3137 -0.4268 -0.6255
  155DOPC   H6R18607   1.926   2.697  10.636 -0.2668 -0.6182 -2.3573
  155DOPC   H6S18608   1.781   2.787  10.687  2.6751 -0.4638  1.6529
  155DOPC   C2718609   1.765   2.699  10.492  0.1771  0.2705 -0.3488
  155DOPC   H7R18610   1.656   2.722  10.488  0.1947  0.3067 -0.6558
  155DOPC   H7S18611   1.772   2.603  10.438 -1.7558 -1.8593  2.8268
  155DOPC   C2818612   1.827   2.824  10.414  0.2730  0.2342 -0.0919
  155DOPC   H8R18613   1.938   2.822  10.423  0.3433  1.7061 -0.3035
  155DOPC   H8S18614   1.801   2.912  10.478  1.2691 -1.3643  2.6820
  155DOPC   C2918615   1.777   2.842  10.274 -0.2799 -0.9250  0.6658
  155DOPC   H9R18616   1.672   2.873  10.262  0.5975  1.5850 -1.7585
  155DOPC  C21018617   1.841   2.840  10.156  0.1381 -0.7158 -0.1302
  155DOPC  H10R18618   1.777   2.829  10.068 -0.8273  0.6645  0.3581
  155DOPC  C21118619   1.983   2.792  10.141  0.1855 -0.5889  0.2723
  155DOPC  H11R18620   1.985   2.690  10.185  2.1931 -0.6897  0.0364
  155DOPC  H11S18621   2.056   2.861  10.188 -0.0093  0.0602 -0.3516
  155DOPC  C21218622   2.030   2.771  10.001 -0.3178 -0.0259 -0.2203
  155DOPC  H12R18623   2.046   2.867   9.947  0.7574  0.5160  1.0110
  155DOPC  H12S18624   1.956   2.707   9.948 -1.2706 -0.2438  1.3409
  155DOPC  C21318625   2.171   2.706   9.992  0.2911 -0.3875 -0.3480
  155DOPC  H13R18626   2.172   2.616  10.058 -2.2537 -0.4707 -0.3214
  155DOPC  H13S18627   2.245   2.784  10.021 -1.7376  0.8922  1.7260
  155DOPC  C21418628   2.213   2.664   9.848 -0.2763 -0.8632 -0.3356
  155DOPC  H14R18629   2.217   2.744   9.771 -0.1621 -0.9405 -0.4098
  155DOPC  H14S18630   2.142   2.591   9.804 -1.4715 -0.4131  0.7488
  155DOPC  C21518631   2.365   2.637   9.840  0.5709  0.0380 -0.2188
  155DOPC  H15R18632   2.415   2.715   9.901 -0.3358  2.1954 -2.0922
  155DOPC  H15S18633   2.400   2.639   9.734  1.3914  1.5245  0.0512
  155DOPC  C21618634   2.395   2.509   9.912 -0.2330  0.8180  0.7317
  155DOPC  H16R18635   2.365   2.433   9.837 -2.8105  1.5339  0.9487
  155DOPC  H16S18636   2.338   2.500  10.006 -1.0157 -1.1784  0.1219
  155DOPC  C21718637   2.537   2.493   9.956  0.1451 -0.4467  0.1994
  155DOPC  H17R18638   2.610   2.498   9.873  1.5617 -2.1817  1.2591
  155DOPC  H17S18639   2.553   2.393  10.003 -0.1674 -0.0662  1.1311
  155DOPC  C21818640   2.584   2.594  10.072  0.2263 -0.3518 -0.2630
  155DOPC  H18R18641   2.560   2.696  10.033 -0.2078 -0.4926 -0.3622
  155DOPC  H18S18642   2.689   2.590  10.109  0.2093  2.2103  0.2900
  155DOPC  H18T18643   2.517   2.585  10.160 -1.2092 -1.2217 -1.4072
  155DOPC   C3318644   1.976   1.974  10.575  0.2758 -0.5860 -0.1733
  155DOPC   H3X18645   1.992   1.864  10.569  0.3862 -0.5325 -1.0341
  155DOPC   H3Y18646   2.054   2.018  10.510  0.0094  1.7288  0.9608
  155DOPC   C3418647   1.831   2.010  10.528 -0.7969 -0.8448 -0.0192
  155DOPC   H4X18648   1.823   2.121  10.536 -2.5818 -0.9888  0.4642
  155DOPC   H4Y18649   1.761   1.947  10.586 -0.1075  0.7410  2.6870
  155DOPC   C3518650   1.800   1.974  10.377 -0.1081  0.2087 -0.2536
  155DOPC   H5X18651   1.703   2.021  10.349 -0.4848 -0.9314 -0.9110
  155DOPC   H5Y18652   1.790   1.864  10.374 -2.3726  0.3752 -2.4830
  155DOPC   C3618653   1.895   2.011  10.258 -0.2976  0.1206  0.7025
  155DOPC   H6X18654   1.889   2.119  10.232  0.5352 -0.4875 -2.3716
  155DOPC   H6Y18655   2.000   1.995  10.289  0.0568  0.9862  0.0157
  155DOPC   C3718656   1.881   1.923  10.131  0.5951  0.2623  0.1136
  155DOPC   H7X18657   1.981   1.896  10.093  0.1162 -0.2579 -0.8348
  155DOPC   H7Y18658   1.838   1.824  10.157  0.6914 -0.1210 -1.1113
  155DOPC   C3818659   1.786   1.974  10.023 -0.0208 -0.2724 -0.3703
  155DOPC   H8X18660   1.820   2.069   9.977  0.1478  0.6283  1.5184
  155DOPC   H8Y18661   1.691   2.003  10.074 -0.3805  0.4355 -1.4026
  155DOPC   C3918662   1.749   1.862   9.933 -0.0086  0.0120  0.5327
  155DOPC   H9X18663   1.664   1.797   9.959  1.1224 -2.5630 -1.7327
  155DOPC  C31018664   1.808   1.832   9.812  0.1405  0.1115 -0.0564
  155DOPC  H10X18665   1.766   1.748   9.754  0.1965 -0.6216  0.9334
  155DOPC  C31118666   1.914   1.909   9.747 -1.0907 -0.5687 -0.3322
  155DOPC  H11X18667   1.982   1.840   9.693 -0.4384  0.3300 -0.6918
  155DOPC  H11Y18668   1.974   1.965   9.822  1.6827 -1.1755 -1.9367
  155DOPC  C31218669   1.847   1.997   9.636  0.5478  0.5848 -0.0399
  155DOPC  H12X18670   1.905   2.088   9.610  0.8364 -0.0742 -1.8406
  155DOPC  H12Y18671   1.750   2.038   9.669  0.0153 -1.2723  0.8531
  155DOPC  C31318672   1.831   1.919   9.502  0.9367  0.2992  0.3043
  155DOPC  H13X18673   1.771   1.828   9.521 -3.3865  2.3114 -2.0335
  155DOPC  H13Y18674   1.762   1.987   9.447  1.0918  0.4488  0.2915
  155DOPC  C31418675   1.961   1.899   9.421 -0.6250  0.6092  0.5927
  155DOPC  H14X18676   2.003   1.997   9.389  2.0230 -1.0562 -1.4673
  155DOPC  H14Y18677   2.040   1.849   9.482 -1.4243 -3.1212 -1.1603
  155DOPC  C31518678   1.948   1.823   9.289 -0.2533  0.3880 -0.1815
  155DOPC  H15X18679   2.043   1.851   9.239  0.3994  2.1351  1.8690
  155DOPC  H15Y18680   1.860   1.857   9.230  0.2448  2.3080  0.1238
  155DOPC  C31618681   1.942   1.666   9.292 -0.2263  0.3829  0.0328
  155DOPC  H16X18682   1.955   1.626   9.190 -1.1926 -0.2233  0.1425
  155DOPC  H16Y18683   2.037   1.632   9.340  1.3252  1.7672 -1.8770
  155DOPC  C31718684   1.809   1.604   9.347 -0.1059  0.2160 -0.3568
  155DOPC  H17X18685   1.818   1.604   9.458  2.7269 -0.0570 -0.5008
  155DOPC  H17Y18686   1.731   1.674   9.312  0.3641  2.0302  2.0074
  155DOPC  C31818687   1.775   1.462   9.301  0.0311  0.5446  0.0541
  155DOPC  H18X18688   1.693   1.408   9.352  0.9753 -1.1130 -0.1271
  155DOPC  H18Y18689   1.747   1.465   9.193 -2.1256 -2.5200  0.4071
  155DOPC  H18Z18690   1.860   1.391   9.304  1.2983  1.8244 -2.3462
  156DOPC     N18691   5.887   6.187  11.149 -0.5349 -0.2235 -0.1355
  156DOPC   C1218692   5.969   6.091  11.066 -0.6661 -0.3057  0.4485
  156DOPC  H12A18693   5.929   6.085  10.965  0.6734 -0.7278 -0.0832
  156DOPC  H12B18694   5.953   5.989  11.097 -1.0505  0.0795  1.5624
  156DOPC   C1318695   5.912   6.331  11.093 -0.1048 -0.2085 -0.3005
  156DOPC  H13A18696   5.835   6.392  11.137  0.0299  1.1206 -1.8359
  156DOPC  H13B18697   6.008   6.375  11.119 -0.3817  0.5322 -0.5023
  156DOPC  H13C18698   5.899   6.342  10.987  1.8050 -0.5474 -0.6140
  156DOPC   C1418699   5.925   6.172  11.292 -0.0950  0.1011  0.6976
  156DOPC  H14A18700   6.031   6.184  11.310  0.0791  0.9326 -0.7344
  156DOPC  H14B18701   5.872   6.249  11.347  1.0116  1.7924 -0.5090
  156DOPC  H14C18702   5.906   6.075  11.335  1.3335 -0.0061  1.1594
  156DOPC   C1518703   5.741   6.144  11.132 -0.1177 -0.3741 -0.5708
  156DOPC  H15A18704   5.726   6.037  11.137 -1.7716 -0.1637 -0.4723
  156DOPC  H15B18705   5.700   6.166  11.035 -1.9795 -2.8047 -0.4450
  156DOPC  H15C18706   5.674   6.192  11.202 -0.6310  0.0531 -1.3461
  156DOPC   C1118707   6.121   6.114  11.053 -0.0640  0.2982  0.4862
  156DOPC  H11A18708   6.168   6.130  11.152 -0.7180 -2.6326  1.3701
  156DOPC  H11B18709   6.165   6.024  11.004 -1.5071 -1.0283  1.5335
  156DOPC     P18710   6.142   6.194  10.797 -0.0169 -0.2976  0.1605
  156DOPC   O1318711   6.076   6.309  10.737 -0.0113  0.1795  0.0923
  156DOPC   O1418712   6.077   6.065  10.778 -0.0773 -0.4597 -0.3609
  156DOPC   O1218713   6.157   6.213  10.958  0.1319  0.6325  0.2023
  156DOPC   O1118714   6.299   6.201  10.751  0.3257 -0.3809 -0.0018
  156DOPC    C118715   6.395   6.096  10.792  0.2400  0.0796 -0.0764
  156DOPC    HA18716   6.372   6.047  10.889  1.5406  2.1894  1.3502
  156DOPC    HB18717   6.492   6.143  10.817  1.1992  0.4628 -3.8230
  156DOPC    C218718   6.416   5.987  10.681 -0.2944  0.3304  0.2130
  156DOPC    HS18719   6.442   6.035  10.584  1.8755 -2.0868 -0.4898
  156DOPC   O2118720   6.293   5.910  10.670 -0.1431 -0.0088 -0.2254
  156DOPC   C2118721   6.222   5.936  10.554  0.7258 -0.0726  0.2312
  156DOPC   O2218722   6.252   6.016  10.470 -0.5456 -0.2405  0.0554
  156DOPC   C2218723   6.115   5.830  10.545  0.1415  0.4040 -0.5090
  156DOPC   H2R18724   6.048   5.866  10.464 -0.6088 -1.0493 -0.5648
  156DOPC   H2S18725   6.055   5.824  10.638  2.1245 -1.8626  0.7574
  156DOPC    C318726   6.541   5.899  10.714 -0.1729 -0.1745 -0.4486
  156DOPC    HX18727   6.534   5.859  10.818 -0.3379  0.4024 -0.2358
  156DOPC    HY18728   6.633   5.961  10.714  0.0721 -0.4745  1.4276
  156DOPC   O3118729   6.551   5.783  10.631 -0.9540 -0.1199 -0.2140
  156DOPC   C3118730   6.598   5.806  10.505 -0.2794  0.0969 -0.5419
  156DOPC   O3218731   6.630   5.911  10.457 -0.4103 -0.4833 -0.4098
  156DOPC   C3218732   6.605   5.679  10.421 -0.6550  0.0320  0.3661
  156DOPC   H2X18733   6.580   5.709  10.318 -1.4916  0.7733  0.7766
  156DOPC   H2Y18734   6.713   5.649  10.419 -0.6861 -0.0306 -0.4573
  156DOPC   C2318735   6.166   5.697  10.506  0.0485  0.2753 -0.0886
  156DOPC   H3R18736   6.215   5.643  10.590  1.3665 -1.0578 -1.6477
  156DOPC   H3S18737   6.245   5.697  10.428  0.9766 -3.0517  0.6629
  156DOPC   C2418738   6.057   5.601  10.458 -1.0493  0.1606  0.3393
  156DOPC   H4R18739   5.987   5.652  10.389 -0.0682 -0.4608 -1.1701
  156DOPC   H4S18740   5.988   5.573  10.540 -3.3086 -1.1712 -1.8767
  156DOPC   C2518741   6.109   5.466  10.406 -0.1888  0.0042  0.2762
  156DOPC   H5R18742   6.160   5.412  10.489 -1.5418 -0.5074  0.7962
  156DOPC   H5S18743   6.161   5.484  10.310 -2.0612  0.5666 -0.6655
  156DOPC   C2618744   5.997   5.367  10.368  0.1684  0.1793  0.1832
  156DOPC   H6R18745   5.938   5.425  10.294  2.2844  1.4637 -0.5618
  156DOPC   H6S18746   5.939   5.358  10.463  1.3377  1.1690  1.0052
  156DOPC   C2718747   6.039   5.234  10.308 -0.6383  0.1113 -0.2412
  156DOPC   H7R18748   6.098   5.251  10.215  1.1823 -0.9920  0.6672
  156DOPC   H7S18749   5.946   5.176  10.288  0.9431 -3.0209  0.9067
  156DOPC   C2818750   6.128   5.146  10.405  0.5872 -0.2437 -0.1777
  156DOPC   H8R18751   6.218   5.211  10.415  0.3031  0.1291 -0.0176
  156DOPC   H8S18752   6.154   5.047  10.362 -1.1477 -2.5596  3.6638
  156DOPC   C2918753   6.070   5.116  10.543 -0.1774 -0.6556 -0.1234
  156DOPC   H9R18754   6.074   5.203  10.610 -0.8176 -0.6797 -0.0482
  156DOPC  C21018755   5.979   5.020  10.572  0.4862  0.1651 -0.2893
  156DOPC  H10R18756   5.950   5.002  10.676 -0.0919  0.7839 -0.3339
  156DOPC  C21118757   5.935   4.900  10.485  1.0369 -0.3712 -0.7055
  156DOPC  H11R18758   5.940   4.805  10.542  2.6838 -0.3000 -0.6614
  156DOPC  H11S18759   5.991   4.907  10.389  0.9590  3.1499 -0.6227
  156DOPC  C21218760   5.786   4.911  10.469 -0.4614  0.1661  0.4743
  156DOPC  H12R18761   5.752   5.004  10.417  0.7212  0.4794  0.2457
  156DOPC  H12S18762   5.733   4.907  10.567 -0.3095 -2.2140  0.5214
  156DOPC  C21318763   5.737   4.806  10.369 -0.7060  0.0703  0.1141
  156DOPC  H13R18764   5.770   4.705  10.400  2.0994  0.8852  0.0016
  156DOPC  H13S18765   5.786   4.827  10.271  2.0710 -0.5634  1.2853
  156DOPC  C21418766   5.582   4.810  10.370 -0.4986 -0.3604  0.2430
  156DOPC  H14R18767   5.565   4.914  10.336 -0.4243 -0.4003  0.0829
  156DOPC  H14S18768   5.533   4.792  10.468  1.8110  1.5288  1.8590
  156DOPC  C21518769   5.515   4.706  10.282 -0.2758 -0.2179  0.3534
  156DOPC  H15R18770   5.501   4.613  10.341 -0.8501  1.1946  2.5839
  156DOPC  H15S18771   5.573   4.695  10.188 -1.3436 -1.6601 -0.1786
  156DOPC  C21618772   5.372   4.740  10.225 -0.5673  0.5963 -0.0830
  156DOPC  H16R18773   5.352   4.667  10.144  0.6317  0.8119 -0.5981
  156DOPC  H16S18774   5.380   4.844  10.185  2.9768  1.1704  1.7303
  156DOPC  C21718775   5.264   4.717  10.333  0.0597  0.2298 -0.0923
  156DOPC  H17R18776   5.299   4.776  10.420 -1.1231 -2.2173  2.2033
  156DOPC  H17S18777   5.273   4.611  10.364  0.6758  0.1686 -0.4569
  156DOPC  C21818778   5.123   4.739  10.295  0.0732  0.0580  0.4550
  156DOPC  H18R18779   5.092   4.704  10.195 -0.9400  2.0538  0.0387
  156DOPC  H18S18780   5.112   4.849  10.286  2.9559  0.3120 -1.1241
  156DOPC  H18T18781   5.052   4.713  10.376 -0.0029 -1.5143 -0.0871
  156DOPC   C3318782   6.525   5.560  10.484  0.1983 -0.7721 -0.2769
  156DOPC   H3X18783   6.416   5.582  10.480  0.3144 -0.3180 -2.8086
  156DOPC   H3Y18784   6.546   5.549  10.592 -2.6233  1.9328  0.6997
  156DOPC   C3418785   6.542   5.436  10.401  0.4237  0.5036  0.3092
  156DOPC   H4X18786   6.651   5.434  10.381  0.4535  0.8692  0.4383
  156DOPC   H4Y18787   6.479   5.432  10.309  1.6123  0.0822 -0.5153
  156DOPC   C3518788   6.507   5.306  10.489  0.1984 -0.3350 -0.0515
  156DOPC   H5X18789   6.398   5.314  10.509  0.2433  1.9469 -0.4015
  156DOPC   H5Y18790   6.568   5.305  10.581 -0.2266 -3.0465  0.2798
  156DOPC   C3618791   6.533   5.173  10.414 -0.4058  0.0464 -0.0463
  156DOPC   H6X18792   6.474   5.173  10.320 -1.3624 -1.6254  0.5283
  156DOPC   H6Y18793   6.640   5.182  10.385  0.0063 -0.3604  1.2525
  156DOPC   C3718794   6.513   5.042  10.486  0.3604  0.1295  0.1766
  156DOPC   H7X18795   6.566   5.054  10.582 -1.6649  2.7518  1.0880
  156DOPC   H7Y18796   6.407   5.026  10.514  0.7718 -1.0441  1.1351
  156DOPC   C3818797   6.574   4.927  10.403  0.3317  0.4565 -0.0796
  156DOPC   H8X18798   6.684   4.931  10.388  0.4390 -0.6344  0.3448
  156DOPC   H8Y18799   6.519   4.938  10.307  0.8931 -1.7252 -0.6923
  156DOPC   C3918800   6.538   4.804  10.484 -0.2186 -0.1211 -0.6440
  156DOPC   H9X18801   6.590   4.804  10.581  0.6045  2.8258 -0.9945
  156DOPC  C31018802   6.460   4.701  10.452 -0.7169  0.6144  0.6614
  156DOPC  H10X18803   6.431   4.629  10.530  0.1293 -2.0991 -1.3920
  156DOPC  C31118804   6.377   4.680  10.330 -0.6551  0.9160 -0.4590
  156DOPC  H11X18805   6.368   4.571  10.314  0.8882  1.0068 -2.3314
  156DOPC  H11Y18806   6.432   4.717  10.241 -0.9267 -1.3331 -1.6271
  156DOPC  C31218807   6.229   4.724  10.343 -0.6920  0.1758 -0.2562
  156DOPC  H12X18808   6.226   4.831  10.370 -0.5757  0.2279 -0.4468
  156DOPC  H12Y18809   6.185   4.656  10.419 -0.0574 -1.8524 -1.6091
  156DOPC  C31318810   6.157   4.707  10.217  0.3859  0.5584 -0.1888
  156DOPC  H13X18811   6.165   4.603  10.180 -1.0698  0.0081  0.9392
  156DOPC  H13Y18812   6.047   4.705  10.238  0.4628  0.1496  0.1862
  156DOPC  C31418813   6.202   4.809  10.108 -0.7542 -0.2417 -0.0797
  156DOPC  H14X18814   6.202   4.910  10.153  1.8221 -0.4670  0.5639
  156DOPC  H14Y18815   6.306   4.784  10.079 -0.7451  0.3056 -0.5345
  156DOPC  C31518816   6.120   4.815   9.974 -0.3454 -0.0536 -0.0818
  156DOPC  H15X18817   6.109   4.707   9.949  1.2967 -0.0906 -0.7558
  156DOPC  H15Y18818   6.163   4.862   9.883 -0.1595 -1.7012 -0.8777
  156DOPC  C31618819   5.982   4.889   9.998  0.0746  0.2942  0.7730
  156DOPC  H16X18820   5.914   4.837  10.069 -0.2954  0.4823  0.5658
  156DOPC  H16Y18821   6.003   4.990  10.040 -4.3938  1.8605 -0.2115
  156DOPC  C31718822   5.907   4.895   9.858 -0.5805 -1.0572  0.6602
  156DOPC  H17X18823   5.972   4.952   9.788  0.9400 -1.5720  1.6010
  156DOPC  H17Y18824   5.897   4.790   9.821 -1.5363 -0.0953 -2.0675
  156DOPC  C31818825   5.761   4.945   9.859  0.5181 -0.4039 -0.1514
  156DOPC  H18X18826   5.700   4.885   9.929 -0.9915  1.3475  0.1192
  156DOPC  H18Y18827   5.762   5.053   9.885 -2.1711  0.1413 -1.8473
  156DOPC  H18Z18828   5.710   4.940   9.760 -0.4117  0.2520  0.2956
  157DOPC     N18829   5.931   2.075  10.920  0.4589 -0.0728  0.3723
  157DOPC   C1218830   5.881   1.936  10.950  0.6992  0.1126 -0.2720
  157DOPC  H12A18831   5.813   1.942  11.033  0.6913  0.7125 -0.3114
  157DOPC  H12B18832   5.968   1.883  10.986  1.7543  1.4906 -0.6755
  157DOPC   C1318833   5.977   2.135  11.046  0.3237  0.1350 -0.0967
  157DOPC  H13A18834   5.903   2.131  11.125  2.9210  0.6249  2.5160
  157DOPC  H13B18835   6.061   2.080  11.084 -0.3528 -0.9655 -0.1586
  157DOPC  H13C18836   6.004   2.239  11.033 -2.1399  0.7109 -1.3865
  157DOPC   C1418837   5.819   2.164  10.865  0.3453  0.3310 -0.3315
  157DOPC  H14A18838   5.853   2.267  10.871  0.6006  0.1791  1.1229
  157DOPC  H14B18839   5.801   2.137  10.762  1.5681  1.1081 -0.7730
  157DOPC  H14C18840   5.726   2.170  10.918  0.1732 -0.1151 -0.5771
  157DOPC   C1518841   6.051   2.067  10.825 -0.4283  0.0105  0.2977
  157DOPC  H15A18842   6.142   2.022  10.861  0.2503 -0.2820 -1.7107
  157DOPC  H15B18843   6.067   2.157  10.768 -3.1976  1.3326  1.3710
  157DOPC  H15C18844   6.012   1.995  10.755 -0.5658 -0.7765  1.1622
  157DOPC   C1118845   5.810   1.865  10.833  0.5470  0.1988  0.0162
  157DOPC  H11A18846   5.779   1.763  10.865  0.7413 -0.4519 -1.7356
  157DOPC  H11B18847   5.720   1.925  10.805 -0.0004 -0.3562  0.5528
  157DOPC     P18848   5.978   1.729  10.684  0.1297  0.1979 -0.0560
  157DOPC   O1318849   5.952   1.610  10.773 -0.1328 -1.0577 -0.1499
  157DOPC   O1418850   6.110   1.785  10.670 -0.1011 -0.1268 -0.2922
  157DOPC   O1218851   5.884   1.861  10.713  0.2126  0.2112  0.4856
  157DOPC   O1118852   5.930   1.688  10.541  0.2898  0.8508 -0.3258
  157DOPC    C118853   5.792   1.696  10.503  0.6362  0.4380  0.3416
  157DOPC    HA18854   5.773   1.658  10.401 -1.6716  0.5519  0.6896
  157DOPC    HB18855   5.762   1.802  10.491  2.1296  0.6936 -1.5907
  157DOPC    C218856   5.682   1.630  10.587 -0.1238  1.1004 -0.3227
  157DOPC    HS18857   5.715   1.594  10.687 -1.8698  1.8840  0.5725
  157DOPC   O2118858   5.648   1.507  10.510 -0.4473  0.2180  0.1444
  157DOPC   C2118859   5.591   1.406  10.574  0.2430 -0.6007 -1.0206
  157DOPC   O2218860   5.559   1.406  10.692 -0.1957  0.2233  0.3661
  157DOPC   C2218861   5.578   1.290  10.477 -0.1341 -0.3537 -1.0200
  157DOPC   H2R18862   5.539   1.206  10.538 -0.3175 -0.8705 -1.8312
  157DOPC   H2S18863   5.681   1.253  10.457 -0.4102 -0.8258 -1.6163
  157DOPC    C318864   5.556   1.726  10.604 -0.0302  0.4278  0.1543
  157DOPC    HX18865   5.583   1.807  10.674 -1.8046  0.8221  0.4318
  157DOPC    HY18866   5.480   1.670  10.662  0.4850  0.6662  1.0740
  157DOPC   O3118867   5.514   1.782  10.476  0.2340 -0.2730  0.1201
  157DOPC   C3118868   5.413   1.709  10.421 -0.0046  0.4128  0.0708
  157DOPC   O3218869   5.338   1.635  10.482 -0.0920  0.5341  0.1021
  157DOPC   C3218870   5.425   1.728  10.268 -0.1736 -0.1471 -0.1733
  157DOPC   H2X18871   5.402   1.836  10.252  1.8851  0.1770 -1.2351
  157DOPC   H2Y18872   5.527   1.701  10.233 -0.0055  1.5431 -1.1074
  157DOPC   C2318873   5.482   1.308  10.365 -0.0915  0.0050 -0.3935
  157DOPC   H3R18874   5.479   1.418  10.346  0.6544  0.3358  1.2703
  157DOPC   H3S18875   5.380   1.278  10.399 -0.0244  0.6723  0.4376
  157DOPC   C2418876   5.530   1.230  10.234 -0.6143  0.1918 -0.1372
  157DOPC   H4R18877   5.523   1.122  10.259  0.9284  0.2044  0.4562
  157DOPC   H4S18878   5.637   1.252  10.214 -1.2007  4.5635  0.5034
  157DOPC   C2518879   5.441   1.238  10.113  0.9048  0.4152 -0.0049
  157DOPC   H5R18880   5.397   1.338  10.092 -1.8008 -1.1469 -2.3770
  157DOPC   H5S18881   5.346   1.183  10.133  0.0741  0.6595 -2.9035
  157DOPC   C2618882   5.501   1.172   9.990  0.2350  0.7802  0.4461
  157DOPC   H6R18883   5.489   1.062   9.998  0.8408  0.5641 -1.2024
  157DOPC   H6S18884   5.606   1.207   9.978  0.4850  0.3850  1.4527
  157DOPC   C2718885   5.426   1.222   9.855 -0.1110  0.3194 -0.4201
  157DOPC   H7R18886   5.430   1.333   9.850  1.1129  0.2434 -1.6034
  157DOPC   H7S18887   5.320   1.193   9.875  0.3822 -0.2380  1.5963
  157DOPC   C2818888   5.497   1.167   9.729 -0.4079  0.1691  0.2873
  157DOPC   H8R18889   5.594   1.216   9.708  0.5542 -0.8957  2.0011
  157DOPC   H8S18890   5.428   1.201   9.648 -2.0412 -3.1433  0.1035
  157DOPC   C2918891   5.518   1.019   9.730  0.5083 -0.7329  0.1378
  157DOPC   H9R18892   5.598   0.980   9.794  1.2644  0.1229 -0.2708
  157DOPC  C21018893   5.432   0.931   9.673  0.5402  0.1818  0.6711
  157DOPC  H10R18894   5.453   0.823   9.676 -0.5268 -0.1190 -1.1994
  157DOPC  C21118895   5.305   0.963   9.597 -0.5346  0.0349  0.9472
  157DOPC  H11R18896   5.273   1.067   9.618  1.4912  0.8240  0.3564
  157DOPC  H11S18897   5.222   0.895   9.624 -0.4259 -0.4262  0.1472
  157DOPC  C21218898   5.336   0.942   9.445 -0.6557 -0.1827 -0.1980
  157DOPC  H12R18899   5.377   0.843   9.414 -3.7831 -0.7097 -3.3360
  157DOPC  H12S18900   5.403   1.022   9.407 -0.4874 -0.4099 -0.3864
  157DOPC  C21318901   5.210   0.947   9.361 -0.0565 -0.0131 -0.8092
  157DOPC  H13R18902   5.161   1.046   9.371 -0.6358 -0.4433  0.9718
  157DOPC  H13S18903   5.137   0.868   9.390 -0.9221  0.2344 -2.2519
  157DOPC  C21418904   5.238   0.918   9.211 -0.0279  0.0672  0.2500
  157DOPC  H14R18905   5.337   0.964   9.191 -0.9589  1.9361 -0.3177
  157DOPC  H14S18906   5.164   0.976   9.153 -0.9594 -0.8814  0.4615
  157DOPC  C21518907   5.250   0.772   9.180 -0.6180 -0.1303 -0.2034
  157DOPC  H15R18908   5.285   0.714   9.269 -2.2103 -0.5764  0.1559
  157DOPC  H15S18909   5.326   0.768   9.098 -0.6018  1.8553 -0.3247
  157DOPC  C21618910   5.130   0.702   9.123  0.0727  0.4406 -0.6598
  157DOPC  H16R18911   5.043   0.765   9.152 -0.7417  0.1218 -2.2846
  157DOPC  H16S18912   5.119   0.598   9.162 -0.8825  0.6721 -0.2972
  157DOPC  C21718913   5.145   0.702   8.969 -0.2756  0.0541  0.3488
  157DOPC  H17R18914   5.234   0.640   8.946  0.8077  0.6271  2.6834
  157DOPC  H17S18915   5.172   0.804   8.933  1.5962 -0.3511  0.5009
  157DOPC  C21818916   5.023   0.638   8.891 -0.0138  0.4383  0.7294
  157DOPC  H18R18917   5.027   0.528   8.883 -3.3971  0.2771 -0.0337
  157DOPC  H18S18918   5.036   0.676   8.787  3.1572 -0.3885  0.7032
  157DOPC  H18T18919   4.926   0.672   8.932  0.2098  0.7850  0.9783
  157DOPC   C3318920   5.330   1.641  10.180  0.4550  0.1848  0.2061
  157DOPC   H3X18921   5.231   1.691  10.170 -0.1425 -0.2241  3.1700
  157DOPC   H3Y18922   5.309   1.537  10.213 -0.1545  0.6838  1.4552
  157DOPC   C3418923   5.383   1.644  10.038 -0.5835 -0.0262 -0.9457
  157DOPC   H4X18924   5.454   1.561  10.017  0.5881  0.7582 -0.1633
  157DOPC   H4Y18925   5.419   1.744  10.008  0.3456 -0.3283 -0.8885
  157DOPC   C3518926   5.263   1.621   9.944 -0.4109  0.2202 -0.0787
  157DOPC   H5X18927   5.194   1.709   9.943 -0.6307  0.0995 -2.8068
  157DOPC   H5Y18928   5.202   1.542   9.992  1.8654 -1.8887 -0.4730
  157DOPC   C3618929   5.308   1.599   9.798  0.1226 -0.7976 -1.4556
  157DOPC   H6X18930   5.353   1.686   9.746  0.3036  0.1133  0.1606
  157DOPC   H6Y18931   5.382   1.517   9.806  2.0139  0.9514  0.2424
  157DOPC   C3718932   5.197   1.563   9.700 -0.5927 -0.1999  0.3058
  157DOPC   H7X18933   5.133   1.488   9.750  1.3494 -1.1257  1.5167
  157DOPC   H7Y18934   5.138   1.656   9.705  0.0113  0.2026  0.0726
  157DOPC   C3818935   5.237   1.515   9.553  0.8244 -0.4470 -0.5236
  157DOPC   H8X18936   5.142   1.532   9.498  0.3687  3.6629  1.1932
  157DOPC   H8Y18937   5.265   1.408   9.562 -2.7241 -1.3466  2.2940
  157DOPC   C3918938   5.350   1.575   9.485  0.2443 -0.6379  0.0257
  157DOPC   H9X18939   5.410   1.651   9.537 -1.6816  0.9361  0.0842
  157DOPC  C31018940   5.374   1.552   9.351 -0.0482  0.0033 -0.4908
  157DOPC  H10X18941   5.462   1.601   9.306 -1.4594  2.4593 -0.7681
  157DOPC  C31118942   5.293   1.463   9.258  0.3242  0.7403  0.6656
  157DOPC  H11X18943   5.252   1.535   9.183  0.5834  0.8349  0.6140
  157DOPC  H11Y18944   5.214   1.411   9.316 -0.3076  0.6293 -0.2557
  157DOPC  C31218945   5.373   1.351   9.186 -0.7908 -0.0301 -0.7480
  157DOPC  H12X18946   5.421   1.280   9.257  1.7311  0.3502 -1.9721
  157DOPC  H12Y18947   5.447   1.400   9.120 -0.1091 -0.8858 -0.6449
  157DOPC  C31318948   5.279   1.279   9.091 -0.0160  0.6320  0.6448
  157DOPC  H13X18949   5.220   1.213   9.158 -0.5168  0.0797 -0.3132
  157DOPC  H13Y18950   5.218   1.358   9.042  0.9714  1.8932  1.3639
  157DOPC  C31418951   5.361   1.185   9.002 -0.5175 -0.5308  0.4833
  157DOPC  H14X18952   5.451   1.227   8.953 -0.4628 -1.2825 -0.0799
  157DOPC  H14Y18953   5.409   1.104   9.061  1.7232 -0.5757 -1.2697
  157DOPC  C31518954   5.280   1.124   8.890 -0.0708 -0.1129  0.5092
  157DOPC  H15X18955   5.236   1.205   8.829  0.0728 -0.3903  0.0370
  157DOPC  H15Y18956   5.192   1.070   8.932 -1.9704  2.1306 -0.4146
  157DOPC  C31618957   5.357   1.023   8.802  0.3510  0.0394 -0.0990
  157DOPC  H16X18958   5.449   1.061   8.753 -0.4075  0.6766 -1.0819
  157DOPC  H16Y18959   5.372   0.944   8.878 -0.3485 -0.6803 -0.6800
  157DOPC  C31718960   5.269   0.973   8.686 -0.3212  0.0528 -0.1990
  157DOPC  H17X18961   5.325   0.889   8.640 -0.6542  0.2338 -0.9541
  157DOPC  H17Y18962   5.170   0.937   8.722  0.7178 -1.4116  1.2893
  157DOPC  C31818963   5.239   1.068   8.570 -0.3800 -0.4135  0.5103
  157DOPC  H18X18964   5.336   1.106   8.532 -2.1207  1.4341 -2.4607
  157DOPC  H18Y18965   5.190   1.005   8.493 -0.1002 -1.0147  0.8191
  157DOPC  H18Z18966   5.170   1.149   8.602 -1.7927 -1.8530  1.2725
  158DOPC     N18967   3.772   7.109  11.534 -1.1479 -0.1017  0.0565
  158DOPC   C1218968   3.828   7.053  11.408  0.0789  0.2164 -0.4543
  158DOPC  H12A18969   3.842   6.946  11.420 -0.6158 -0.1893 -2.7550
  158DOPC  H12B18970   3.923   7.100  11.389  1.4366 -1.4131  1.8215
  158DOPC   C1318971   3.791   7.262  11.551 -0.1798 -0.2533 -0.4577
  158DOPC  H13A18972   3.893   7.294  11.536 -1.0233  1.6968 -2.7835
  158DOPC  H13B18973   3.730   7.313  11.478 -1.0955  0.3287  0.6867
  158DOPC  H13C18974   3.759   7.298  11.648 -0.1382  1.9168 -1.1897
  158DOPC   C1418975   3.844   7.048  11.662 -0.2924 -0.2681  0.3051
  158DOPC  H14A18976   3.826   6.942  11.671 -0.8758 -0.2558 -0.5371
  158DOPC  H14B18977   3.949   7.067  11.651 -0.6025  2.0052  0.6711
  158DOPC  H14C18978   3.819   7.104  11.751  1.1252  0.7453  0.0970
  158DOPC   C1518979   3.634   7.087  11.552 -0.1135  0.6788  0.3582
  158DOPC  H15A18980   3.607   7.116  11.652  0.0976 -2.6025  1.4698
  158DOPC  H15B18981   3.596   6.986  11.549 -1.2989  1.1080 -2.0638
  158DOPC  H15C18982   3.574   7.135  11.475 -0.2984 -0.5874 -0.3209
  158DOPC   C1118983   3.743   7.062  11.282  0.2211  0.3145  0.1790
  158DOPC  H11A18984   3.691   7.159  11.299  1.3098  0.7094  1.3968
  158DOPC  H11B18985   3.811   7.067  11.194 -1.0180 -2.0076 -0.9918
  158DOPC     P18986   3.692   6.802  11.243  0.0451  0.1749 -0.2145
  158DOPC   O1318987   3.576   6.718  11.271  0.6581 -0.0394  0.3363
  158DOPC   O1418988   3.820   6.755  11.303 -0.3624  0.2763 -0.3600
  158DOPC   O1218989   3.652   6.951  11.278 -0.3860 -0.1197 -0.3440
  158DOPC   O1118990   3.709   6.805  11.081  1.0249  0.4405 -0.2387
  158DOPC    C118991   3.602   6.830  10.998  0.6677  0.4903 -0.1642
  158DOPC    HA18992   3.637   6.872  10.902 -2.7495  0.2358 -1.6542
  158DOPC    HB18993   3.533   6.910  11.036  0.7424  0.2404  0.5242
  158DOPC    C218994   3.503   6.711  10.965 -0.1431 -0.3047 -0.1218
  158DOPC    HS18995   3.469   6.671  11.063 -0.3090  3.5662  1.5737
  158DOPC   O2118996   3.581   6.624  10.888 -0.0090 -0.3706  0.1376
  158DOPC   C2118997   3.520   6.511  10.885  0.4683 -0.7335 -0.3033
  158DOPC   O2218998   3.430   6.471  10.958  0.3247 -0.0162  0.2646
  158DOPC   C2218999   3.566   6.429  10.764 -0.3428  0.0914 -0.2893
  158DOPC   H2R19000   3.677   6.432  10.772 -0.2890  3.5277 -1.0048
  158DOPC   H2S19001   3.529   6.474  10.669 -1.0114 -3.3457 -1.8090
  158DOPC    C319002   3.366   6.756  10.896 -0.5577  0.2775 -0.2431
  158DOPC    HX19003   3.317   6.815  10.977 -0.1982 -1.2519  1.1577
  158DOPC    HY19004   3.302   6.665  10.889  1.1833 -0.9064 -1.9066
  158DOPC   O3119005   3.386   6.841  10.784 -0.8106 -0.0439 -0.1328
  158DOPC   C3119006   3.393   6.788  10.662 -0.1013  0.2817  0.2582
  158DOPC   O3219007   3.390   6.669  10.637  0.5959 -0.2886 -0.1781
  158DOPC   C3219008   3.399   6.903  10.564 -0.1858 -0.0334  1.0202
  158DOPC   H2X19009   3.308   6.964  10.582 -0.7356  1.2325 -4.4647
  158DOPC   H2Y19010   3.486   6.965  10.595  0.6359  0.3592 -1.8253
  158DOPC   C2319011   3.509   6.282  10.779 -0.2711  0.3815  0.2100
  158DOPC   H3R19012   3.400   6.275  10.794 -0.0970 -0.5140  1.0999
  158DOPC   H3S19013   3.558   6.242  10.870  1.3278  0.4700 -0.5683
  158DOPC   C2419014   3.541   6.206  10.648  0.5905  0.0795  0.2321
  158DOPC   H4R19015   3.649   6.208  10.621  0.6057 -0.8834  0.1834
  158DOPC   H4S19016   3.490   6.245  10.558  1.5519  0.5059 -0.1465
  158DOPC   C2519017   3.494   6.055  10.657 -0.6335 -0.3846 -0.2552
  158DOPC   H5R19018   3.384   6.060  10.645 -0.3166  1.4604 -3.5813
  158DOPC   H5S19019   3.517   6.016  10.759 -1.1504  0.4225  0.1811
  158DOPC   C2619020   3.558   5.969  10.548 -0.1173 -0.1511 -0.4583
  158DOPC   H6R19021   3.594   6.019  10.456  0.5673 -0.9933 -0.6615
  158DOPC   H6S19022   3.484   5.894  10.513  1.5721 -1.6526 -0.9924
  158DOPC   C2719023   3.669   5.884  10.620 -0.2737 -0.2347  0.7603
  158DOPC   H7R19024   3.625   5.826  10.705  0.2984 -1.1803  0.4296
  158DOPC   H7S19025   3.745   5.958  10.654 -0.4065  0.4032 -0.2792
  158DOPC   C2819026   3.735   5.784  10.527 -0.2000 -0.0421 -0.0612
  158DOPC   H8R19027   3.651   5.719  10.494  0.0440 -0.8073  0.7735
  158DOPC   H8S19028   3.812   5.734  10.589  1.4677  1.2835 -0.9844
  158DOPC   C2919029   3.811   5.841  10.409  0.4391  0.2264  0.1357
  158DOPC   H9R19030   3.905   5.895  10.429  0.9110 -0.6079  0.2168
  158DOPC  C21019031   3.782   5.828  10.277  0.0693 -0.3465  0.0715
  158DOPC  H10R19032   3.845   5.877  10.201  0.4004 -1.2083 -0.2126
  158DOPC  C21119033   3.668   5.757  10.211  0.6876 -0.4873 -0.2005
  158DOPC  H11R19034   3.619   5.827  10.140  2.5078  0.1004 -0.9487
  158DOPC  H11S19035   3.586   5.734  10.283 -0.1624  1.9422 -0.2854
  158DOPC  C21219036   3.699   5.628  10.131  0.4857  0.0216 -0.0626
  158DOPC  H12R19037   3.615   5.556  10.120 -0.2900  1.2179 -2.9875
  158DOPC  H12S19038   3.773   5.575  10.195 -1.5071 -2.8592  0.0893
  158DOPC  C21319039   3.745   5.652   9.988  0.4702 -0.5719  0.3436
  158DOPC  H13R19040   3.854   5.666  10.002  0.4594 -1.1410  1.0345
  158DOPC  H13S19041   3.701   5.740   9.935 -1.8197 -2.8357 -1.7966
  158DOPC  C21419042   3.725   5.534   9.899 -0.5314 -0.3042  0.0135
  158DOPC  H14R19043   3.614   5.532   9.893 -0.6272 -1.1550  1.5277
  158DOPC  H14S19044   3.761   5.442   9.950  1.6331  0.5000  0.0495
  158DOPC  C21519045   3.781   5.565   9.755 -0.2214 -0.2626  0.2838
  158DOPC  H15R19046   3.761   5.671   9.729 -0.9056 -0.7429 -1.3357
  158DOPC  H15S19047   3.731   5.499   9.680  0.0642 -1.7238  1.3357
  158DOPC  C21619048   3.934   5.548   9.740 -0.0346  0.2604 -0.1974
  158DOPC  H16R19049   3.974   5.456   9.787  1.0523  0.5304 -0.5831
  158DOPC  H16S19050   3.987   5.633   9.788  0.4488 -0.8007  1.2012
  158DOPC  C21719051   3.967   5.540   9.596  0.0663  0.4050 -0.4303
  158DOPC  H17R19052   3.940   5.637   9.550  0.7769  1.2170  0.7875
  158DOPC  H17S19053   3.910   5.460   9.545  0.3578 -0.0270 -0.0909
  158DOPC  C21819054   4.115   5.509   9.567 -0.5387  0.3481 -0.3802
  158DOPC  H18R19055   4.130   5.473   9.463  0.0726 -3.1175  0.7915
  158DOPC  H18S19056   4.138   5.432   9.644 -1.6160  0.2886 -0.1012
  158DOPC  H18T19057   4.173   5.599   9.597  1.4834 -1.0512  0.1548
  158DOPC   C3319058   3.390   6.875  10.410  0.4948 -0.2315  0.0454
  158DOPC   H3X19059   3.312   6.802  10.383  1.8110 -0.4041 -3.8022
  158DOPC   H3Y19060   3.482   6.827  10.372  1.0925  1.2328 -0.4362
  158DOPC   C3419061   3.360   6.997  10.324 -0.6995  0.1461 -0.1179
  158DOPC   H4X19062   3.258   7.033  10.351 -0.5946  1.3972 -1.3177
  158DOPC   H4Y19063   3.365   6.958  10.220  0.1462 -0.5615  0.1675
  158DOPC   C3519064   3.465   7.112  10.343  0.0187  0.5613 -0.3399
  158DOPC   H5X19065   3.564   7.086  10.301 -0.0984  0.4765 -0.5719
  158DOPC   H5Y19066   3.488   7.133  10.449  1.2799  2.4017 -0.9177
  158DOPC   C3619067   3.427   7.241  10.276  0.2191 -0.1356  0.1318
  158DOPC   H6X19068   3.427   7.214  10.168  0.9315 -0.4097  0.2007
  158DOPC   H6Y19069   3.321   7.253  10.309  0.8877 -0.9677  2.8619
  158DOPC   C3719070   3.505   7.361  10.327 -0.4079  1.1192 -0.0170
  158DOPC   H7X19071   3.457   7.452  10.286  1.4276  1.7516 -0.8769
  158DOPC   H7Y19072   3.486   7.382  10.434 -2.7156  1.9083 -0.5200
  158DOPC   C3819073   3.658   7.348  10.314 -0.0465  0.5889  0.7152
  158DOPC   H8X19074   3.689   7.252  10.360  0.0421 -0.3595 -1.2300
  158DOPC   H8Y19075   3.710   7.426  10.373  0.0721 -0.1878  1.6738
  158DOPC   C3919076   3.691   7.349  10.166  0.5217  0.1994  0.1174
  158DOPC   H9X19077   3.651   7.436  10.111  0.9818  0.0058 -0.5371
  158DOPC  C31019078   3.787   7.281  10.109 -0.1390 -0.6996 -0.0303
  158DOPC  H10X19079   3.791   7.282   9.999  4.2307  1.4917 -0.0508
  158DOPC  C31119080   3.888   7.191  10.170  0.1866  0.1964  0.3559
  158DOPC  H11X19081   3.947   7.153  10.084 -0.4406 -1.3613  0.5867
  158DOPC  H11Y19082   3.832   7.119  10.233  1.3905 -0.2063  0.9865
  158DOPC  C31219083   3.996   7.257  10.256 -0.7395 -0.5606  0.0351
  158DOPC  H12X19084   3.956   7.333  10.327  1.2114  1.7463 -1.1859
  158DOPC  H12Y19085   4.051   7.312  10.177 -1.5610 -1.3442 -1.1112
  158DOPC  C31319086   4.082   7.155  10.328  0.4040  0.3988 -0.1257
  158DOPC  H13X19087   4.010   7.089  10.381  1.0312  1.3846  2.0611
  158DOPC  H13Y19088   4.152   7.097  10.263 -1.0596 -1.6587  0.0333
  158DOPC  C31419089   4.168   7.227  10.441 -0.4188  0.1301  0.1181
  158DOPC  H14X19090   4.216   7.317  10.395  1.5197 -1.9596 -2.2987
  158DOPC  H14Y19091   4.098   7.254  10.522  2.7819 -0.3279  3.2679
  158DOPC  C31519092   4.278   7.142  10.493  0.1008  0.3739 -0.1658
  158DOPC  H15X19093   4.336   7.113  10.403 -0.5878 -0.9320 -0.2103
  158DOPC  H15Y19094   4.234   7.052  10.541 -0.9718  0.0969 -1.5991
  158DOPC  C31619095   4.365   7.225  10.587 -0.2683 -0.3192 -0.1901
  158DOPC  H16X19096   4.457   7.167  10.607 -0.6117 -0.5944  0.6163
  158DOPC  H16Y19097   4.401   7.313  10.530 -0.9430 -0.1687 -0.3995
  158DOPC  C31719098   4.300   7.276  10.714 -0.0815 -0.0304  0.0569
  158DOPC  H17X19099   4.360   7.360  10.756 -2.3767  0.8791  1.7929
  158DOPC  H17Y19100   4.201   7.325  10.697 -1.1014 -1.5664  1.2702
  158DOPC  C31819101   4.289   7.172  10.818  0.5409 -0.5188  0.0466
  158DOPC  H18X19102   4.269   7.212  10.920  1.6630 -2.4461  1.0916
  158DOPC  H18Y19103   4.222   7.086  10.798 -0.9476  0.6220 -0.0787
  158DOPC  H18Z19104   4.394   7.142  10.839  0.6849  0.2879  0.5124
  159DOPC     N19105   6.063   1.032  11.037 -0.4769 -0.3697  0.2540
  159DOPC   C1219106   6.205   1.020  11.099  0.4602 -0.2035 -0.1083
  159DOPC  H12A19107   6.203   0.945  11.176  1.1792  1.1893  1.3170
  159DOPC  H12B19108   6.229   1.116  11.142 -0.3485 -0.1497  0.2507
  159DOPC   C1319109   5.957   1.028  11.142  0.2634  0.2658 -0.4877
  159DOPC  H13A19110   5.953   1.131  11.175 -0.7369 -0.3462  1.4606
  159DOPC  H13B19111   5.856   1.003  11.116  0.1032 -1.2630  1.3954
  159DOPC  H13C19112   5.987   0.970  11.228 -0.6670  1.4684  0.6877
  159DOPC   C1419113   6.037   0.914  10.943 -0.9806  0.7163 -0.3101
  159DOPC  H14A19114   6.066   0.817  10.980 -0.5768 -0.0705 -2.5571
  159DOPC  H14B19115   5.932   0.914  10.916 -1.2913  2.2463  0.7813
  159DOPC  H14C19116   6.093   0.933  10.853 -1.4881  1.0256 -0.5678
  159DOPC   C1519117   6.056   1.161  10.955 -0.2202 -0.0638  0.9194
  159DOPC  H15A19118   6.131   1.175  10.878  0.5333  2.8429  2.0461
  159DOPC  H15B19119   6.063   1.253  11.011  1.5884 -1.4257  3.1327
  159DOPC  H15C19120   5.963   1.149  10.903 -0.6649 -0.1047  1.7159
  159DOPC   C1119121   6.328   0.988  10.998 -0.0224  0.3144  0.4375
  159DOPC  H11A19122   6.419   0.995  11.062  0.6754  1.0142 -0.5797
  159DOPC  H11B19123   6.312   0.884  10.964  1.9695  0.0274  0.2599
  159DOPC     P19124   6.445   1.147  10.816  0.4261 -0.1818 -0.4882
  159DOPC   O1319125   6.524   1.044  10.758  0.2369  0.6595  0.7261
  159DOPC   O1419126   6.512   1.231  10.918  0.2861  0.3346  0.0099
  159DOPC   O1219127   6.316   1.078  10.885 -0.2514 -0.0262  0.1168
  159DOPC   O1119128   6.381   1.237  10.709  0.1991 -0.4622 -0.4737
  159DOPC    C119129   6.244   1.211  10.656 -0.3435 -0.2028  0.7653
  159DOPC    HA19130   6.157   1.253  10.711 -2.9596 -0.6913 -2.6368
  159DOPC    HB19131   6.215   1.104  10.644 -1.0240 -0.0936  1.3412
  159DOPC    C219132   6.251   1.267  10.511  0.3906 -0.0795 -0.7494
  159DOPC    HS19133   6.162   1.236  10.453  0.3171 -1.5614  0.1040
  159DOPC   O2119134   6.370   1.241  10.438 -0.1846  0.0174 -0.7081
  159DOPC   C2119135   6.380   1.124  10.383  0.5247  0.2664  0.6577
  159DOPC   O2219136   6.304   1.028  10.410 -0.3311  0.4404 -0.1691
  159DOPC   C2219137   6.494   1.112  10.289  0.2482  0.3333  0.4191
  159DOPC   H2R19138   6.581   1.145  10.350 -1.6762  1.0584  2.9183
  159DOPC   H2S19139   6.479   1.197  10.218  1.8694 -0.1472 -0.5574
  159DOPC    C319140   6.230   1.423  10.518 -0.5530  0.5449 -0.0534
  159DOPC    HX19141   6.331   1.462  10.542  1.1385 -1.7180 -2.9258
  159DOPC    HY19142   6.163   1.453  10.601  0.3168 -0.3505  0.9910
  159DOPC   O3119143   6.182   1.478  10.396 -0.0535 -0.4882 -0.0027
  159DOPC   C3119144   6.049   1.463  10.373 -0.1528 -0.4594  0.1505
  159DOPC   O3219145   5.971   1.401  10.440 -0.4236  0.1661 -0.0298
  159DOPC   C3219146   6.003   1.532  10.241  0.3792  0.0842  0.2201
  159DOPC   H2X19147   5.976   1.638  10.259 -0.3522  0.5230 -2.9168
  159DOPC   H2Y19148   6.088   1.535  10.169  0.2131 -3.0379 -0.2484
  159DOPC   C2319149   6.522   0.978  10.227  0.3326 -0.4829 -0.8456
  159DOPC   H3R19150   6.423   0.947  10.186 -0.4790 -0.0849  0.7667
  159DOPC   H3S19151   6.551   0.908  10.308  1.0604  2.3077  1.4537
  159DOPC   C2419152   6.636   0.971  10.116 -0.2995 -0.5668 -0.6458
  159DOPC   H4R19153   6.718   1.035  10.155 -2.3697  1.5623  0.4326
  159DOPC   H4S19154   6.598   1.021  10.025 -0.8605 -2.7573 -1.6871
  159DOPC   C2519155   6.702   0.831  10.099 -0.8178  0.1259 -0.3079
  159DOPC   H5R19156   6.681   0.782  10.002  1.4329 -1.8512  0.1238
  159DOPC   H5S19157   6.641   0.772  10.171 -1.6577 -0.7992 -1.7410
  159DOPC   C2619158   6.852   0.823  10.128 -0.3396  0.5835 -0.4994
  159DOPC   H6R19159   6.885   0.890  10.210  3.8088 -0.3408 -1.1832
  159DOPC   H6S19160   6.904   0.868  10.041  2.0273 -1.7817 -0.4478
  159DOPC   C2719161   6.906   0.682  10.155 -0.1074  0.0738 -0.0135
  159DOPC   H7R19162   6.928   0.617  10.068  0.7865  0.1412  0.1550
  159DOPC   H7S19163   6.824   0.632  10.212  0.7041  0.8369  1.9131
  159DOPC   C2819164   7.027   0.690  10.255  0.9914 -0.5098  0.3723
  159DOPC   H8R19165   7.053   0.591  10.297  0.4255  0.4947  3.3603
  159DOPC   H8S19166   6.998   0.752  10.343 -0.9732 -1.8989  0.7464
  159DOPC   C2919167   7.149   0.762  10.190  0.3335  0.2830 -0.2718
  159DOPC   H9R19168   7.140   0.869  10.166 -1.9056  0.4227  0.9547
  159DOPC  C21019169   7.258   0.700  10.140 -0.3804  0.3695  0.1644
  159DOPC  H10R19170   7.351   0.753  10.113 -0.0082 -1.1538 -1.7295
  159DOPC  C21119171   7.277   0.552  10.164 -0.3150  0.5808  0.1942
  159DOPC  H11R19172   7.226   0.516  10.255 -0.7519 -0.7347 -0.5451
  159DOPC  H11S19173   7.386   0.538  10.182 -0.5621 -0.3417  0.9988
  159DOPC  C21219174   7.235   0.457  10.047 -0.1459 -0.3248 -0.1204
  159DOPC  H12R19175   7.286   0.477   9.950  0.0587 -0.4780 -0.0431
  159DOPC  H12S19176   7.124   0.464  10.039 -0.1811  1.9277  1.4312
  159DOPC  C21319177   7.266   0.308  10.083 -0.3325 -0.1332 -0.0473
  159DOPC  H13R19178   7.206   0.236  10.024 -0.7866  1.2363 -1.3038
  159DOPC  H13S19179   7.246   0.295  10.192  1.5965  1.2403  0.5279
  159DOPC  C21419180   7.417   0.267  10.057  0.7746 -1.3163  0.3988
  159DOPC  H14R19181   7.481   0.328  10.124  0.7017  1.3640 -1.7797
  159DOPC  H14S19182   7.440   0.279   9.949  0.4397  0.0920  0.4741
  159DOPC  C21519183   7.454   0.120  10.086  0.3225  0.2590  0.2543
  159DOPC  H15R19184   7.399   0.051  10.019  2.1159 -0.0996 -0.9284
  159DOPC  H15S19185   7.420   0.099  10.189 -1.1546 -1.6818 -0.5851
  159DOPC  C21619186   7.603   0.104  10.065 -0.4039 -0.2420  0.2577
  159DOPC  H16R19187   7.619  -0.005  10.052  1.0998  0.0380 -0.3804
  159DOPC  H16S19188   7.644   0.140  10.162  0.5758  0.1378 -0.2926
  159DOPC  C21719189   7.668   0.175   9.943 -0.1336  0.6536 -0.1067
  159DOPC  H17R19190   7.652   0.285   9.946 -0.1318  0.6741 -0.7648
  159DOPC  H17S19191   7.610   0.151   9.851  0.4068 -1.3357  0.0336
  159DOPC  C21819192   7.814   0.139   9.923  0.3097 -0.4988 -0.1914
  159DOPC  H18R19193   7.822   0.031   9.899 -0.4440 -1.3063  2.7429
  159DOPC  H18S19194   7.856   0.167  10.021  0.3023  0.5315 -0.4724
  159DOPC  H18T19195   7.861   0.193   9.838  0.2698 -0.8810 -0.4610
  159DOPC   C3319196   5.880   1.459  10.168 -0.0369  0.1387 -0.2181
  159DOPC   H3X19197   5.787   1.464  10.228 -0.5283  0.0181 -0.9603
  159DOPC   H3Y19198   5.906   1.353  10.152  2.0414  0.3843  1.1009
  159DOPC   C3419199   5.854   1.532  10.036 -0.9055 -0.2001  0.4107
  159DOPC   H4X19200   5.953   1.539   9.987  0.4238  0.6679  3.0083
  159DOPC   H4Y19201   5.812   1.633  10.054 -1.6070 -0.6433  1.3642
  159DOPC   C3519202   5.733   1.464   9.961 -0.0554  0.2636  0.0671
  159DOPC   H5X19203   5.643   1.479  10.024 -0.5178 -1.2278 -0.1972
  159DOPC   H5Y19204   5.753   1.355   9.966  0.5596  0.3088 -1.1966
  159DOPC   C3619205   5.700   1.509   9.819 -0.0818  0.3339 -1.0561
  159DOPC   H6X19206   5.613   1.444   9.794 -0.0603 -0.1745  0.0936
  159DOPC   H6Y19207   5.663   1.613   9.828  0.7456  0.5227  0.5864
  159DOPC   C3719208   5.818   1.502   9.724 -0.8299 -0.2042  0.3948
  159DOPC   H7X19209   5.896   1.580   9.744  0.0329 -0.6625 -1.0418
  159DOPC   H7Y19210   5.877   1.409   9.740  0.4279  0.7730  1.7405
  159DOPC   C3819211   5.769   1.527   9.581  0.1601  1.0294  0.1288
  159DOPC   H8X19212   5.725   1.629   9.581 -0.3350  0.8338  1.0369
  159DOPC   H8Y19213   5.686   1.454   9.571 -0.7563  1.7023  2.2370
  159DOPC   C3919214   5.885   1.515   9.481  0.2673  0.1296 -0.0596
  159DOPC   H9X19215   5.952   1.602   9.471  0.9979 -0.1583  1.8709
  159DOPC  C31019216   5.920   1.398   9.416  0.4358 -0.2292  0.2580
  159DOPC  H10X19217   6.008   1.387   9.351  0.1418 -1.9498  0.1160
  159DOPC  C31119218   5.840   1.269   9.426  0.0194  0.8909  1.1756
  159DOPC  H11X19219   5.778   1.263   9.518  0.2056  2.5493  1.4403
  159DOPC  H11Y19220   5.903   1.178   9.421 -0.2921  0.6194  2.0677
  159DOPC  C31219221   5.744   1.259   9.300  0.6312 -0.0057 -0.0031
  159DOPC  H12X19222   5.664   1.336   9.298  0.5727 -0.0000  1.3609
  159DOPC  H12Y19223   5.689   1.164   9.313  1.5104 -0.4529  0.5819
  159DOPC  C31319224   5.831   1.244   9.174  0.3284 -0.8109 -0.1848
  159DOPC  H13X19225   5.887   1.338   9.155 -1.0852  0.3884  1.4016
  159DOPC  H13Y19226   5.910   1.166   9.179  0.4746 -0.6739 -0.3518
  159DOPC  C31419227   5.735   1.224   9.050  0.5849 -0.3065 -0.2400
  159DOPC  H14X19228   5.662   1.143   9.067 -0.0419  0.3098  0.0474
  159DOPC  H14Y19229   5.675   1.315   9.029  3.3174  1.7992  0.4478
  159DOPC  C31519230   5.813   1.193   8.925  0.1650 -0.1342 -0.6840
  159DOPC  H15X19231   5.875   1.105   8.953  0.1076 -0.7009 -2.2123
  159DOPC  H15Y19232   5.891   1.267   8.896  1.4188 -1.6728 -1.4133
  159DOPC  C31619233   5.730   1.154   8.803 -0.4932  0.1099  0.1706
  159DOPC  H16X19234   5.665   1.067   8.827 -2.0731  1.5847  1.5719
  159DOPC  H16Y19235   5.660   1.240   8.796 -2.8302 -1.3300  3.3473
  159DOPC  C31719236   5.816   1.129   8.683 -0.0437  0.3179 -0.4198
  159DOPC  H17X19237   5.897   1.205   8.677 -0.7235  0.9449 -3.6861
  159DOPC  H17Y19238   5.862   1.029   8.692 -0.6736  0.0793  0.2750
  159DOPC  C31819239   5.737   1.115   8.551 -0.5173  0.3067  0.3324
  159DOPC  H18X19240   5.682   1.206   8.518 -0.9146  0.1337  0.5039
  159DOPC  H18Y19241   5.812   1.098   8.471  3.0617  0.8362  3.2973
  159DOPC  H18Z19242   5.669   1.027   8.555 -0.5650  0.3714  2.0982
  160DOPC     N19243   1.864   6.470  11.389  0.5933  0.3306 -0.1806
  160DOPC   C1219244   1.807   6.435  11.528 -0.1593 -0.1542  1.0564
  160DOPC  H12A19245   1.793   6.523  11.588  2.4130 -0.3975  2.1108
  160DOPC  H12B19246   1.890   6.379  11.568  0.7328 -0.1103 -0.6189
  160DOPC   C1319247   1.864   6.344  11.302  0.5771  0.0704  0.5720
  160DOPC  H13A19248   1.894   6.379  11.204 -1.0987  2.1210  0.7245
  160DOPC  H13B19249   1.926   6.277  11.360 -0.7443 -0.2650  1.6310
  160DOPC  H13C19250   1.762   6.307  11.303  0.5542  0.1409  1.1384
  160DOPC   C1419251   2.007   6.516  11.400  0.2391 -0.6453 -0.5916
  160DOPC  H14A19252   2.076   6.432  11.401  0.3541 -0.5573  0.4623
  160DOPC  H14B19253   2.028   6.578  11.315 -0.8144 -0.5940 -0.8203
  160DOPC  H14C19254   2.021   6.576  11.489 -2.4085  0.8948 -1.1299
  160DOPC   C1519255   1.781   6.579  11.323  0.6668  0.5732  0.4351
  160DOPC  H15A19256   1.798   6.592  11.217  0.8825 -0.1814  0.3659
  160DOPC  H15B19257   1.801   6.679  11.358  0.0973  1.2156 -1.0058
  160DOPC  H15C19258   1.675   6.559  11.325  0.7135  0.2102 -0.3082
  160DOPC   C1119259   1.667   6.368  11.542 -0.6700  0.3721 -0.1815
  160DOPC  H11A19260   1.632   6.393  11.644 -1.7176 -1.9932  0.1156
  160DOPC  H11B19261   1.594   6.416  11.473  0.9149  0.0296 -2.1951
  160DOPC     P19262   1.568   6.145  11.443 -0.0301  0.1815  0.2138
  160DOPC   O1319263   1.436   6.159  11.509 -0.1259 -0.7005 -0.1591
  160DOPC   O1419264   1.622   6.008  11.411 -0.5615 -0.9077 -0.1580
  160DOPC   O1219265   1.678   6.222  11.529  0.1437  0.3162 -0.7493
  160DOPC   O1119266   1.574   6.230  11.314  0.7779  0.1656  0.6761
  160DOPC    C119267   1.465   6.197  11.228 -0.0885 -0.6219 -0.2731
  160DOPC    HA19268   1.372   6.246  11.263  1.1491  2.3184 -0.8590
  160DOPC    HB19269   1.438   6.089  11.223 -3.6501  0.1492 -0.2096
  160DOPC    C219270   1.500   6.239  11.082 -0.1229  0.3220  0.2651
  160DOPC    HS19271   1.558   6.334  11.079 -1.7332  1.3653  0.6351
  160DOPC   O2119272   1.380   6.255  11.006 -0.4645  0.2580  0.5662
  160DOPC   C2119273   1.309   6.371  11.020 -0.2313  0.1947  0.3493
  160DOPC   O2219274   1.339   6.455  11.103 -0.5087  0.1964 -0.5659
  160DOPC   C2219275   1.201   6.381  10.914  0.3989 -0.3298 -0.2715
  160DOPC   H2R19276   1.106   6.417  10.960  0.7459  0.5898 -0.2720
  160DOPC   H2S19277   1.191   6.290  10.851  3.5929 -1.8750  1.2634
  160DOPC    C319278   1.580   6.132  11.011  0.1709  0.1769  0.1113
  160DOPC    HX19279   1.517   6.041  11.018 -0.5242  0.6234 -0.2672
  160DOPC    HY19280   1.668   6.099  11.071  1.4505 -0.1351 -1.8362
  160DOPC   O3119281   1.626   6.156  10.876 -0.0356  0.7390  0.2245
  160DOPC   C3119282   1.566   6.083  10.779  0.1973 -0.4897  0.3877
  160DOPC   O3219283   1.470   6.008  10.787 -0.5891 -0.6714 -0.7524
  160DOPC   C3219284   1.634   6.124  10.651  0.1525 -0.2503  1.0703
  160DOPC   H2X19285   1.633   6.234  10.639  1.1605 -0.4535 -1.2948
  160DOPC   H2Y19286   1.735   6.081  10.668  0.7217  0.7853  0.4251
  160DOPC   C2319287   1.239   6.502  10.826 -0.3012  0.5224 -0.1673
  160DOPC   H3R19288   1.287   6.589  10.877 -0.4594  1.1658 -1.0929
  160DOPC   H3S19289   1.141   6.543  10.794 -0.0862  0.4930 -0.8632
  160DOPC   C2419290   1.335   6.457  10.711  0.4528  0.2276  0.3856
  160DOPC   H4R19291   1.319   6.351  10.683  3.1162  0.1560 -1.0943
  160DOPC   H4S19292   1.436   6.475  10.754  0.6341  1.3395 -0.4488
  160DOPC   C2519293   1.307   6.540  10.581  0.1671 -0.2141  0.5928
  160DOPC   H5R19294   1.343   6.644  10.589 -1.8032  0.6018 -0.4332
  160DOPC   H5S19295   1.198   6.542  10.559 -0.1917 -2.0791  1.9283
  160DOPC   C2619296   1.381   6.490  10.459  0.3024 -0.4200  0.4773
  160DOPC   H6R19297   1.350   6.386  10.436 -0.0785 -0.3938  0.8524
  160DOPC   H6S19298   1.491   6.493  10.471  0.1343  0.9651  1.9295
  160DOPC   C2719299   1.356   6.578  10.342  0.4092  0.4371 -0.7598
  160DOPC   H7R19300   1.400   6.676  10.371 -3.2779  1.7019  1.2581
  160DOPC   H7S19301   1.247   6.591  10.325  0.7604  2.0496 -2.0969
  160DOPC   C2819302   1.430   6.536  10.210  0.2988  0.3263  0.7651
  160DOPC   H8R19303   1.382   6.448  10.162  0.7511  0.5598 -0.1394
  160DOPC   H8S19304   1.536   6.515  10.234  0.5358  0.2996 -0.2706
  160DOPC   C2919305   1.434   6.646  10.111  0.5820  0.5495  0.5453
  160DOPC   H9R19306   1.442   6.741  10.166  2.1797 -0.1021  1.5108
  160DOPC  C21019307   1.441   6.641   9.983  0.4137  0.0467  0.1083
  160DOPC  H10R19308   1.457   6.737   9.932 -2.3835  0.6430  0.1661
  160DOPC  C21119309   1.463   6.511   9.907  0.3221  0.3510  0.2691
  160DOPC  H11R19310   1.484   6.540   9.802  0.1694  2.8985  0.8795
  160DOPC  H11S19311   1.379   6.438   9.910  0.8517 -0.2356  1.9871
  160DOPC  C21219312   1.588   6.436   9.943 -0.0268  0.6684  0.0672
  160DOPC  H12R19313   1.588   6.409  10.051 -3.2873 -2.8230 -0.5840
  160DOPC  H12S19314   1.677   6.499   9.920 -0.3782  0.9267 -0.6007
  160DOPC  C21319315   1.616   6.298   9.874  0.4355 -0.4069 -0.5585
  160DOPC  H13R19316   1.519   6.246   9.864 -0.3891  0.8129  0.7084
  160DOPC  H13S19317   1.682   6.241   9.943  0.0249 -0.9362 -0.6020
  160DOPC  C21419318   1.668   6.302   9.727 -0.2854 -0.5819  0.0875
  160DOPC  H14R19319   1.598   6.358   9.661  0.7467  0.7877  0.0982
  160DOPC  H14S19320   1.681   6.198   9.690 -0.5883 -0.3324 -0.7482
  160DOPC  C21519321   1.810   6.360   9.738 -0.5107 -0.3760  0.1049
  160DOPC  H15R19322   1.872   6.304   9.811  0.7071 -1.4480 -1.6885
  160DOPC  H15S19323   1.811   6.468   9.768 -1.6052 -0.0542 -0.9616
  160DOPC  C21619324   1.880   6.343   9.606  0.0823  0.1830  0.3176
  160DOPC  H16R19325   1.913   6.237   9.593 -0.2907 -0.0902  1.5017
  160DOPC  H16S19326   1.984   6.382   9.617  0.3966 -0.9519  1.7168
  160DOPC  C21719327   1.817   6.406   9.477 -0.9786 -0.0818  0.2731
  160DOPC  H17R19328   1.789   6.513   9.485 -2.0797 -0.3472  0.2188
  160DOPC  H17S19329   1.721   6.351   9.462  0.3859 -2.0303 -2.0662
  160DOPC  C21819330   1.902   6.375   9.361  0.7189  0.2277  0.4505
  160DOPC  H18R19331   1.999   6.427   9.374  0.8358 -0.3408  1.9618
  160DOPC  H18S19332   1.847   6.394   9.266 -1.4485 -1.0906  1.3679
  160DOPC  H18T19333   1.929   6.267   9.352  2.4620  0.7824 -1.9040
  160DOPC   C3319334   1.592   6.065  10.509 -0.0916 -0.9909  0.4008
  160DOPC   H3X19335   1.570   5.957  10.527 -0.0218 -1.1924 -0.6698
  160DOPC   H3Y19336   1.674   6.082  10.437  1.3715  4.0340  2.7971
  160DOPC   C3419337   1.468   6.138  10.448 -0.5145 -0.3588  0.4981
  160DOPC   H4X19338   1.506   6.226  10.391  1.2930 -1.5020 -0.1357
  160DOPC   H4Y19339   1.406   6.171  10.534  0.2731 -1.1056  1.3757
  160DOPC   C3519340   1.373   6.065  10.346  0.0845 -0.3026  0.7405
  160DOPC   H5X19341   1.288   6.024  10.405  0.9723 -0.2009  2.1304
  160DOPC   H5Y19342   1.416   5.985  10.283 -2.9314 -0.0135 -1.9328
  160DOPC   C3619343   1.309   6.173  10.245 -0.4845 -0.0215  0.2306
  160DOPC   H6X19344   1.242   6.242  10.300  0.3271  2.8458 -2.1223
  160DOPC   H6Y19345   1.388   6.238  10.201 -1.3947 -0.8982 -2.9724
  160DOPC   C3719346   1.236   6.103  10.136  0.5647 -0.5473 -0.5424
  160DOPC   H7X19347   1.310   6.041  10.080  0.7549 -0.1889 -0.6930
  160DOPC   H7Y19348   1.146   6.054  10.178 -1.4659  2.3490 -1.1987
  160DOPC   C3819349   1.194   6.201  10.027 -0.4051 -0.0120 -0.0623
  160DOPC   H8X19350   1.165   6.147   9.935 -1.3797 -2.3531  1.5028
  160DOPC   H8Y19351   1.288   6.254  10.000 -0.9112  0.9885  0.1090
  160DOPC   C3919352   1.090   6.309  10.054  0.0749  0.0330 -0.5940
  160DOPC   H9X19353   1.086   6.339  10.159  0.0122  0.9750 -0.8582
  160DOPC  C31019354   1.002   6.368   9.967  0.8172 -0.4422 -0.6585
  160DOPC  H10X19355   0.935   6.448  10.000 -1.5664 -2.3131 -0.6792
  160DOPC  C31119356   0.991   6.335   9.819 -0.4080 -0.5590 -0.3144
  160DOPC  H11X19357   1.085   6.283   9.790 -0.0762 -1.3369  1.9970
  160DOPC  H11Y19358   0.979   6.430   9.762 -0.3966  0.2602  1.0033
  160DOPC  C31219359   0.869   6.241   9.806  0.6799 -0.3957  0.0383
  160DOPC  H12X19360   0.788   6.282   9.870  0.6747 -1.1392  0.5253
  160DOPC  H12Y19361   0.907   6.149   9.855 -1.4372 -0.6826  1.2736
  160DOPC  C31319362   0.813   6.201   9.673 -0.5575 -0.1992 -0.4057
  160DOPC  H13X19363   0.774   6.286   9.612  1.8703  1.7265  0.5489
  160DOPC  H13Y19364   0.896   6.162   9.611 -0.2479 -0.5096  0.1861
  160DOPC  C31419365   0.700   6.100   9.691  0.0006  0.1558 -0.0041
  160DOPC  H14X19366   0.690   6.067   9.797 -1.6649 -1.1551 -0.5131
  160DOPC  H14Y19367   0.603   6.152   9.678 -0.7372 -0.9227  0.9456
  160DOPC  C31519368   0.709   5.979   9.598  0.1478  0.5928 -0.0655
  160DOPC  H15X19369   0.785   5.905   9.629 -0.4288  0.3982  0.9342
  160DOPC  H15Y19370   0.726   6.020   9.496 -0.1091  0.8574 -0.0034
  160DOPC  C31619371   0.578   5.898   9.573  0.2206  0.0555  0.2042
  160DOPC  H16X19372   0.558   5.838   9.665 -1.6929  0.1839 -0.1079
  160DOPC  H16Y19373   0.509   5.983   9.558  0.2670  0.5728  2.5256
  160DOPC  C31719374   0.569   5.797   9.455  0.4319  0.5307 -1.3691
  160DOPC  H17X19375   0.639   5.715   9.482 -1.5085  0.2880  4.3365
  160DOPC  H17Y19376   0.468   5.750   9.459 -0.4486  2.3977 -0.4108
  160DOPC  C31819377   0.588   5.847   9.309  0.3433 -0.5692  0.0625
  160DOPC  H18X19378   0.638   5.946   9.309  1.5734 -1.1702  0.4337
  160DOPC  H18Y19379   0.637   5.772   9.243 -1.4484  0.7668 -2.9814
  160DOPC  H18Z19380   0.487   5.858   9.263  0.4143  1.1237  0.2448
  161DOPC     N19381   4.515   0.330  11.276 -0.2897  1.1915 -0.1523
  161DOPC   C1219382   4.446   0.205  11.251 -0.2719 -0.6655  0.2728
  161DOPC  H12A19383   4.461   0.169  11.150 -0.0425 -1.9835  0.7636
  161DOPC  H12B19384   4.340   0.221  11.260 -0.3476 -1.6196  1.1283
  161DOPC   C1319385   4.665   0.309  11.274 -0.7489  0.2130 -0.1168
  161DOPC  H13A19386   4.687   0.227  11.340  1.4214  0.1248 -0.8773
  161DOPC  H13B19387   4.707   0.288  11.177  3.5922  1.1483  1.3322
  161DOPC  H13C19388   4.721   0.394  11.308 -0.7824  1.2167 -2.3716
  161DOPC   C1419389   4.490   0.389  11.410  0.2296 -0.0312  0.1181
  161DOPC  H14A19390   4.560   0.467  11.433  0.3779 -0.0479 -0.2698
  161DOPC  H14B19391   4.391   0.427  11.428  0.1500 -0.2959  0.2594
  161DOPC  H14C19392   4.505   0.315  11.488 -1.5794  0.1739  0.7039
  161DOPC   C1519393   4.491   0.435  11.168  0.3646 -0.2982 -0.0267
  161DOPC  H15A19394   4.385   0.456  11.167 -0.1762 -2.3473  2.2725
  161DOPC  H15B19395   4.522   0.397  11.072 -0.5014 -1.0281 -0.0382
  161DOPC  H15C19396   4.546   0.525  11.188 -0.9791  0.9165 -1.5835
  161DOPC   C1119397   4.473   0.089  11.349  0.0964  0.4261 -0.5545
  161DOPC  H11A19398   4.434  -0.006  11.305 -0.9918  0.5060  0.2054
  161DOPC  H11B19399   4.581   0.060  11.347  0.1285  0.5821 -1.2741
  161DOPC     P19400   4.273   0.080  11.526 -0.2350 -0.0071  0.0710
  161DOPC   O1319401   4.214   0.206  11.571 -0.2241  0.4951 -0.5044
  161DOPC   O1419402   4.272  -0.028  11.625 -0.0023  0.2225  0.4755
  161DOPC   O1219403   4.425   0.108  11.483  0.1891 -0.1632 -0.2902
  161DOPC   O1119404   4.199   0.033  11.392 -0.8328  0.7205  0.4267
  161DOPC    C119405   4.059   0.037  11.394 -0.8591  0.7443 -0.5022
  161DOPC    HA19406   4.015   0.133  11.429  0.3031  0.6878  1.2438
  161DOPC    HB19407   4.028  -0.049  11.457 -0.3203  0.7309 -0.2496
  161DOPC    C219408   3.994   0.012  11.256 -0.2149 -0.4646  0.6089
  161DOPC    HS19409   3.884   0.023  11.263 -0.2055 -0.7362  1.2564
  161DOPC   O2119410   4.049  -0.116  11.201  0.5439 -0.4383  0.1556
  161DOPC   C2119411   3.971  -0.214  11.243  0.3197  0.0113  0.5436
  161DOPC   O2219412   3.878  -0.191  11.321 -0.2188 -0.5541  0.0622
  161DOPC   C2219413   3.993  -0.345  11.168  0.5448 -0.0434  0.4720
  161DOPC   H2R19414   3.979  -0.420  11.248  0.0226  0.2463  0.6571
  161DOPC   H2S19415   4.100  -0.342  11.137 -0.1101 -2.0023 -2.3351
  161DOPC    C319416   4.054   0.127  11.163  0.9249 -0.4525  0.1998
  161DOPC    HX19417   4.158   0.148  11.194  0.5315  2.0632  0.0093
  161DOPC    HY19418   4.009   0.225  11.191 -2.1987 -1.7989  0.3843
  161DOPC   O3119419   4.050   0.106  11.019  0.2227 -0.6823  0.2026
  161DOPC   C3119420   4.165   0.063  10.965  0.1154 -0.4099  0.9314
  161DOPC   O3219421   4.276   0.063  11.017  0.1454 -0.3898  0.1677
  161DOPC   C3219422   4.145   0.017  10.818 -0.4971 -0.1020  0.0319
  161DOPC   H2X19423   4.244  -0.025  10.788 -1.4515  0.2847 -4.4539
  161DOPC   H2Y19424   4.066  -0.060  10.809 -1.3066  0.4102  2.2005
  161DOPC   C2319425   3.900  -0.356  11.048 -0.0447  0.5966 -0.3149
  161DOPC   H3R19426   3.796  -0.329  11.073 -0.4361  1.1495 -2.3000
  161DOPC   H3S19427   3.908  -0.460  11.008  1.5839  0.9784 -1.0803
  161DOPC   C2419428   3.953  -0.276  10.924 -0.2209 -0.0783 -0.0736
  161DOPC   H4R19429   4.055  -0.314  10.906  0.5227  0.9691  1.6981
  161DOPC   H4S19430   3.973  -0.169  10.947  2.3098  0.1826 -2.9396
  161DOPC   C2519431   3.859  -0.293  10.805 -0.9878  0.3791 -0.3477
  161DOPC   H5R19432   3.821  -0.398  10.804 -1.2774  0.4742  0.2462
  161DOPC   H5S19433   3.906  -0.272  10.706 -1.2413  1.4391 -0.2562
  161DOPC   C2619434   3.735  -0.202  10.805 -0.1677  0.3682  0.3976
  161DOPC   H6R19435   3.770  -0.097  10.819  1.2308  0.2411 -1.7466
  161DOPC   H6S19436   3.678  -0.222  10.898 -0.7369  0.8974  0.1795
  161DOPC   C2719437   3.648  -0.220  10.683 -0.4838  0.0306  0.7095
  161DOPC   H7R19438   3.644  -0.330  10.666  2.1769 -0.0386  0.0808
  161DOPC   H7S19439   3.703  -0.179  10.595  2.3661 -2.1883  1.3000
  161DOPC   C2819440   3.499  -0.158  10.697  0.7373  0.1485  0.0043
  161DOPC   H8R19441   3.449  -0.202  10.786  0.0503 -3.0249 -1.7857
  161DOPC   H8S19442   3.434  -0.191  10.613 -1.2175  0.9317  1.1619
  161DOPC   C2919443   3.488  -0.008  10.735 -1.0378  1.2404  0.4806
  161DOPC   H9R19444   3.546   0.031  10.820  2.4582 -1.1159 -0.6291
  161DOPC  C21019445   3.395   0.072  10.680 -0.3720  0.7940 -0.3751
  161DOPC  H10R19446   3.397   0.176  10.715 -0.0040  0.8904 -0.6807
  161DOPC  C21119447   3.294   0.038  10.567  0.1760  0.2522  0.4762
  161DOPC  H11R19448   3.315  -0.055  10.512 -0.1349 -1.6586  3.3736
  161DOPC  H11S19449   3.304   0.118  10.491  1.3253 -0.5894 -0.2785
  161DOPC  C21219450   3.152   0.020  10.628  0.5774  0.0253  0.2158
  161DOPC  H12R19451   3.121   0.118  10.669  1.7711  0.8809 -0.8299
  161DOPC  H12S19452   3.141  -0.060  10.704  1.1555 -0.0169  0.2586
  161DOPC  C21319453   3.056  -0.031  10.522 -0.2319 -0.1710 -0.4465
  161DOPC  H13R19454   3.102  -0.121  10.476 -0.0581 -0.0335 -0.5422
  161DOPC  H13S19455   3.051   0.042  10.439  0.1088 -1.4292 -1.6152
  161DOPC  C21419456   2.910  -0.063  10.580  0.1198  0.1469  0.4564
  161DOPC  H14R19457   2.858   0.020  10.632  1.5982 -1.0760  4.2303
  161DOPC  H14S19458   2.926  -0.139  10.659  2.4387 -0.9986 -0.9991
  161DOPC  C21519459   2.820  -0.128  10.472  0.2210  0.1441  0.3935
  161DOPC  H15R19460   2.886  -0.196  10.414 -0.3462 -1.9846  2.1322
  161DOPC  H15S19461   2.786  -0.042  10.410  2.0095  1.7804  1.5263
  161DOPC  C21619462   2.703  -0.204  10.526  0.8496  0.2401  0.8406
  161DOPC  H16R19463   2.626  -0.229  10.450 -0.0500  0.4373  1.6714
  161DOPC  H16S19464   2.649  -0.141  10.600  0.3827  1.4301 -0.4740
  161DOPC  C21719465   2.737  -0.347  10.583 -0.1973 -0.0442  0.0128
  161DOPC  H17R19466   2.638  -0.378  10.625 -0.9005  1.3512 -0.5335
  161DOPC  H17S19467   2.813  -0.352  10.663  0.0289 -2.2306 -0.2843
  161DOPC  C21819468   2.776  -0.448  10.476 -0.2579 -0.0475  0.3884
  161DOPC  H18R19469   2.684  -0.483  10.425 -0.6851  0.9703  0.4508
  161DOPC  H18S19470   2.826  -0.540  10.512  2.2804  1.2237  0.3748
  161DOPC  H18T19471   2.843  -0.410  10.396 -0.6524  0.6924  0.4024
  161DOPC   C3319472   4.091   0.131  10.721  0.1544  0.7512 -0.0434
  161DOPC   H3X19473   4.171   0.203  10.695  1.6150  0.1238  2.3868
  161DOPC   H3Y19474   4.016   0.188  10.779 -1.5027  0.1470 -1.4989
  161DOPC   C3419475   4.011   0.075  10.595 -0.3069  0.1261 -0.0794
  161DOPC   H4X19476   3.989   0.174  10.551  1.3538  0.7810  0.4545
  161DOPC   H4Y19477   3.924   0.009  10.617  1.4951 -3.1500 -1.9065
  161DOPC   C3519478   4.085  -0.026  10.509 -0.3201 -0.0872  0.4282
  161DOPC   H5X19479   4.110  -0.118  10.566  2.2896  0.6918  0.6641
  161DOPC   H5Y19480   4.178   0.011  10.461  1.1488 -2.6353  1.1257
  161DOPC   C3619481   3.998  -0.062  10.389  0.1116 -0.7744  0.2436
  161DOPC   H6X19482   4.037  -0.153  10.338  0.4942  0.0847 -1.0604
  161DOPC   H6Y19483   3.902  -0.102  10.427  0.4387 -0.8613  0.9880
  161DOPC   C3719484   3.975   0.053  10.292  0.0824  0.4194  0.6093
  161DOPC   H7X19485   3.919   0.139  10.335 -1.6924  0.4935 -1.6925
  161DOPC   H7Y19486   4.075   0.078  10.250 -1.1704  0.0637 -2.9280
  161DOPC   C3819487   3.883   0.006  10.169 -0.1475 -0.0066 -0.2976
  161DOPC   H8X19488   3.856   0.093  10.105  0.7910  0.7375  0.2868
  161DOPC   H8Y19489   3.790  -0.036  10.211 -1.2203  1.6154 -0.9434
  161DOPC   C3919490   3.957  -0.091  10.081 -0.3180 -0.5179 -0.2337
  161DOPC   H9X19491   3.970  -0.183  10.138  0.4827 -0.0848  0.2963
  161DOPC  C31019492   3.996  -0.072   9.960 -0.5234 -0.3311  0.0268
  161DOPC  H10X19493   4.044  -0.153   9.904  0.2478  0.9248 -1.1872
  161DOPC  C31119494   3.981   0.057   9.883  0.1064 -0.6510  0.3502
  161DOPC  H11X19495   4.064   0.084   9.814  0.5878 -1.5663  0.5563
  161DOPC  H11Y19496   3.991   0.132   9.964  1.7843 -2.3196  1.7745
  161DOPC  C31219497   3.847   0.056   9.813  1.1997 -0.6992  0.0518
  161DOPC  H12X19498   3.764   0.002   9.864  1.2144 -0.9843 -0.2277
  161DOPC  H12Y19499   3.860  -0.003   9.720 -0.2719 -0.6565 -0.2032
  161DOPC  C31319500   3.799   0.200   9.791  0.4449  0.1905  0.9152
  161DOPC  H13X19501   3.795   0.233   9.897 -0.1520  0.6090  0.7646
  161DOPC  H13Y19502   3.881   0.257   9.741  1.6925 -2.4874 -0.3445
  161DOPC  C31419503   3.658   0.219   9.723 -0.2172  0.1498 -0.8492
  161DOPC  H14X19504   3.596   0.135   9.760  0.0795 -1.1461 -3.0823
  161DOPC  H14Y19505   3.626   0.319   9.759 -0.9514  0.7403 -2.9617
  161DOPC  C31519506   3.674   0.230   9.571  0.4136  0.5264 -0.1367
  161DOPC  H15X19507   3.678   0.124   9.536  1.3007 -0.9527  3.8885
  161DOPC  H15Y19508   3.759   0.297   9.549 -1.8333  2.8646 -2.2119
  161DOPC  C31619509   3.540   0.287   9.509 -0.0336 -0.5065 -0.0254
  161DOPC  H16X19510   3.457   0.213   9.503 -2.9892  2.0764  3.6836
  161DOPC  H16Y19511   3.499   0.360   9.582  0.5135  0.3409 -0.5572
  161DOPC  C31719512   3.579   0.346   9.375  0.1736 -0.4084 -0.2840
  161DOPC  H17X19513   3.671   0.409   9.375  0.0928 -0.2875 -0.0575
  161DOPC  H17Y19514   3.600   0.252   9.320 -0.6972 -0.6873 -0.1618
  161DOPC  C31819515   3.477   0.437   9.308  0.2083 -0.1662 -0.1744
  161DOPC  H18X19516   3.520   0.492   9.221  1.7040 -0.1748  0.5256
  161DOPC  H18Y19517   3.384   0.379   9.289  0.6303 -0.4908 -1.3630
  161DOPC  H18Z19518   3.451   0.522   9.375 -0.8091 -1.6523  1.3838
  162DOPC     N19519   0.705   5.470  11.435  0.1010 -0.3252  0.2462
  162DOPC   C1219520   0.751   5.403  11.308  0.4232  0.1041  0.4039
  162DOPC  H12A19521   0.661   5.386  11.250  0.9863  1.4514 -0.9301
  162DOPC  H12B19522   0.788   5.306  11.335 -0.0777 -0.0606  0.5225
  162DOPC   C1319523   0.635   5.597  11.388 -0.6959 -0.3619 -0.1635
  162DOPC  H13A19524   0.705   5.652  11.327 -4.0697  3.0067 -1.3640
  162DOPC  H13B19525   0.546   5.579  11.330 -2.6264  0.0864  2.4693
  162DOPC  H13C19526   0.588   5.659  11.463 -0.7190  1.0631 -1.3141
  162DOPC   C1419527   0.822   5.505  11.527 -0.8405  0.6582  0.2224
  162DOPC  H14A19528   0.790   5.567  11.609 -0.3339  0.4979  0.5429
  162DOPC  H14B19529   0.861   5.412  11.565 -1.5256  0.2835  0.0448
  162DOPC  H14C19530   0.900   5.551  11.469 -0.8358  0.2018 -0.1383
  162DOPC   C1519531   0.608   5.384  11.507  0.0023 -0.4894 -0.6608
  162DOPC  H15A19532   0.527   5.355  11.442 -2.1792  2.1452  0.6810
  162DOPC  H15B19533   0.570   5.435  11.595  1.6579  0.0113 -0.1994
  162DOPC  H15C19534   0.646   5.289  11.541 -1.1837  0.0943  2.6913
  162DOPC   C1119535   0.850   5.473  11.214  0.6719  0.0145 -0.2733
  162DOPC  H11A19536   0.886   5.400  11.138 -0.6588  0.8569 -1.7506
  162DOPC  H11B19537   0.795   5.555  11.164 -2.2104 -1.4023  0.3737
  162DOPC     P19538   1.101   5.438  11.299  0.0666 -0.1670 -0.1571
  162DOPC   O1319539   1.067   5.306  11.357  0.0440  0.5199 -0.3979
  162DOPC   O1419540   1.192   5.517  11.387  0.0390  0.2256 -0.5101
  162DOPC   O1219541   0.971   5.516  11.274  0.7376 -0.6179 -0.3696
  162DOPC   O1119542   1.156   5.423  11.161 -0.1449 -0.2998 -0.3317
  162DOPC    C119543   1.202   5.544  11.098 -0.1482  0.1815  0.3559
  162DOPC    HA19544   1.290   5.586  11.152 -1.0967  0.0367  2.0654
  162DOPC    HB19545   1.126   5.623  11.111 -1.9311 -1.3762 -0.2330
  162DOPC    C219546   1.239   5.541  10.947  0.0634  0.0211  0.0510
  162DOPC    HS19547   1.223   5.643  10.908 -2.6353 -1.0447 -1.9674
  162DOPC   O2119548   1.141   5.461  10.880  0.5180  0.8749 -0.2915
  162DOPC   C2119549   1.024   5.505  10.858  0.0366  0.6807  0.3881
  162DOPC   O2219550   0.986   5.621  10.877  0.3015 -0.3405  0.4707
  162DOPC   C2219551   0.929   5.393  10.824 -0.0025  1.0855  0.0280
  162DOPC   H2R19552   0.915   5.336  10.919  2.2560  0.5161  0.0865
  162DOPC   H2S19553   0.985   5.318  10.764 -0.4576 -1.3560  2.4530
  162DOPC    C319554   1.381   5.482  10.918  0.5848 -0.0958  0.6376
  162DOPC    HX19555   1.382   5.372  10.935  1.7226 -0.4189 -1.1875
  162DOPC    HY19556   1.452   5.543  10.977 -0.5527  4.2316 -2.0213
  162DOPC   O3119557   1.419   5.493  10.778 -0.0131 -0.2747  0.4866
  162DOPC   C3119558   1.447   5.619  10.730 -0.0188 -0.1485 -0.3463
  162DOPC   O3219559   1.476   5.714  10.798  0.4378  0.6778  0.0233
  162DOPC   C3219560   1.434   5.629  10.579 -0.1857  0.7630  0.1573
  162DOPC   H2X19561   1.534   5.652  10.536  0.5086 -1.0826  0.7173
  162DOPC   H2Y19562   1.411   5.528  10.540 -2.6737  0.4810  2.1475
  162DOPC   C2319563   0.802   5.437  10.754  0.8795  0.0781  0.1235
  162DOPC   H3R19564   0.770   5.529  10.809 -1.3043 -1.3204  1.3396
  162DOPC   H3S19565   0.728   5.355  10.764  1.8446 -1.4611 -3.6038
  162DOPC   C2419566   0.815   5.459  10.600  0.6062  0.3904 -0.1509
  162DOPC   H4R19567   0.894   5.532  10.571 -0.6163  1.2880 -1.3860
  162DOPC   H4S19568   0.719   5.494  10.557  0.7914 -2.4299 -3.2603
  162DOPC   C2519569   0.841   5.328  10.520  0.2628  0.4408 -0.0000
  162DOPC   H5R19570   0.758   5.255  10.536 -0.6289  1.1825 -1.1360
  162DOPC   H5S19571   0.938   5.278  10.543 -0.6316 -1.3638  0.0767
  162DOPC   C2619572   0.855   5.354  10.366  0.3808 -0.0713 -0.2116
  162DOPC   H6R19573   0.947   5.412  10.344 -0.2070  1.8659  2.0533
  162DOPC   H6S19574   0.769   5.417  10.333  1.8712  2.3027  0.1826
  162DOPC   C2719575   0.850   5.220  10.286  0.5569 -0.2379  0.3212
  162DOPC   H7R19576   0.761   5.159  10.312 -1.0806  0.9976 -1.9635
  162DOPC   H7S19577   0.948   5.169  10.295  0.5455 -0.4752 -0.7600
  162DOPC   C2819578   0.849   5.250  10.132  0.2593 -0.4133  0.5564
  162DOPC   H8R19579   0.933   5.320  10.113 -0.6162  0.5955  0.3183
  162DOPC   H8S19580   0.753   5.304  10.115 -0.6811 -1.4112  2.4220
  162DOPC   C2919581   0.862   5.111  10.067  0.0316 -0.6261  0.7372
  162DOPC   H9R19582   0.959   5.060  10.074  0.3301 -0.4242 -1.3275
  162DOPC  C21019583   0.768   5.059   9.988  0.3855 -0.4606  0.1725
  162DOPC  H10R19584   0.804   4.972   9.930  1.3839  0.5976 -0.8501
  162DOPC  C21119585   0.638   5.120   9.954  0.1706 -0.0570  0.7482
  162DOPC  H11R19586   0.596   5.181  10.036 -0.7269  0.3718 -0.0135
  162DOPC  H11S19587   0.560   5.042   9.940  0.3542 -0.4406  1.7572
  162DOPC  C21219588   0.643   5.214   9.831  0.2671  0.4237  0.5172
  162DOPC  H12R19589   0.709   5.302   9.844 -0.1360  1.0379 -1.3736
  162DOPC  H12S19590   0.539   5.245   9.805 -0.4259  0.0557  2.6694
  162DOPC  C21319591   0.683   5.142   9.707 -0.5305 -0.1753 -0.2092
  162DOPC  H13R19592   0.601   5.072   9.679 -1.5265  1.9961 -3.3355
  162DOPC  H13S19593   0.777   5.084   9.714  0.0133  0.5938 -0.9659
  162DOPC  C21419594   0.695   5.238   9.590 -0.4154 -0.3220  0.9374
  162DOPC  H14R19595   0.742   5.182   9.506  0.6707 -0.7509  1.8150
  162DOPC  H14S19596   0.769   5.318   9.608 -0.2048 -0.7598  2.1080
  162DOPC  C21519597   0.566   5.294   9.533 -0.2726 -0.4750  0.6563
  162DOPC  H15R19598   0.516   5.365   9.602 -0.5682  1.3810 -1.3326
  162DOPC  H15S19599   0.495   5.213   9.508  0.9586 -1.5371  0.5319
  162DOPC  C21619600   0.591   5.372   9.400  0.0187 -0.0630 -0.4108
  162DOPC  H16R19601   0.647   5.309   9.328 -1.5035 -0.9888 -0.8190
  162DOPC  H16S19602   0.650   5.464   9.421 -2.1462  1.2521  0.2324
  162DOPC  C21719603   0.465   5.425   9.327  0.4982 -0.1434 -0.0695
  162DOPC  H17R19604   0.406   5.494   9.391  1.2398  2.0769 -1.6222
  162DOPC  H17S19605   0.407   5.332   9.309  1.4389 -0.9736  1.0572
  162DOPC  C21819606   0.484   5.493   9.187 -0.1120 -0.4649  0.1160
  162DOPC  H18R19607   0.499   5.414   9.111  1.5021 -0.5097  0.4561
  162DOPC  H18S19608   0.565   5.568   9.197 -0.5400  0.0448 -0.1576
  162DOPC  H18T19609   0.389   5.546   9.161  0.3906 -0.3295 -1.5507
  162DOPC   C3319610   1.326   5.726  10.534 -0.3720 -0.1826  0.2215
  162DOPC   H3X19611   1.338   5.769  10.432 -2.9089  0.3289  0.0608
  162DOPC   H3Y19612   1.320   5.818  10.596 -1.6902  0.0325 -0.1950
  162DOPC   C3419613   1.193   5.650  10.535 -0.3553 -0.0553  0.5767
  162DOPC   H4X19614   1.131   5.665  10.626 -0.4197  1.8280  0.2705
  162DOPC   H4Y19615   1.216   5.542  10.528  0.6188  0.2443 -1.5832
  162DOPC   C3519616   1.110   5.671  10.409  0.3518 -0.0227  0.2051
  162DOPC   H5X19617   1.017   5.610  10.408 -0.8005  1.6277 -0.1028
  162DOPC   H5Y19618   1.171   5.645  10.320 -1.2144  0.1607 -0.9676
  162DOPC   C3619619   1.062   5.816  10.387  0.0342  0.3727  0.0184
  162DOPC   H6X19620   1.034   5.871  10.480 -1.6036 -1.0461  0.4185
  162DOPC   H6Y19621   1.145   5.878  10.347  0.8707 -1.3789 -1.0747
  162DOPC   C3719622   0.951   5.830  10.287 -0.3942  0.1266  0.2850
  162DOPC   H7X19623   0.855   5.793  10.330 -0.1385  0.0567  0.7976
  162DOPC   H7Y19624   0.938   5.938  10.266 -2.1156  0.4981  2.8243
  162DOPC   C3819625   0.983   5.765  10.148 -0.4742 -0.4696 -0.5958
  162DOPC   H8X19626   0.962   5.657  10.164 -1.5694 -0.1362  0.3218
  162DOPC   H8Y19627   1.092   5.781  10.131 -0.2573 -0.3239  0.7687
  162DOPC   C3919628   0.901   5.824  10.039 -0.8190 -0.3295 -0.0683
  162DOPC   H9X19629   0.881   5.932  10.042 -1.7308 -0.5086  1.4934
  162DOPC  C31019630   0.852   5.751   9.942 -0.2489 -0.3420  0.5212
  162DOPC  H10X19631   0.799   5.800   9.859 -0.7374  0.2423  1.1678
  162DOPC  C31119632   0.871   5.607   9.910 -0.6622 -0.0943  0.3352
  162DOPC  H11X19633   0.777   5.565   9.868 -0.3804  0.4390 -0.8445
  162DOPC  H11Y19634   0.882   5.541   9.999  0.0790 -2.0249 -1.1067
  162DOPC  C31219635   0.975   5.585   9.804 -0.1579  0.0596 -0.0204
  162DOPC  H12X19636   1.004   5.478   9.798 -0.2054 -0.0662  1.5260
  162DOPC  H12Y19637   1.068   5.635   9.839 -0.4020  0.2961  0.3003
  162DOPC  C31319638   0.945   5.640   9.664  0.1460 -0.1470  0.0087
  162DOPC  H13X19639   0.838   5.635   9.636  0.0248  1.5304  0.0823
  162DOPC  H13Y19640   0.981   5.745   9.658 -0.8184  0.2593  1.0219
  162DOPC  C31419641   1.027   5.563   9.556 -0.0421 -1.1535  0.4207
  162DOPC  H14X19642   1.132   5.599   9.549 -0.1304 -0.7680  0.9969
  162DOPC  H14Y19643   1.028   5.456   9.583  2.0919 -0.8922  1.5963
  162DOPC  C31519644   0.964   5.583   9.421  0.0201  0.0957  0.7490
  162DOPC  H15X19645   0.862   5.539   9.418 -0.0861  0.3423 -1.6961
  162DOPC  H15Y19646   1.023   5.518   9.353  0.5861  0.1859  1.1498
  162DOPC  C31619647   0.979   5.734   9.388 -0.4990 -0.1281 -0.1055
  162DOPC  H16X19648   0.894   5.793   9.427  0.3924 -0.2384  2.1626
  162DOPC  H16Y19649   1.069   5.785   9.427 -1.1629  1.9587 -1.1655
  162DOPC  C31719650   0.966   5.740   9.236  0.0032 -0.3424 -0.4466
  162DOPC  H17X19651   1.050   5.687   9.188 -1.0460 -0.7155 -1.9604
  162DOPC  H17Y19652   0.881   5.686   9.189 -0.7189  2.3137 -2.4538
  162DOPC  C31819653   0.966   5.883   9.181  0.3803 -0.0327 -0.1402
  162DOPC  H18X19654   1.057   5.929   9.224 -1.1682  2.2809  0.8197
  162DOPC  H18Y19655   0.965   5.880   9.070  0.1074 -1.2056 -0.1277
  162DOPC  H18Z19656   0.874   5.935   9.215 -0.0939 -1.3421  0.6739
  163DOPC     N19657   0.563   1.810  11.578 -0.1773 -0.3286  0.1951
  163DOPC   C1219658   0.437   1.765  11.511  0.1073 -0.2773  0.3279
  163DOPC  H12A19659   0.355   1.818  11.556  0.8736 -0.3025  1.7991
  163DOPC  H12B19660   0.412   1.664  11.542 -0.5767  0.0019  0.6888
  163DOPC   C1319661   0.692   1.765  11.502  0.2966 -0.1135  0.1026
  163DOPC  H13A19662   0.701   1.658  11.510 -0.1364 -0.2894 -1.4080
  163DOPC  H13B19663   0.685   1.778  11.395  0.2796 -0.7737  0.0175
  163DOPC  H13C19664   0.779   1.812  11.546 -0.7615  2.1177 -0.0894
  163DOPC   C1419665   0.572   1.756  11.719 -0.6349  0.0705  0.2269
  163DOPC  H14A19666   0.609   1.654  11.711  0.0570 -0.0057  3.1276
  163DOPC  H14B19667   0.643   1.806  11.783  1.4210 -1.1715 -0.9568
  163DOPC  H14C19668   0.472   1.765  11.760 -0.8707 -0.1923 -0.2884
  163DOPC   C1519669   0.578   1.958  11.580 -0.1591 -0.2536 -0.6354
  163DOPC  H15A19670   0.671   1.990  11.624  0.2206 -1.9294 -0.1669
  163DOPC  H15B19671   0.493   2.009  11.623  1.4717  2.4461 -0.3969
  163DOPC  H15C19672   0.587   1.997  11.480 -1.4547  2.0577  0.0773
  163DOPC   C1119673   0.428   1.789  11.357 -0.3983  0.0121 -0.7609
  163DOPC  H11A19674   0.514   1.730  11.317 -0.7024 -1.2414  0.3623
  163DOPC  H11B19675   0.344   1.739  11.304  0.6775 -1.7358 -0.8818
  163DOPC     P19676   0.388   1.978  11.184 -0.1384  0.0561 -0.0779
  163DOPC   O1319677   0.460   2.102  11.161 -0.1404 -0.0934  0.4442
  163DOPC   O1419678   0.239   1.977  11.187  0.4153 -0.4891  0.9412
  163DOPC   O1219679   0.437   1.931  11.325  0.1766 -0.1053  0.2100
  163DOPC   O1119680   0.446   1.868  11.082  0.5026 -0.4339 -0.1869
  163DOPC    C119681   0.589   1.855  11.077  0.4386  0.6274 -0.2296
  163DOPC    HA19682   0.614   1.755  11.117 -1.1572 -0.2034 -1.2155
  163DOPC    HB19683   0.648   1.925  11.140  0.1160 -1.2655  2.3117
  163DOPC    C219684   0.632   1.857  10.931 -0.5539  0.4310  0.3702
  163DOPC    HS19685   0.742   1.846  10.925 -0.6673 -1.7345  1.2597
  163DOPC   O2119686   0.594   1.988  10.874  0.3115  0.2177 -0.2507
  163DOPC   C2119687   0.667   2.092  10.895  0.0513 -0.6107  0.6373
  163DOPC   O2219688   0.776   2.101  10.950  0.1352  0.3455  0.1733
  163DOPC   C2219689   0.607   2.231  10.836 -0.2820  0.3075  0.1361
  163DOPC   H2R19690   0.643   2.309  10.907 -0.7119 -1.0169  1.8995
  163DOPC   H2S19691   0.499   2.207  10.844 -0.1174 -0.6106 -0.2639
  163DOPC    C319692   0.574   1.745  10.845 -1.0666  0.8948  0.4883
  163DOPC    HX19693   0.464   1.751  10.862 -1.1718  0.5715 -0.0368
  163DOPC    HY19694   0.621   1.655  10.889 -0.0277  0.1542 -1.9702
  163DOPC   O3119695   0.610   1.741  10.701  0.5763  0.5125 -0.0258
  163DOPC   C3119696   0.506   1.764  10.612  0.1084  0.6916 -1.0342
  163DOPC   O3219697   0.393   1.794  10.646 -0.0550 -0.3094  0.6275
  163DOPC   C3219698   0.544   1.702  10.481  0.1170  0.1959  0.0325
  163DOPC   H2X19699   0.649   1.666  10.485 -0.0646 -0.2979  2.7023
  163DOPC   H2Y19700   0.495   1.602  10.474 -0.9990  0.7977 -1.0601
  163DOPC   C2319701   0.651   2.239  10.690  0.5604  0.4584 -0.1231
  163DOPC   H3R19702   0.762   2.239  10.690  0.5707  1.0923 -0.6631
  163DOPC   H3S19703   0.625   2.338  10.646  0.2850  0.2905 -0.3436
  163DOPC   C2419704   0.599   2.132  10.598 -0.0741 -0.5610  0.6367
  163DOPC   H4R19705   0.497   2.143  10.557  0.7394  0.6940 -1.1783
  163DOPC   H4S19706   0.595   2.033  10.648 -0.9868 -1.5302 -1.2570
  163DOPC   C2519707   0.695   2.111  10.482  0.1370  0.4388 -0.0191
  163DOPC   H5R19708   0.703   2.003  10.460 -1.3211  0.4825 -0.8753
  163DOPC   H5S19709   0.802   2.138  10.493 -0.1153  2.0836 -1.1832
  163DOPC   C2619710   0.648   2.181  10.358 -0.5421 -0.5384  0.2756
  163DOPC   H6R19711   0.613   2.283  10.383 -1.0096 -1.0848  2.0518
  163DOPC   H6S19712   0.559   2.129  10.315  0.2597 -1.3852 -0.4110
  163DOPC   C2719713   0.761   2.184  10.258  0.3533  0.0367 -0.1415
  163DOPC   H7R19714   0.799   2.081  10.239 -2.9178 -1.1740 -0.7148
  163DOPC   H7S19715   0.851   2.241  10.290  2.6314 -3.6826  0.6572
  163DOPC   C2819716   0.721   2.246  10.129  0.1007  0.1083 -0.6360
  163DOPC   H8R19717   0.673   2.344  10.153 -0.3756 -0.0730 -0.8280
  163DOPC   H8S19718   0.642   2.185  10.080 -0.4252 -0.0088  0.3331
  163DOPC   C2919719   0.846   2.274  10.047  0.6770  0.5169 -0.1640
  163DOPC   H9R19720   0.934   2.316  10.098  0.3196 -1.0179  1.8703
  163DOPC  C21019721   0.854   2.253   9.916 -0.1147 -0.1933 -0.1181
  163DOPC  H10R19722   0.950   2.278   9.870 -0.9607  0.4527 -1.6093
  163DOPC  C21119723   0.750   2.218   9.812 -0.2330  0.1988 -0.4548
  163DOPC  H11R19724   0.650   2.214   9.859 -0.2719 -2.7709 -0.6129
  163DOPC  H11S19725   0.765   2.118   9.766  0.2804  0.5030 -0.9717
  163DOPC  C21219726   0.741   2.312   9.703 -0.3366 -0.5206  0.5269
  163DOPC  H12R19727   0.837   2.327   9.649  0.4602 -1.2240  1.7263
  163DOPC  H12S19728   0.715   2.417   9.731 -1.3880 -0.5154 -0.3928
  163DOPC  C21319729   0.636   2.292   9.594  0.2925 -0.4466  0.3070
  163DOPC  H13R19730   0.645   2.216   9.512  3.5323  1.1739 -1.0157
  163DOPC  H13S19731   0.650   2.388   9.541 -0.6001 -0.2736  0.3695
  163DOPC  C21419732   0.493   2.268   9.632  0.1240  0.8385 -0.3498
  163DOPC  H14R19733   0.462   2.332   9.717  1.3678  0.8451  0.1164
  163DOPC  H14S19734   0.479   2.163   9.663  2.0527  0.7313  0.2672
  163DOPC  C21519735   0.403   2.304   9.513 -0.0593  0.4485 -0.2360
  163DOPC  H15R19736   0.431   2.233   9.432  2.6197  0.6110  0.4649
  163DOPC  H15S19737   0.424   2.405   9.473 -0.6935  0.8256  0.3579
  163DOPC  C21619738   0.255   2.305   9.540  0.3621  0.8201 -0.3645
  163DOPC  H16R19739   0.204   2.354   9.454 -2.0849  2.7906  2.0531
  163DOPC  H16S19740   0.228   2.357   9.634 -0.2361 -1.1621  0.6141
  163DOPC  C21719741   0.183   2.172   9.543 -0.1273  0.3280  0.5816
  163DOPC  H17R19742   0.233   2.090   9.599 -1.4253 -1.7165 -1.1209
  163DOPC  H17S19743   0.189   2.128   9.441  0.2332 -2.2963  1.6383
  163DOPC  C21819744   0.037   2.177   9.593  0.3145 -0.0519  0.2350
  163DOPC  H18R19745   0.027   2.254   9.672 -0.0307 -0.3762  0.5103
  163DOPC  H18S19746  -0.006   2.082   9.630 -1.3880  0.7941  0.5193
  163DOPC  H18T19747  -0.019   2.217   9.506 -0.7977 -1.1817  0.4152
  163DOPC   C3319748   0.508   1.799  10.361 -0.2867  0.4340  0.1369
  163DOPC   H3X19749   0.522   1.737  10.269 -3.7200 -1.5098  0.7382
  163DOPC   H3Y19750   0.591   1.872  10.355  2.0206 -1.9960  0.6537
  163DOPC   C3419751   0.375   1.870  10.356  0.3868  0.3542  0.2775
  163DOPC   H4X19752   0.380   1.939  10.269  1.5683 -1.9084 -1.5726
  163DOPC   H4Y19753   0.351   1.933  10.444 -1.8522  0.6258 -0.4690
  163DOPC   C3519754   0.252   1.784  10.346  0.1599  0.3665 -0.1129
  163DOPC   H5X19755   0.238   1.711  10.429 -3.8288 -0.3709 -1.2195
  163DOPC   H5Y19756   0.275   1.715  10.261  0.5487  1.9986 -1.3788
  163DOPC   C3619757   0.113   1.850  10.323 -0.5411 -0.0886 -0.0805
  163DOPC   H6X19758   0.100   1.922  10.407  2.8131  2.6902 -1.6604
  163DOPC   H6Y19759   0.131   1.920  10.239 -0.5840 -0.7314 -0.6335
  163DOPC   C3719760   0.001   1.758  10.283  1.2906  0.5223 -0.6814
  163DOPC   H7X19761   0.030   1.687  10.203  2.3729  0.4323 -0.2240
  163DOPC   H7Y19762  -0.035   1.708  10.375  0.7946  1.9858 -0.0403
  163DOPC   C3819763  -0.130   1.833  10.230 -0.3372  0.7793 -0.1346
  163DOPC   H8X19764  -0.200   1.749  10.212 -0.8229  1.0971  0.2525
  163DOPC   H8Y19765  -0.098   1.875  10.132  1.4828 -1.1497 -0.4443
  163DOPC   C3919766  -0.184   1.931  10.329 -0.2727  0.3885 -0.1397
  163DOPC   H9X19767  -0.245   1.888  10.410 -3.9039  0.6350 -2.5138
  163DOPC  C31019768  -0.168   2.068  10.325  0.1673  0.2390 -0.6563
  163DOPC  H10X19769  -0.180   2.130  10.415  3.3640  1.9511 -1.2906
  163DOPC  C31119770  -0.094   2.149  10.217 -0.6424 -0.1914 -0.4458
  163DOPC  H11X19771  -0.026   2.083  10.159 -1.2269 -0.9685 -0.2687
  163DOPC  H11Y19772  -0.018   2.210  10.271  0.0577 -1.4022 -0.0212
  163DOPC  C31219773  -0.176   2.246  10.127 -0.4840  0.3435 -0.2668
  163DOPC  H12X19774  -0.104   2.288  10.053  1.7907 -0.2182  1.5070
  163DOPC  H12Y19775  -0.217   2.333  10.183 -0.3192 -0.1337  0.6097
  163DOPC  C31319776  -0.294   2.176  10.055  0.5668 -0.6040  0.3929
  163DOPC  H13X19777  -0.273   2.069  10.036  2.6058 -0.4871  1.7451
  163DOPC  H13Y19778  -0.391   2.192  10.107  0.2820  1.2833 -0.6130
  163DOPC  C31419779  -0.317   2.245   9.915  0.2281  0.3330 -0.1692
  163DOPC  H14X19780  -0.339   2.354   9.923  1.5025  0.8588 -2.7748
  163DOPC  H14Y19781  -0.218   2.241   9.864 -0.0283 -0.4462 -0.6213
  163DOPC  C31519782  -0.424   2.169   9.828 -0.7522 -0.0137 -0.0653
  163DOPC  H15X19783  -0.519   2.157   9.884 -0.6102 -0.4069  0.0964
  163DOPC  H15Y19784  -0.391   2.064   9.813  0.9264  0.3045  1.1309
  163DOPC  C31619785  -0.446   2.224   9.692 -0.4284  0.8612 -0.1060
  163DOPC  H16X19786  -0.469   2.332   9.706 -1.5748  0.8265 -1.3786
  163DOPC  H16Y19787  -0.357   2.211   9.626 -1.5801 -2.2425 -1.2447
  163DOPC  C31719788  -0.572   2.178   9.622 -0.9022 -0.3733 -0.0580
  163DOPC  H17X19789  -0.561   2.072   9.591  1.2633 -0.2790  0.2360
  163DOPC  H17Y19790  -0.665   2.185   9.683 -0.9097  1.5719 -0.2540
  163DOPC  C31819791  -0.593   2.262   9.494  0.7758 -0.0196 -0.1768
  163DOPC  H18X19792  -0.700   2.282   9.471  0.5940 -1.5518 -0.7731
  163DOPC  H18Y19793  -0.537   2.357   9.506 -0.0469  0.3180  1.2000
  163DOPC  H18Z19794  -0.543   2.221   9.404 -0.6774 -1.3399 -0.4317
  164DOPC     N19795   0.399   0.143  11.181 -0.0287 -0.5611  0.1290
  164DOPC   C1219796   0.378   0.245  11.068  0.0527  0.3351 -0.4133
  164DOPC  H12A19797   0.284   0.298  11.072 -0.0312  0.2076 -0.6887
  164DOPC  H12B19798   0.368   0.193  10.974 -2.1913 -0.0969  0.0185
  164DOPC   C1319799   0.406   0.221  11.316 -0.2155 -0.1498  0.5821
  164DOPC  H13A19800   0.311   0.250  11.359 -0.6476 -0.6481  0.0017
  164DOPC  H13B19801   0.465   0.162  11.383  0.2366 -0.6432 -0.2327
  164DOPC  H13C19802   0.451   0.317  11.299 -2.0259  1.0660  2.2222
  164DOPC   C1419803   0.528   0.071  11.168  0.9256  0.2325  0.0834
  164DOPC  H14A19804   0.610   0.132  11.201  0.1653  1.3252 -0.0035
  164DOPC  H14B19805   0.523  -0.024  11.220 -3.6209  0.8278  1.1153
  164DOPC  H14C19806   0.543   0.045  11.065  2.5938 -0.8519  0.5599
  164DOPC   C1519807   0.292   0.040  11.204  0.5411  0.6127 -0.7413
  164DOPC  H15A19808   0.218   0.084  11.270  2.9195 -0.0456  2.6104
  164DOPC  H15B19809   0.327  -0.050  11.252 -0.6341  1.3635  1.6559
  164DOPC  H15C19810   0.238   0.027  11.111  0.7350  1.0259 -0.9158
  164DOPC   C1119811   0.493   0.350  11.049  0.3429 -0.0302  0.2125
  164DOPC  H11A19812   0.588   0.294  11.042 -0.3085 -0.9449 -2.2287
  164DOPC  H11B19813   0.474   0.404  10.953 -0.2374 -0.2892  0.1757
  164DOPC     P19814   0.593   0.548  11.189  0.0248 -0.1416  0.1582
  164DOPC   O1319815   0.730   0.491  11.219 -0.2325 -0.0433 -0.2826
  164DOPC   O1419816   0.538   0.632  11.301  0.4169 -0.8773 -0.5793
  164DOPC   O1219817   0.484   0.436  11.159  0.0753 -0.1388 -0.0156
  164DOPC   O1119818   0.589   0.621  11.049  0.4116 -0.1008  0.2963
  164DOPC    C119819   0.475   0.685  10.998  0.2403  0.0648 -0.3408
  164DOPC    HA19820   0.469   0.785  11.045  0.1298 -0.5481  0.9908
  164DOPC    HB19821   0.388   0.618  11.016  1.4872 -1.3753  0.6254
  164DOPC    C219822   0.500   0.713  10.848 -0.1148 -0.7808 -0.8150
  164DOPC    HS19823   0.518   0.615  10.800  2.0567 -0.8751  0.0781
  164DOPC   O2119824   0.608   0.812  10.842 -0.0572  0.2942  0.4514
  164DOPC   C2119825   0.696   0.790  10.747  0.3711  0.2764 -0.1335
  164DOPC   O2219826   0.687   0.694  10.672  0.2561  0.0266  0.3492
  164DOPC   C2219827   0.805   0.893  10.741  0.7862 -0.4838 -1.0341
  164DOPC   H2R19828   0.889   0.856  10.803 -1.1250 -0.4745  1.7860
  164DOPC   H2S19829   0.779   0.977  10.809  1.2663 -2.1533  1.3747
  164DOPC    C319830   0.374   0.780  10.790  0.4590  0.4284  0.0442
  164DOPC    HX19831   0.354   0.887  10.811  2.8243  0.5639  2.0363
  164DOPC    HY19832   0.286   0.723  10.826 -0.4207  1.0759 -1.0314
  164DOPC   O3119833   0.364   0.759  10.647 -0.1786  0.2384  0.2370
  164DOPC   C3119834   0.424   0.847  10.573 -0.6331 -0.0965  0.4727
  164DOPC   O3219835   0.464   0.952  10.617  0.0301  0.2571  0.5282
  164DOPC   C3219836   0.445   0.794  10.432  0.3998 -0.0747 -0.4583
  164DOPC   H2X19837   0.492   0.694  10.440 -1.3843 -0.8857  0.4996
  164DOPC   H2Y19838   0.343   0.776  10.391 -0.3217  1.5874  0.5366
  164DOPC   C2319839   0.842   0.929  10.595 -0.4491  0.3599  0.2377
  164DOPC   H3R19840   0.757   0.968  10.535  1.1962  1.0062 -1.8069
  164DOPC   H3S19841   0.886   0.843  10.541 -0.5152  0.2466  0.3632
  164DOPC   C2419842   0.956   1.040  10.591  0.1822  0.0457 -0.2353
  164DOPC   H4R19843   1.050   0.999  10.634  0.3432  0.3114 -0.3338
  164DOPC   H4S19844   0.921   1.121  10.658 -1.7328 -0.8347 -0.1201
  164DOPC   C2519845   0.987   1.090  10.456  0.2681  0.4331  0.0996
  164DOPC   H5R19846   0.887   1.109  10.412  0.8533 -3.7483 -3.7375
  164DOPC   H5S19847   1.035   1.005  10.403 -1.4766 -0.4907 -0.0934
  164DOPC   C2619848   1.084   1.215  10.458 -0.0323  0.3726 -0.5508
  164DOPC   H6R19849   1.036   1.294  10.520  0.9800 -1.6789  3.1508
  164DOPC   H6S19850   1.080   1.252  10.353 -1.9113 -0.3496 -0.7693
  164DOPC   C2719851   1.228   1.189  10.502  0.6345  0.2745 -0.0691
  164DOPC   H7R19852   1.262   1.108  10.434 -0.0755  0.3267 -0.4956
  164DOPC   H7S19853   1.224   1.165  10.611 -1.0329 -0.5059 -0.2655
  164DOPC   C2819854   1.317   1.311  10.494 -0.1144 -0.3080 -0.1712
  164DOPC   H8R19855   1.269   1.395  10.548  2.4741  1.1501  0.0138
  164DOPC   H8S19856   1.319   1.346  10.389 -1.0263 -1.3043 -0.5398
  164DOPC   C2919857   1.452   1.271  10.546  0.5932 -0.5705 -0.2513
  164DOPC   H9R19858   1.450   1.280  10.656 -0.3304  0.1436 -0.3063
  164DOPC  C21019859   1.561   1.244  10.474 -1.0175  0.0693 -0.4132
  164DOPC  H10R19860   1.649   1.205  10.528 -0.7786  0.7318 -0.3135
  164DOPC  C21119861   1.578   1.247  10.327  0.0019  1.1481  0.1516
  164DOPC  H11R19862   1.644   1.329  10.291  1.4062 -0.4464 -1.0520
  164DOPC  H11S19863   1.483   1.252  10.270  0.9864  0.5164 -1.5998
  164DOPC  C21219864   1.647   1.119  10.291  0.2050 -0.1207  0.1016
  164DOPC  H12R19865   1.609   1.032  10.347 -0.1089 -0.6976 -0.9759
  164DOPC  H12S19866   1.756   1.125  10.315  0.5006 -0.3128 -1.0871
  164DOPC  C21319867   1.630   1.080  10.142  0.0868  0.8619 -0.0295
  164DOPC  H13R19868   1.522   1.086  10.115 -0.1141 -0.9527  0.2409
  164DOPC  H13S19869   1.666   0.977  10.124  0.3970  1.0838 -0.7057
  164DOPC  C21419870   1.706   1.174  10.045 -0.3903  0.1215 -0.1443
  164DOPC  H14R19871   1.816   1.162  10.057 -0.7127 -0.8139  2.6855
  164DOPC  H14S19872   1.667   1.275  10.068  1.8930  1.3948 -1.4469
  164DOPC  C21519873   1.659   1.147   9.899 -0.5073  0.3236 -0.0194
  164DOPC  H15R19874   1.549   1.161   9.904 -0.5742  0.0873 -0.7166
  164DOPC  H15S19875   1.678   1.040   9.879 -0.4133  0.3193  0.0970
  164DOPC  C21619876   1.721   1.236   9.790 -0.4320  0.0840 -0.4260
  164DOPC  H16R19877   1.831   1.220   9.787 -0.6422 -1.2388 -1.7856
  164DOPC  H16S19878   1.710   1.343   9.820  2.1392  0.4104 -0.4209
  164DOPC  C21719879   1.669   1.216   9.645 -0.5556  0.1395 -0.0608
  164DOPC  H17R19880   1.698   1.117   9.603 -0.9899  0.4919 -1.2237
  164DOPC  H17S19881   1.708   1.296   9.579 -0.6412  0.2285 -0.0020
  164DOPC  C21819882   1.517   1.219   9.639 -0.3623  0.1391  0.2586
  164DOPC  H18R19883   1.477   1.321   9.661  2.9751  1.7168 -0.3264
  164DOPC  H18S19884   1.472   1.149   9.712 -0.7240 -0.1106 -0.1962
  164DOPC  H18T19885   1.486   1.197   9.535 -0.4551  0.3948  0.2315
  164DOPC   C3319886   0.515   0.896  10.335  0.1253 -0.2093 -0.0748
  164DOPC   H3X19887   0.621   0.869  10.319  0.4863  0.7113  0.6251
  164DOPC   H3Y19888   0.511   0.996  10.383  0.3807 -0.7852  1.1855
  164DOPC   C3419889   0.449   0.883  10.195  0.3755 -0.1489 -0.3811
  164DOPC   H4X19890   0.343   0.917  10.196 -0.2458 -1.9485 -1.6281
  164DOPC   H4Y19891   0.451   0.782  10.150  2.1239 -0.9446  1.2942
  164DOPC   C3519892   0.520   0.981  10.099 -0.6999 -0.3294  0.7694
  164DOPC   H5X19893   0.629   0.962  10.110 -0.7184 -0.7210  0.3155
  164DOPC   H5Y19894   0.516   1.085  10.137  3.0109  0.5639 -0.7447
  164DOPC   C3619895   0.484   0.977   9.953 -0.4565  0.1811 -0.6280
  164DOPC   H6X19896   0.574   0.988   9.889  1.2934  0.3543  1.7430
  164DOPC   H6Y19897   0.437   0.879   9.927  1.3361 -0.1998 -2.7872
  164DOPC   C3719898   0.392   1.092   9.929  0.0003 -0.1903  0.3118
  164DOPC   H7X19899   0.299   1.074   9.988 -0.3635  1.0051  0.1283
  164DOPC   H7Y19900   0.429   1.193   9.959 -1.6684  0.8717 -0.9913
  164DOPC   C3819901   0.355   1.111   9.780  0.5295 -0.5762 -0.1567
  164DOPC   H8X19902   0.284   1.196   9.771  0.4585 -0.2298  2.7891
  164DOPC   H8Y19903   0.301   1.026   9.734 -0.8686  0.0607  0.2439
  164DOPC   C3919904   0.480   1.142   9.701  0.4918 -0.2975  0.7817
  164DOPC   H9X19905   0.540   1.053   9.679  0.9929  0.1904  0.1346
  164DOPC  C31019906   0.518   1.258   9.648  0.4039 -0.1763 -0.2351
  164DOPC  H10X19907   0.595   1.262   9.569  0.5510 -0.6695 -0.1148
  164DOPC  C31119908   0.453   1.398   9.665 -0.0636  0.0546  0.6844
  164DOPC  H11X19909   0.352   1.418   9.707 -0.4281  0.8873 -0.5111
  164DOPC  H11Y19910   0.449   1.443   9.563  3.3995  0.6712  0.7303
  164DOPC  C31219911   0.560   1.498   9.731 -0.2319 -0.4756  0.3360
  164DOPC  H12X19912   0.527   1.603   9.720  0.0796 -0.5538 -1.7551
  164DOPC  H12Y19913   0.653   1.487   9.671  0.8338 -0.8241  2.0087
  164DOPC  C31319914   0.597   1.465   9.881  0.5554 -0.1341  0.1147
  164DOPC  H13X19915   0.580   1.356   9.887 -0.8681 -0.0967 -2.0408
  164DOPC  H13Y19916   0.703   1.484   9.906 -0.2466  1.2984  2.8773
  164DOPC  C31419917   0.499   1.534   9.973  0.4129  0.1270 -0.3217
  164DOPC  H14X19918   0.397   1.492   9.957 -0.0129  0.7373  0.6791
  164DOPC  H14Y19919   0.504   1.644   9.958 -1.2091  0.4347  1.0437
  164DOPC  C31519920   0.527   1.510  10.122 -0.1378  0.3497 -0.7199
  164DOPC  H15X19921   0.444   1.545  10.188 -0.5471  1.5724 -1.8347
  164DOPC  H15Y19922   0.623   1.563  10.138  0.4057 -0.6554 -0.6108
  164DOPC  C31619923   0.553   1.366  10.156  0.7151 -0.4493 -0.0664
  164DOPC  H16X19924   0.457   1.314  10.139 -0.1786  0.8732  0.7158
  164DOPC  H16Y19925   0.626   1.322  10.086  0.0051  0.6193 -1.5243
  164DOPC  C31719926   0.592   1.332  10.301 -0.4966 -0.2384 -0.3763
  164DOPC  H17X19927   0.510   1.358  10.372 -1.6120  0.3720 -1.8286
  164DOPC  H17Y19928   0.610   1.223  10.298 -0.0991 -0.2735  1.8499
  164DOPC  C31819929   0.728   1.392  10.349 -0.1319  0.1344  0.6683
  164DOPC  H18X19930   0.707   1.497  10.381 -1.9422  0.6324 -1.8519
  164DOPC  H18Y19931   0.761   1.341  10.442  0.6892 -1.6161 -0.5384
  164DOPC  H18Z19932   0.801   1.388  10.265 -1.4899  0.5551 -0.5719
  165DOPC     N19933   5.551   0.784  11.237  0.3303  0.3875  0.7781
  165DOPC   C1219934   5.621   0.753  11.110  0.3444  0.3577 -0.4736
  165DOPC  H12A19935   5.627   0.835  11.041 -1.7009 -1.4936 -3.0862
  165DOPC  H12B19936   5.563   0.676  11.059  0.5843 -1.1589  1.4247
  165DOPC   C1319937   5.630   0.887  11.315 -0.2400 -0.2550  0.4134
  165DOPC  H13A19938   5.639   0.978  11.257 -0.9581  0.6084  1.6123
  165DOPC  H13B19939   5.587   0.890  11.414 -1.3132  1.6673 -0.0712
  165DOPC  H13C19940   5.721   0.831  11.330 -0.0605 -0.0557  0.0771
  165DOPC   C1419941   5.513   0.656  11.312  0.0837  0.0528  0.2582
  165DOPC  H14A19942   5.612   0.616  11.327  0.1344  0.6920  1.7101
  165DOPC  H14B19943   5.479   0.680  11.412 -2.3037 -0.8570 -0.2480
  165DOPC  H14C19944   5.444   0.595  11.254  0.5897 -0.1986 -0.0833
  165DOPC   C1519945   5.429   0.857  11.191 -0.0890 -0.1176  0.3477
  165DOPC  H15A19946   5.355   0.856  11.270 -0.1905 -0.4202  0.2501
  165DOPC  H15B19947   5.379   0.803  11.113  0.8509 -1.4106  0.6003
  165DOPC  H15C19948   5.455   0.955  11.154  0.0907 -0.2748  0.0547
  165DOPC   C1119949   5.766   0.693  11.120  0.6205 -0.4330 -0.5938
  165DOPC  H11A19950   5.814   0.688  11.020  1.1616 -1.1959 -0.3015
  165DOPC  H11B19951   5.826   0.767  11.178 -0.1813  1.4120 -1.9963
  165DOPC     P19952   5.719   0.443  11.092 -0.1454  0.2187  0.2873
  165DOPC   O1319953   5.607   0.374  11.160  0.0127 -0.3728  0.7157
  165DOPC   O1419954   5.840   0.360  11.057  0.0124  0.3950 -0.5249
  165DOPC   O1219955   5.768   0.564  11.181  0.0250 -0.2895  0.0236
  165DOPC   O1119956   5.668   0.522  10.963 -0.2264  0.3264 -0.0351
  165DOPC    C119957   5.587   0.453  10.873  0.2986  0.1400  0.1415
  165DOPC    HA19958   5.481   0.449  10.907 -0.0548  0.5172 -0.8924
  165DOPC    HB19959   5.613   0.346  10.859 -0.8241 -0.2243  0.6910
  165DOPC    C219960   5.584   0.521  10.736 -0.8638  0.3599  0.3810
  165DOPC    HS19961   5.543   0.621  10.763 -0.8661  0.4164  0.1703
  165DOPC   O2119962   5.489   0.453  10.652 -0.3320 -0.1056  0.4472
  165DOPC   C2119963   5.457   0.521  10.541  0.3635  0.1027  0.1286
  165DOPC   O2219964   5.482   0.637  10.522 -0.3378  0.1571  0.2152
  165DOPC   C2219965   5.374   0.425  10.445  0.1688  0.2782 -0.3811
  165DOPC   H2R19966   5.281   0.394  10.498  1.1911  0.0813  1.3558
  165DOPC   H2S19967   5.436   0.333  10.451  1.9694  1.5418  1.8358
  165DOPC    C319968   5.731   0.529  10.682  0.0362 -0.0351  0.0474
  165DOPC    HX19969   5.800   0.591  10.744  0.5531 -1.5383  1.0388
  165DOPC    HY19970   5.731   0.578  10.582 -1.2289 -0.1109  0.0008
  165DOPC   O3119971   5.789   0.397  10.667 -0.1574  0.2374 -0.2291
  165DOPC   C3119972   5.910   0.395  10.606  0.2202 -0.5288 -0.2074
  165DOPC   O3219973   5.974   0.493  10.577  0.0012 -0.2658  0.0729
  165DOPC   C3219974   5.966   0.256  10.598  0.3234  0.4652 -0.3928
  165DOPC   H2X19975   6.050   0.252  10.525 -1.4434 -2.1519 -2.4414
  165DOPC   H2Y19976   5.986   0.228  10.704 -1.0000 -0.5821 -0.3948
  165DOPC   C2319977   5.352   0.472  10.304 -0.1194 -0.4358 -0.1049
  165DOPC   H3R19978   5.300   0.570  10.301 -0.2207 -0.4681  0.5403
  165DOPC   H3S19979   5.285   0.400  10.252 -0.2357  1.0687 -2.1456
  165DOPC   C2419980   5.485   0.461  10.227  0.4036  0.1549 -0.9042
  165DOPC   H4R19981   5.524   0.358  10.239 -1.1572 -0.4064 -0.4191
  165DOPC   H4S19982   5.562   0.534  10.258 -2.1361  2.7239 -0.2771
  165DOPC   C2519983   5.450   0.483  10.082  0.0977  0.6879  0.0327
  165DOPC   H5R19984   5.393   0.579  10.073 -2.1282 -0.3844  1.6746
  165DOPC   H5S19985   5.367   0.416  10.049 -0.4255 -0.5774  3.4921
  165DOPC   C2619986   5.575   0.496   9.990  1.2905 -0.0799  0.1239
  165DOPC   H6R19987   5.614   0.393   9.976 -0.1862 -0.6085 -0.2556
  165DOPC   H6S19988   5.651   0.564  10.034  0.1396  1.4563 -0.1790
  165DOPC   C2719989   5.544   0.558   9.850  0.0314 -0.3725 -0.4584
  165DOPC   H7R19990   5.635   0.564   9.787  1.2444 -1.0728  1.1313
  165DOPC   H7S19991   5.505   0.661   9.861  1.5951  0.1650  0.4800
  165DOPC   C2819992   5.441   0.468   9.778 -0.0943 -0.5131  0.3974
  165DOPC   H8R19993   5.357   0.453   9.850  0.9006  1.2967  2.0335
  165DOPC   H8S19994   5.496   0.374   9.761  0.6330 -0.4157  2.0467
  165DOPC   C2919995   5.371   0.543   9.664 -0.4102 -0.0222 -0.4546
  165DOPC   H9R19996   5.281   0.595   9.701  0.8214  2.1913 -0.4084
  165DOPC  C21019997   5.374   0.506   9.532  0.0046  0.1058  0.3835
  165DOPC  H10R19998   5.312   0.559   9.459 -0.3485 -2.0770 -0.9807
  165DOPC  C21119999   5.464   0.401   9.469  0.3263  0.1717 -0.0059
  165DOPC  H11R20000   5.440   0.294   9.489  1.1926 -0.0252  0.0399
  165DOPC  H11S20001   5.571   0.414   9.493  0.2075  2.4457 -0.5100
  165DOPC  C21220002   5.472   0.431   9.310  0.0078  0.1377 -0.3931
  165DOPC  H12R20003   5.556   0.372   9.266  0.2544  0.3779 -0.2496
  165DOPC  H12S20004   5.501   0.537   9.298 -2.0418  0.8313  0.4282
  165DOPC  C21320005   5.351   0.399   9.224 -0.3690  0.4042  0.3040
  165DOPC  H13R20006   5.265   0.462   9.257 -1.0240 -1.4250  2.3991
  165DOPC  H13S20007   5.326   0.292   9.243 -0.6046  0.0637 -1.7600
  165DOPC  C21420008   5.390   0.417   9.075 -0.8121  0.4697  0.3893
  165DOPC  H14R20009   5.491   0.372   9.060 -0.8414 -0.1698  1.9197
  165DOPC  H14S20010   5.402   0.525   9.055 -0.1065  0.4059  0.4680
  165DOPC  C21520011   5.299   0.346   8.971 -0.2495 -0.9367 -0.2399
  165DOPC  H15R20012   5.209   0.411   8.983  0.4104 -0.2129  1.0395
  165DOPC  H15S20013   5.274   0.247   9.015 -0.6247 -1.7029 -2.0777
  165DOPC  C21620014   5.352   0.334   8.830  0.0803 -0.5395 -0.9381
  165DOPC  H16R20015   5.429   0.254   8.823  1.5226  0.4860  1.6460
  165DOPC  H16S20016   5.390   0.429   8.786  0.1019 -0.3967 -0.6128
  165DOPC  C21720017   5.236   0.286   8.743 -0.1842  0.5421 -1.2902
  165DOPC  H17R20018   5.266   0.299   8.637  0.7101 -0.3771 -1.1623
  165DOPC  H17S20019   5.144   0.342   8.770 -0.1533  0.2995 -0.6647
  165DOPC  C21820020   5.199   0.143   8.771  0.0634  0.1703  0.4852
  165DOPC  H18R20021   5.276   0.065   8.754  0.9195  1.1162 -0.1536
  165DOPC  H18S20022   5.115   0.116   8.704  0.6821  1.7957 -1.0343
  165DOPC  H18T20023   5.155   0.144   8.873  1.9489  0.5824  1.3388
  165DOPC   C3320024   5.862   0.157  10.545  0.5011 -0.8045 -0.8058
  165DOPC   H3X20025   5.787   0.141  10.625 -0.0911  1.1009 -0.9198
  165DOPC   H3Y20026   5.923   0.066  10.529  0.7528 -0.4682 -1.8568
  165DOPC   C3420027   5.782   0.206  10.419  0.8377  0.3875 -0.3220
  165DOPC   H4X20028   5.714   0.289  10.447  1.4109  0.4632  0.9640
  165DOPC   H4Y20029   5.712   0.123  10.395 -0.4484  1.7783 -1.5223
  165DOPC   C3520030   5.868   0.227  10.291 -0.3295 -0.3642 -0.9339
  165DOPC   H5X20031   5.931   0.136  10.287  0.6936 -0.0251  3.0802
  165DOPC   H5Y20032   5.938   0.313  10.299 -1.2541  0.2660  1.4710
  165DOPC   C3620033   5.792   0.251  10.163  0.2673  0.8554  0.9282
  165DOPC   H6X20034   5.709   0.178  10.150 -0.0299  1.1467  1.1886
  165DOPC   H6Y20035   5.741   0.349  10.170  0.2179  0.8393  0.8064
  165DOPC   C3720036   5.883   0.232  10.039  0.3013 -0.0861 -0.1209
  165DOPC   H7X20037   5.960   0.311  10.045 -0.5394  0.7378  0.0890
  165DOPC   H7Y20038   5.824   0.252   9.947 -2.7777 -1.5083  1.3855
  165DOPC   C3820039   5.959   0.103  10.025 -0.3490 -0.1601  0.2114
  165DOPC   H8X20040   5.886   0.022  10.006  0.1279 -0.6448  0.4383
  165DOPC   H8Y20041   6.006   0.068  10.119 -1.4026  0.7532  1.1058
  165DOPC   C3920042   6.063   0.120   9.921 -0.2606  0.3221 -0.0687
  165DOPC   H9X20043   6.139   0.195   9.949 -1.0097  0.9413  0.3303
  165DOPC  C31020044   6.076   0.060   9.796  0.3952 -0.7685 -0.2223
  165DOPC  H10X20045   6.153   0.089   9.724  0.3808  3.2898  1.1781
  165DOPC  C31120046   5.982  -0.040   9.747  0.3657  0.2595 -0.6270
  165DOPC  H11X20047   5.894   0.004   9.695  0.0444 -1.4307 -1.6224
  165DOPC  H11Y20048   5.949  -0.103   9.833  0.8316  0.4148 -0.3288
  165DOPC  C31220049   6.041  -0.136   9.644  0.0939 -0.6859  0.3662
  165DOPC  H12X20050   5.966  -0.216   9.628  0.8704 -1.4973  0.6968
  165DOPC  H12Y20051   6.125  -0.189   9.694 -1.7810 -1.8922  2.4520
  165DOPC  C31320052   6.075  -0.070   9.507  0.7054 -0.7452 -0.5695
  165DOPC  H13X20053   5.985  -0.021   9.463  1.2356 -1.9006 -3.0668
  165DOPC  H13Y20054   6.146   0.010   9.538 -1.4234  0.2060  2.4059
  165DOPC  C31420055   6.136  -0.164   9.406  0.7881  0.0674  0.2905
  165DOPC  H14X20056   6.233  -0.206   9.443 -0.1293 -0.7649  1.8419
  165DOPC  H14Y20057   6.068  -0.251   9.396 -2.1725  2.3356 -0.6851
  165DOPC  C31520058   6.180  -0.094   9.271 -0.5362  0.1001 -0.5183
  165DOPC  H15X20059   6.092  -0.047   9.221 -0.7776  2.0343  1.5655
  165DOPC  H15Y20060   6.214  -0.176   9.203  1.9635  0.4932  0.1639
  165DOPC  C31620061   6.286   0.011   9.289 -0.0529  0.1723  0.1599
  165DOPC  H16X20062   6.258   0.106   9.339 -0.1601  0.5480 -0.6014
  165DOPC  H16Y20063   6.367  -0.050   9.336  0.3639  0.6363  0.0498
  165DOPC  C31720064   6.332   0.047   9.147  0.0252 -0.2747  0.1701
  165DOPC  H17X20065   6.438   0.080   9.149  0.8567 -2.1515 -3.8213
  165DOPC  H17Y20066   6.339  -0.036   9.074  0.2122 -0.2632  0.1752
  165DOPC  C31820067   6.244   0.154   9.078  0.3810 -0.1328  0.8529
  165DOPC  H18X20068   6.149   0.105   9.051  0.6987  0.6464 -1.9291
  165DOPC  H18Y20069   6.218   0.229   9.155  0.4101 -0.0492  0.7803
  165DOPC  H18Z20070   6.290   0.202   8.989 -0.0635  0.3752  0.8933
  166DOPC     N20071   6.839   0.647  10.641 -0.2140  0.3054 -0.0021
  166DOPC   C1220072   6.876   0.672  10.783 -0.0750 -0.7599  0.2923
  166DOPC  H12A20073   6.856   0.579  10.835 -0.2126 -1.5352 -1.0909
  166DOPC  H12B20074   6.803   0.740  10.824 -1.0257 -0.6256 -1.5392
  166DOPC   C1320075   6.806   0.779  10.570  0.2783 -0.9365  0.3379
  166DOPC  H13A20076   6.891   0.845  10.576 -0.2782 -0.2565  1.0697
  166DOPC  H13B20077   6.777   0.753  10.469  1.4906  0.7221 -0.4799
  166DOPC  H13C20078   6.719   0.833  10.605  1.9494  1.8659  0.4816
  166DOPC   C1420079   6.737   0.543  10.633 -0.3776 -0.0816  0.2618
  166DOPC  H14A20080   6.780   0.455  10.680 -0.0756 -0.0668  0.0163
  166DOPC  H14B20081   6.656   0.568  10.700  0.7259 -1.3216  2.1677
  166DOPC  H14C20082   6.706   0.509  10.536  0.2280 -0.9999  0.3687
  166DOPC   C1520083   6.968   0.593  10.580  0.0342  0.4229  0.2683
  166DOPC  H15A20084   6.955   0.585  10.473  0.2340  0.1905  0.2613
  166DOPC  H15B20085   7.003   0.503  10.628  1.0573  0.1045 -1.0106
  166DOPC  H15C20086   7.053   0.659  10.584 -0.5407  1.2602 -0.7941
  166DOPC   C1120087   7.014   0.732  10.816 -0.1143  0.1382 -0.7182
  166DOPC  H11A20088   7.012   0.759  10.923 -2.0418 -0.4097 -0.5665
  166DOPC  H11B20089   7.094   0.656  10.803  0.4370  0.3867  1.0154
  166DOPC     P20090   7.012   0.985  10.769 -0.0049  0.2187  0.0235
  166DOPC   O1320091   7.136   1.045  10.829 -0.1389 -0.8756  0.1957
  166DOPC   O1420092   6.887   1.004  10.845  0.1812  0.1834  0.1979
  166DOPC   O1220093   7.049   0.839  10.736  0.1797 -0.1510  0.0961
  166DOPC   O1120094   6.982   1.034  10.618 -0.1710  0.0942 -0.5478
  166DOPC    C120095   7.093   1.038  10.523 -0.2832  0.3951 -1.3897
  166DOPC    HA20096   7.065   0.976  10.435  0.5174 -0.2220 -1.2196
  166DOPC    HB20097   7.189   1.001  10.564 -0.3925  1.8504  0.3192
  166DOPC    C220098   7.120   1.183  10.477 -0.3561 -0.1814 -0.1795
  166DOPC    HS20099   7.128   1.245  10.569 -0.9378  0.6250 -0.6602
  166DOPC   O2120100   7.004   1.223  10.397  0.5067 -0.3005  0.4729
  166DOPC   C2120101   6.998   1.347  10.361 -0.0518 -0.3817 -0.0885
  166DOPC   O2220102   7.079   1.434  10.385  0.0405 -0.3173 -0.2018
  166DOPC   C2220103   6.881   1.358  10.265  0.0156  0.0083  0.2889
  166DOPC   H2R20104   6.874   1.467  10.249  0.4832 -0.1999 -1.6677
  166DOPC   H2S20105   6.790   1.318  10.315  0.2655 -1.5822 -0.4597
  166DOPC    C320106   7.258   1.195  10.394  0.6365  0.5357 -0.3817
  166DOPC    HX20107   7.335   1.147  10.458 -0.4587 -0.6725  0.0784
  166DOPC    HY20108   7.267   1.305  10.388 -1.1602  0.7223 -0.2984
  166DOPC   O3120109   7.249   1.125  10.267  0.4812  0.6976  0.0763
  166DOPC   C3120110   7.338   1.159  10.173 -0.2006  0.1892 -0.1077
  166DOPC   O3220111   7.439   1.223  10.195 -0.2586  0.0258 -0.1985
  166DOPC   C3220112   7.310   1.089  10.044  0.0853 -0.1522 -0.1464
  166DOPC   H2X20113   7.327   0.979  10.044  0.2404 -0.1356  0.9513
  166DOPC   H2Y20114   7.200   1.104  10.032 -0.2095 -1.3627  0.8386
  166DOPC   C2320115   6.925   1.300  10.134  0.2274 -0.3384  0.3587
  166DOPC   H3R20116   6.930   1.189  10.136 -0.4057 -0.3566  1.4839
  166DOPC   H3S20117   7.020   1.345  10.097 -0.3706  3.0917  2.5127
  166DOPC   C2420118   6.827   1.343  10.022 -0.3912 -0.0544  0.0589
  166DOPC   H4R20119   6.795   1.447  10.043 -0.0436 -0.3249  2.1805
  166DOPC   H4S20120   6.736   1.279  10.018 -0.7302  0.3165  1.3906
  166DOPC   C2520121   6.891   1.327   9.884  0.2295 -0.5207 -0.4291
  166DOPC   H5R20122   6.936   1.225   9.888  1.8842  0.0345 -2.7954
  166DOPC   H5S20123   6.973   1.402   9.876 -0.1127  0.1843  1.8846
  166DOPC   C2620124   6.799   1.351   9.765  0.1472  0.4782  0.2265
  166DOPC   H6R20125   6.783   1.458   9.739  1.9987  1.2327  1.9706
  166DOPC   H6S20126   6.698   1.317   9.799  0.2239 -0.7542 -0.6803
  166DOPC   C2720127   6.821   1.265   9.644 -0.1784 -0.4376 -0.3024
  166DOPC   H7R20128   6.723   1.220   9.617 -0.1879 -0.6549  0.0884
  166DOPC   H7S20129   6.890   1.184   9.673  1.5737 -0.3980 -3.7977
  166DOPC   C2820130   6.878   1.345   9.522  0.4622  0.2105  0.0249
  166DOPC   H8R20131   6.801   1.405   9.470 -0.5764 -0.6519  0.5504
  166DOPC   H8S20132   6.913   1.272   9.447 -0.8871 -0.0320 -0.3911
  166DOPC   C2920133   7.000   1.429   9.555  0.3938 -0.0661  0.5143
  166DOPC   H9R20134   6.976   1.518   9.615  1.1329  0.3866  0.1564
  166DOPC  C21020135   7.126   1.410   9.520  0.2341  0.4231 -0.1592
  166DOPC  H10R20136   7.200   1.474   9.571 -0.5093  0.6128  0.7074
  166DOPC  C21120137   7.179   1.298   9.438  0.0493 -0.1324 -0.1702
  166DOPC  H11R20138   7.107   1.216   9.421  0.3059 -0.0017 -2.0704
  166DOPC  H11S20139   7.261   1.261   9.504 -1.4985  1.4481  2.8595
  166DOPC  C21220140   7.238   1.354   9.307  0.4773  0.0925  0.3730
  166DOPC  H12R20141   7.302   1.277   9.258  0.8921 -0.7755  2.2015
  166DOPC  H12S20142   7.302   1.442   9.332  0.2031  0.1580  0.8363
  166DOPC  C21320143   7.137   1.409   9.204  0.5107  0.4533  0.1077
  166DOPC  H13R20144   7.206   1.459   9.133  1.6972 -1.3849 -0.1130
  166DOPC  H13S20145   7.081   1.488   9.258  0.7495 -0.7015  2.1602
  166DOPC  C21420146   7.049   1.305   9.140  0.0100  0.1572  0.2526
  166DOPC  H14R20147   6.988   1.256   9.219 -1.9811  1.1338 -0.6032
  166DOPC  H14S20148   7.105   1.230   9.079 -2.5891 -0.4274 -1.5983
  166DOPC  C21520149   6.938   1.367   9.057 -0.4572 -0.4154  0.7029
  166DOPC  H15R20150   6.853   1.298   9.041 -2.8284  2.8040 -2.1372
  166DOPC  H15S20151   6.977   1.386   8.954 -1.4623  0.4227  0.4560
  166DOPC  C21620152   6.864   1.496   9.100  0.0819  0.4977  0.0123
  166DOPC  H16R20153   6.933   1.584   9.108 -1.5057  1.7759  0.1033
  166DOPC  H16S20154   6.822   1.487   9.203 -0.2702  2.4586  0.0887
  166DOPC  C21720155   6.757   1.537   9.002 -0.3848 -0.1094  0.5571
  166DOPC  H17R20156   6.678   1.458   8.998 -0.6230  0.0006  2.2939
  166DOPC  H17S20157   6.815   1.533   8.908 -1.1379 -1.5761  0.1103
  166DOPC  C21820158   6.691   1.668   9.036 -0.5336 -0.2777  0.2761
  166DOPC  H18R20159   6.761   1.754   9.029 -1.8457  0.7367 -0.9971
  166DOPC  H18S20160   6.651   1.668   9.139  2.6680 -1.4549  1.6399
  166DOPC  H18T20161   6.618   1.691   8.955 -0.0312  0.1450 -0.0681
  166DOPC   C3320162   7.381   1.156   9.923 -0.4127 -0.1049 -0.1849
  166DOPC   H3X20163   7.461   1.088   9.887 -0.3240 -0.4348  0.6027
  166DOPC   H3Y20164   7.415   1.260   9.938 -1.4616  0.3143 -0.5996
  166DOPC   C3420165   7.287   1.153   9.809 -0.0638 -0.0142  0.2423
  166DOPC   H4X20166   7.343   1.195   9.723  0.0736  0.3647  0.5131
  166DOPC   H4Y20167   7.202   1.222   9.829 -2.5156 -3.2187  1.7359
  166DOPC   C3520168   7.243   1.008   9.772  0.1061 -1.0976  0.4949
  166DOPC   H5X20169   7.180   0.967   9.854 -1.2301  0.4355  0.2620
  166DOPC   H5Y20170   7.328   0.938   9.755 -0.4316 -1.6266 -0.0652
  166DOPC   C3620171   7.140   0.997   9.664 -0.2239 -0.7443 -0.3064
  166DOPC   H6X20172   7.060   1.069   9.692 -0.2760 -1.3986  1.3200
  166DOPC   H6Y20173   7.185   1.035   9.570  0.0945  0.4914  0.3200
  166DOPC   C3720174   7.090   0.855   9.659  0.2963 -0.4593 -0.7145
  166DOPC   H7X20175   7.167   0.793   9.610  1.4279 -2.6248  3.4314
  166DOPC   H7Y20176   7.057   0.815   9.757  0.0621 -1.1076 -1.0556
  166DOPC   C3820177   6.953   0.863   9.581  0.1951  0.3555  0.2361
  166DOPC   H8X20178   6.954   0.760   9.539  1.9228 -0.2250  1.5763
  166DOPC   H8Y20179   6.954   0.933   9.494 -1.2902  1.3226  0.9437
  166DOPC   C3920180   6.821   0.898   9.649 -0.1393  0.1494 -0.9016
  166DOPC   H9X20181   6.804   1.000   9.686  0.0401  0.2855 -1.1869
  166DOPC  C31020182   6.715   0.814   9.661 -0.0188  0.0971  0.4489
  166DOPC  H10X20183   6.622   0.852   9.706 -2.7657 -0.7211 -3.9380
  166DOPC  C31120184   6.698   0.675   9.618 -0.1663  0.1347  0.3122
  166DOPC  H11X20185   6.712   0.612   9.709  0.6240  1.4842  1.1624
  166DOPC  H11Y20186   6.781   0.650   9.549  0.8906  1.0551  1.2014
  166DOPC  C31220187   6.567   0.657   9.537  0.1721 -0.1211 -1.0952
  166DOPC  H12X20188   6.472   0.691   9.583  0.2916  0.8529 -1.5395
  166DOPC  H12Y20189   6.563   0.546   9.526 -0.4937 -0.0377 -1.8757
  166DOPC  C31320190   6.578   0.706   9.395  0.4535  0.0795  0.0965
  166DOPC  H13X20191   6.552   0.813   9.405  1.2816  0.5065 -1.8096
  166DOPC  H13Y20192   6.681   0.714   9.352  1.4067 -0.1763  2.2073
  166DOPC  C31420193   6.510   0.609   9.296  0.0923 -0.3006 -0.0826
  166DOPC  H14X20194   6.535   0.644   9.194  1.2641  2.3521  1.0146
  166DOPC  H14Y20195   6.547   0.504   9.301  3.0388  0.4908 -2.2721
  166DOPC  C31520196   6.358   0.603   9.308 -0.1665 -0.1006  0.4413
  166DOPC  H15X20197   6.327   0.575   9.411 -2.7394 -1.7865 -0.6798
  166DOPC  H15Y20198   6.322   0.515   9.250  0.3152 -0.0958  0.1297
  166DOPC  C31620199   6.294   0.738   9.263  0.1364  0.0390 -0.2605
  166DOPC  H16X20200   6.330   0.824   9.324  2.1288 -1.1691  0.3610
  166DOPC  H16Y20201   6.331   0.760   9.161  0.8173 -1.0114 -0.2495
  166DOPC  C31720202   6.140   0.735   9.282  0.2071  0.8204  0.3835
  166DOPC  H17X20203   6.103   0.632   9.263  1.4166  0.3976  0.2821
  166DOPC  H17Y20204   6.111   0.763   9.385  1.2958  3.4207  0.0645
  166DOPC  C31820205   6.060   0.833   9.194  0.1503 -1.1999  1.3033
  166DOPC  H18X20206   5.953   0.844   9.221 -0.3612 -0.9064 -0.6597
  166DOPC  H18Y20207   6.105   0.931   9.220  1.5915 -1.0212 -1.4696
  166DOPC  H18Z20208   6.079   0.820   9.085 -0.3872  3.7892  0.3577
  167DOPC     N20209   6.510   0.392  11.103 -0.2098  0.0964 -0.6354
  167DOPC   C1220210   6.520   0.235  11.104  0.6538  0.3356 -0.0721
  167DOPC  H12A20211   6.425   0.208  11.061 -0.4636  1.8481  1.3346
  167DOPC  H12B20212   6.529   0.200  11.206 -1.0977 -0.9717 -0.3198
  167DOPC   C1320213   6.641   0.446  11.119 -0.3480  0.2060 -0.1064
  167DOPC  H13A20214   6.708   0.407  11.044 -0.6951  1.1465 -0.9381
  167DOPC  H13B20215   6.644   0.554  11.118  2.1208  0.2148  0.9005
  167DOPC  H13C20216   6.688   0.421  11.213  0.6079  3.4535  0.4182
  167DOPC   C1420217   6.425   0.438  11.219  0.4214 -0.1192  0.2516
  167DOPC  H14A20218   6.463   0.423  11.319 -1.1086  2.9705  1.4345
  167DOPC  H14B20219   6.412   0.545  11.212 -2.4637 -0.2281  2.2229
  167DOPC  H14C20220   6.329   0.390  11.217  0.6115 -0.5129  0.3979
  167DOPC   C1520221   6.446   0.425  10.978  0.6165 -0.9467  0.4947
  167DOPC  H15A20222   6.499   0.395  10.889  2.8327  0.7420  1.1527
  167DOPC  H15B20223   6.432   0.532  10.969 -0.4890 -0.7773  3.2757
  167DOPC  H15C20224   6.350   0.377  10.975 -0.0664  0.4098 -1.1274
  167DOPC   C1120225   6.633   0.154  11.027 -0.3701 -0.5102  0.0349
  167DOPC  H11A20226   6.732   0.162  11.075  0.7582  2.2003 -2.4476
  167DOPC  H11B20227   6.598   0.049  11.018 -1.7190  0.0011 -1.1309
  167DOPC     P20228   6.773   0.226  10.833  0.2002  0.4338  0.1346
  167DOPC   O1320229   6.857   0.107  10.868  0.4179  0.0736 -0.0997
  167DOPC   O1420230   6.815   0.361  10.873 -0.2684  0.1012 -0.0041
  167DOPC   O1220231   6.632   0.204  10.893 -0.1032 -0.2075  0.1369
  167DOPC   O1120232   6.747   0.223  10.676 -0.2118 -0.0260 -0.4226
  167DOPC    C120233   6.655   0.121  10.617 -0.3239  0.2837 -0.0103
  167DOPC    HA20234   6.595   0.069  10.694  0.7551  0.4986  0.9967
  167DOPC    HB20235   6.722   0.046  10.570 -0.9927 -1.3310  1.5290
  167DOPC    C220236   6.558   0.186  10.515 -0.0510  0.0979 -0.0121
  167DOPC    HS20237   6.506   0.103  10.463  0.4476  0.4931 -1.1671
  167DOPC   O2120238   6.624   0.265  10.415 -0.6191 -0.7508  0.4867
  167DOPC   C2120239   6.685   0.197  10.313 -0.1213 -0.1079 -0.5732
  167DOPC   O2220240   6.702   0.075  10.315 -0.2525  0.1687  0.1621
  167DOPC   C2220241   6.729   0.302  10.213  0.1728  0.0196 -0.0440
  167DOPC   H2R20242   6.824   0.345  10.252  0.2565 -0.1264 -0.0838
  167DOPC   H2S20243   6.648   0.375  10.198 -0.0718 -0.3826 -0.7322
  167DOPC    C320244   6.453   0.279  10.593  0.4450  0.5392 -0.1173
  167DOPC    HX20245   6.496   0.372  10.636 -1.4512  2.6287 -2.4191
  167DOPC    HY20246   6.422   0.212  10.676 -0.6938  0.2884 -0.7204
  167DOPC   O3120247   6.334   0.313  10.509 -0.0490  0.0922 -0.1386
  167DOPC   C3120248   6.344   0.431  10.443  0.6706 -0.1347  0.6117
  167DOPC   O3220249   6.440   0.506  10.457 -0.4538  0.0409 -0.1481
  167DOPC   C3220250   6.216   0.447  10.365  0.1856 -0.4335  0.3493
  167DOPC   H2X20251   6.173   0.345  10.357  2.0382 -1.3623  1.6117
  167DOPC   H2Y20252   6.157   0.517  10.429  2.5325  1.2366  0.7822
  167DOPC   C2320253   6.770   0.238  10.077 -0.5136  0.1724  0.5555
  167DOPC   H3R20254   6.688   0.177  10.033 -0.6892  2.2463 -2.2046
  167DOPC   H3S20255   6.859   0.172  10.094  0.2225  1.1295  0.5021
  167DOPC   C2420256   6.830   0.332   9.973  0.1095  0.1807  0.3393
  167DOPC   H4R20257   6.935   0.355  10.002  0.0681  2.1691 -0.8862
  167DOPC   H4S20258   6.776   0.429   9.974  0.3927  0.3596 -0.3245
  167DOPC   C2520259   6.831   0.275   9.827 -0.5817 -0.6370 -0.0240
  167DOPC   H5R20260   6.727   0.276   9.788 -1.2970 -2.2105  1.6953
  167DOPC   H5S20261   6.876   0.173   9.824 -0.5573 -0.6185 -0.4571
  167DOPC   C2620262   6.914   0.364   9.730 -0.1558  0.1811  0.4812
  167DOPC   H6R20263   6.876   0.468   9.745  1.2837  0.8492 -0.3446
  167DOPC   H6S20264   6.890   0.336   9.625  1.1244  0.0062  0.2222
  167DOPC   C2720265   7.065   0.356   9.744  0.3706  0.4522 -0.5926
  167DOPC   H7R20266   7.097   0.269   9.805 -0.7538  2.3105  2.9356
  167DOPC   H7S20267   7.095   0.452   9.792 -1.5390  0.9888 -0.3733
  167DOPC   C2820268   7.145   0.356   9.609 -0.1353 -0.1901 -0.0084
  167DOPC   H8R20269   7.122   0.262   9.555  1.8214 -0.4491 -0.4740
  167DOPC   H8S20270   7.251   0.344   9.642 -0.3912 -0.1407  0.8571
  167DOPC   C2920271   7.131   0.477   9.509 -0.2437 -0.6117 -0.6095
  167DOPC   H9R20272   7.110   0.574   9.556  0.9762 -1.1424  1.1615
  167DOPC  C21020273   7.154   0.470   9.378 -0.7631  0.6496  0.4722
  167DOPC  H10R20274   7.140   0.558   9.314  1.9437  0.1530 -0.9166
  167DOPC  C21120275   7.183   0.340   9.299  1.2832 -0.5507  0.3342
  167DOPC  H11R20276   7.143   0.253   9.355  0.1408 -0.7822 -0.8046
  167DOPC  H11S20277   7.288   0.321   9.268  1.2523 -1.9958  1.0510
  167DOPC  C21220278   7.110   0.330   9.161  0.1414  0.0206 -0.3382
  167DOPC  H12R20279   7.155   0.411   9.099  1.9199  2.6152  3.8665
  167DOPC  H12S20280   7.128   0.239   9.100  0.7288  1.1725 -1.9508
  167DOPC  C21320281   6.959   0.364   9.173 -0.7782 -0.0387 -0.8531
  167DOPC  H13R20282   6.956   0.463   9.223 -0.1836 -1.6136  2.5964
  167DOPC  H13S20283   6.900   0.288   9.228  0.1897  1.3085  2.2393
  167DOPC  C21420284   6.895   0.366   9.037 -0.2856  0.3677 -0.4468
  167DOPC  H14R20285   6.917   0.268   8.990  0.9618 -0.5211  1.8628
  167DOPC  H14S20286   6.931   0.453   8.978 -0.8782  2.7323  2.4598
  167DOPC  C21520287   6.740   0.373   9.064  0.1831 -0.0114  0.2014
  167DOPC  H15R20288   6.738   0.459   9.135  0.3940 -0.3879  0.6672
  167DOPC  H15S20289   6.715   0.272   9.103  0.5596 -0.7927 -1.5090
  167DOPC  C21620290   6.652   0.414   8.953  0.5733 -0.4563  0.0184
  167DOPC  H16R20291   6.666   0.349   8.863 -2.2965  0.6938 -1.4126
  167DOPC  H16S20292   6.675   0.512   8.906  0.7818 -0.9683 -0.9898
  167DOPC  C21720293   6.499   0.413   8.981  0.0017  0.3791  0.6526
  167DOPC  H17R20294   6.471   0.479   9.067  0.9329  2.2957 -0.4471
  167DOPC  H17S20295   6.471   0.309   9.009 -0.9860  0.0474 -1.4048
  167DOPC  C21820296   6.417   0.463   8.863 -0.3017  0.1911 -0.4201
  167DOPC  H18R20297   6.424   0.375   8.795  0.4667 -0.3381  0.3220
  167DOPC  H18S20298   6.461   0.548   8.807 -0.7383  2.0916  1.9736
  167DOPC  H18T20299   6.315   0.490   8.897 -0.0292 -2.0473  2.6868
  167DOPC   C3320300   6.238   0.502  10.221  0.0633 -0.0630 -0.0716
  167DOPC   H3X20301   6.299   0.594  10.233 -1.5783  0.8985  1.3086
  167DOPC   H3Y20302   6.136   0.527  10.185 -0.1886  0.0314  0.6950
  167DOPC   C3420303   6.290   0.399  10.121 -0.0660  0.0267  0.5812
  167DOPC   H4X20304   6.212   0.335  10.074  0.0820  0.4589 -0.2750
  167DOPC   H4Y20305   6.355   0.324  10.172 -0.3696  0.5116  1.7264
  167DOPC   C3520306   6.353   0.465   9.992 -0.0110  0.1514 -0.2959
  167DOPC   H5X20307   6.443   0.527  10.011 -0.8578  1.2645  0.2018
  167DOPC   H5Y20308   6.274   0.525   9.942 -3.3985 -2.6395  1.2885
  167DOPC   C3620309   6.406   0.354   9.898 -0.0758  0.3436 -0.1165
  167DOPC   H6X20310   6.499   0.312   9.943  0.5511 -0.9126 -2.4294
  167DOPC   H6Y20311   6.330   0.274   9.904  1.0658 -0.8053 -0.4756
  167DOPC   C3720312   6.438   0.387   9.757  0.8685 -0.0221  0.4528
  167DOPC   H7X20313   6.370   0.463   9.714  1.0312 -1.2037 -2.0170
  167DOPC   H7Y20314   6.544   0.422   9.752  0.9322  0.0452  1.7312
  167DOPC   C3820315   6.434   0.265   9.670  0.7319  0.3513  0.2979
  167DOPC   H8X20316   6.352   0.201   9.710  0.7567 -0.9491 -1.5880
  167DOPC   H8Y20317   6.529   0.210   9.685  1.3682  1.2369 -0.4145
  167DOPC   C3920318   6.401   0.300   9.525  0.0384  0.6938  0.0839
  167DOPC   H9X20319   6.306   0.352   9.505 -0.5471  0.5869  2.3223
  167DOPC  C31020320   6.492   0.280   9.424  0.0324 -0.2993 -0.1485
  167DOPC  H10X20321   6.459   0.310   9.323 -2.5360  0.0647  0.7502
  167DOPC  C31120322   6.635   0.223   9.435  0.0879  0.0671 -0.2231
  167DOPC  H11X20323   6.668   0.221   9.541 -1.1735 -2.0921  0.1811
  167DOPC  H11Y20324   6.714   0.278   9.379  2.4593 -0.1993  2.6121
  167DOPC  C31220325   6.644   0.079   9.383  0.6319 -0.4977  0.7231
  167DOPC  H12X20326   6.640   0.072   9.272 -1.1135 -4.4414  0.8490
  167DOPC  H12Y20327   6.550   0.027   9.411  0.2169 -1.3270 -1.8888
  167DOPC  C31320328   6.752  -0.007   9.437  0.8198  0.5680  0.6714
  167DOPC  H13X20329   6.766  -0.005   9.547  1.8698 -2.7509  0.6933
  167DOPC  H13Y20330   6.723  -0.113   9.422  0.8819  0.9233 -2.6227
  167DOPC  C31420331   6.889   0.012   9.375 -0.2293  0.0225  0.5204
  167DOPC  H14X20332   6.882   0.027   9.265  0.1852  3.0302  0.8041
  167DOPC  H14Y20333   6.943   0.100   9.418  3.7907 -1.1505 -1.6781
  167DOPC  C31520334   6.986  -0.107   9.406  0.4899 -0.5858  0.1319
  167DOPC  H15X20335   6.929  -0.201   9.387  0.9727 -0.5531 -1.6804
  167DOPC  H15Y20336   7.015  -0.096   9.513 -0.1574  0.6242  0.2067
  167DOPC  C31620337   7.108  -0.104   9.314  0.4507 -0.1036  0.4624
  167DOPC  H16X20338   7.076  -0.093   9.208 -0.8429  0.4274  0.8922
  167DOPC  H16Y20339   7.169  -0.014   9.336 -1.1185  1.0154  0.3770
  167DOPC  C31720340   7.201  -0.225   9.335 -0.5931 -0.3891  0.0372
  167DOPC  H17X20341   7.231  -0.233   9.441  0.9561 -1.5659 -0.4616
  167DOPC  H17Y20342   7.142  -0.319   9.325 -0.5851 -0.4140  0.2356
  167DOPC  C31820343   7.332  -0.240   9.247 -0.2394  0.7669 -0.6985
  167DOPC  H18X20344   7.397  -0.322   9.284  2.8266  3.6165  0.8617
  167DOPC  H18Y20345   7.306  -0.258   9.141  0.7301 -1.9884 -0.5406
  167DOPC  H18Z20346   7.399  -0.151   9.245 -0.2350  0.9830  2.9929
  168DOPC     N20347   0.988   7.503  11.368  0.3668 -0.2232  0.3998
  168DOPC   C1220348   1.128   7.460  11.327  0.4125  0.5017  0.5379
  168DOPC  H12A20349   1.129   7.352  11.322 -0.8280  0.3925  1.9834
  168DOPC  H12B20350   1.202   7.488  11.401  0.9623 -1.5867  0.8507
  168DOPC   C1320351   0.979   7.650  11.385  0.3675  1.0019  0.3002
  168DOPC  H13A20352   1.010   7.704  11.297  0.6898  0.9937  0.4079
  168DOPC  H13B20353   0.875   7.673  11.404 -0.4001 -2.9937  2.0884
  168DOPC  H13C20354   1.049   7.674  11.464  0.9598 -2.7215  1.0966
  168DOPC   C1420355   0.961   7.450  11.506 -0.7181  0.3409  0.0530
  168DOPC  H14A20356   1.038   7.484  11.573 -0.1712  1.3012 -1.0091
  168DOPC  H14B20357   0.864   7.479  11.544 -0.8007 -2.0755  1.8965
  168DOPC  H14C20358   0.963   7.342  11.503 -1.8281  0.3289 -0.9633
  168DOPC   C1520359   0.887   7.440  11.280 -0.5537  0.3646  0.3291
  168DOPC  H15A20360   0.787   7.452  11.321 -0.4622  0.1298  0.6182
  168DOPC  H15B20361   0.904   7.334  11.291 -1.6002  0.2365  0.8670
  168DOPC  H15C20362   0.892   7.484  11.181  1.8023 -0.2032  0.1577
  168DOPC   C1120363   1.184   7.503  11.189 -0.3308 -0.0700  0.2570
  168DOPC  H11A20364   1.277   7.447  11.166 -1.5735 -1.8084 -0.7385
  168DOPC  H11B20365   1.113   7.492  11.104  2.3435  0.1582 -2.1669
  168DOPC     P20366   1.353   7.708  11.176 -0.0985 -0.2378  0.0682
  168DOPC   O1320367   1.447   7.669  11.281 -0.2703  0.0465 -0.1191
  168DOPC   O1420368   1.330   7.850  11.143 -0.2076 -0.1751  0.1770
  168DOPC   O1220369   1.211   7.644  11.206  0.0014  0.6337 -0.1460
  168DOPC   O1120370   1.396   7.629  11.043 -0.0097 -0.0607 -0.2879
  168DOPC    C120371   1.308   7.633  10.926  0.4167 -0.6556 -0.0913
  168DOPC    HA20372   1.224   7.703  10.943 -0.1818 -1.2642 -0.5234
  168DOPC    HB20373   1.256   7.536  10.922 -1.1589  0.1638 -0.2302
  168DOPC    C220374   1.386   7.683  10.797  0.3202  0.5976 -0.3968
  168DOPC    HS20375   1.316   7.683  10.710  1.1721 -0.1632 -1.1068
  168DOPC   O2120376   1.499   7.591  10.788 -0.4591 -0.4392  0.4338
  168DOPC   C2120377   1.460   7.475  10.724 -0.5546 -0.5975 -0.0704
  168DOPC   O2220378   1.347   7.458  10.683  0.4655 -0.0500 -0.1538
  168DOPC   C2220379   1.580   7.383  10.711 -0.2281  0.1557  1.0818
  168DOPC   H2R20380   1.619   7.343  10.807 -0.8719  0.4442  1.4729
  168DOPC   H2S20381   1.655   7.445  10.657 -2.0554  0.4861 -1.2564
  168DOPC    C320382   1.434   7.823  10.816  0.3483 -0.6642 -1.2953
  168DOPC    HX20383   1.489   7.825  10.912 -2.2883  0.7971  0.3318
  168DOPC    HY20384   1.349   7.894  10.825  1.1045  0.1342 -0.1222
  168DOPC   O3120385   1.509   7.862  10.701  0.8826  1.0437  0.2872
  168DOPC   C3120386   1.594   7.957  10.730 -0.0496  0.5732 -0.1160
  168DOPC   O3220387   1.615   8.003  10.838  0.0489 -0.5278  0.2887
  168DOPC   C3220388   1.660   8.006  10.603  0.0131  0.1801 -0.4634
  168DOPC   H2X20389   1.627   8.108  10.575 -0.4856 -0.4492 -2.3483
  168DOPC   H2Y20390   1.768   8.009  10.629 -0.0425 -1.6018  0.1238
  168DOPC   C2320391   1.549   7.264  10.616 -0.1196  0.3004  0.4783
  168DOPC   H3R20392   1.500   7.307  10.526 -1.2171  1.0701  1.4245
  168DOPC   H3S20393   1.489   7.188  10.672 -0.0893 -0.1639 -0.1047
  168DOPC   C2420394   1.673   7.179  10.581 -0.1044  0.4223 -0.1369
  168DOPC   H4R20395   1.641   7.088  10.526  3.0475 -0.2437 -1.1247
  168DOPC   H4S20396   1.716   7.157  10.681 -0.1925  1.1729  0.0715
  168DOPC   C2520397   1.791   7.245  10.496  0.1128  0.6096  0.8987
  168DOPC   H5R20398   1.873   7.169  10.494 -0.8205 -0.4916  2.3727
  168DOPC   H5S20399   1.839   7.338  10.533 -1.1279  1.7449 -0.2614
  168DOPC   C2620400   1.741   7.266  10.352  0.5859 -0.2265 -0.2437
  168DOPC   H6R20401   1.646   7.321  10.366  1.2184  0.5654  1.1480
  168DOPC   H6S20402   1.714   7.176  10.294 -0.1408  0.1498 -0.5055
  168DOPC   C2720403   1.838   7.348  10.275 -0.2427 -0.5852 -0.5742
  168DOPC   H7R20404   1.858   7.438  10.337  1.7150 -1.3508 -0.0332
  168DOPC   H7S20405   1.791   7.367  10.176 -1.6658 -0.2899  0.1233
  168DOPC   C2820406   1.977   7.280  10.254  0.5360  0.1957  0.4486
  168DOPC   H8R20407   2.012   7.253  10.356 -1.0328 -0.0172  0.9554
  168DOPC   H8S20408   2.040   7.359  10.209 -1.0266 -0.1127 -2.4884
  168DOPC   C2920409   1.982   7.154  10.175  0.1824 -0.1733  0.6710
  168DOPC   H9R20410   1.890   7.095  10.193 -1.3335  2.1888  1.2447
  168DOPC  C21020411   2.069   7.134  10.075 -0.1983 -0.2389  0.6153
  168DOPC  H10R20412   2.063   7.034  10.029  0.1801  0.6416 -1.4675
  168DOPC  C21120413   2.195   7.198  10.019 -0.1549  0.2759 -0.3565
  168DOPC  H11R20414   2.271   7.130  10.064 -1.5509  0.6501  2.8556
  168DOPC  H11S20415   2.211   7.303  10.051  1.8858  0.4955 -1.9510
  168DOPC  C21220416   2.217   7.181   9.871 -0.1852  0.7877  0.3704
  168DOPC  H12R20417   2.204   7.073   9.852  0.1665  0.4799  1.7843
  168DOPC  H12S20418   2.322   7.210   9.848 -0.0401  0.7431  0.9731
  168DOPC  C21320419   2.128   7.263   9.781  0.1517  0.0903 -0.1856
  168DOPC  H13R20420   2.160   7.368   9.796  1.8672 -0.6364  1.6277
  168DOPC  H13S20421   2.021   7.249   9.808 -0.8591  1.2524 -3.1653
  168DOPC  C21420422   2.117   7.211   9.633 -0.6574  0.0341  0.5782
  168DOPC  H14R20423   2.090   7.104   9.634 -0.6634  0.0263 -0.1105
  168DOPC  H14S20424   2.216   7.230   9.587 -0.3228 -3.6973 -0.5458
  168DOPC  C21520425   2.009   7.300   9.574 -0.2364  0.0640  0.0447
  168DOPC  H15R20426   2.036   7.407   9.582 -0.3291  0.0322  0.8540
  168DOPC  H15S20427   1.909   7.295   9.624  0.0467 -1.0424  0.5454
  168DOPC  C21620428   1.997   7.292   9.420  0.0389 -0.0004  0.3226
  168DOPC  H16R20429   1.987   7.182   9.402  1.2109 -0.1621  0.6244
  168DOPC  H16S20430   2.094   7.319   9.373  0.0648  0.9653  0.9073
  168DOPC  C21720431   1.868   7.356   9.365 -0.1654 -0.7679 -0.0515
  168DOPC  H17R20432   1.851   7.464   9.381 -0.1617 -0.4789 -1.7585
  168DOPC  H17S20433   1.778   7.313   9.413 -0.6994  0.5755  0.2005
  168DOPC  C21820434   1.859   7.329   9.216  0.2482 -0.8175 -0.1746
  168DOPC  H18R20435   1.949   7.369   9.163  1.5084  1.1733  3.1940
  168DOPC  H18S20436   1.771   7.384   9.176  0.5830  1.5453  2.0722
  168DOPC  H18T20437   1.849   7.222   9.189 -0.4676 -1.1521  1.3050
  168DOPC   C3320438   1.640   7.924  10.474  0.2981  0.1503 -0.9904
  168DOPC   H3X20439   1.691   7.975  10.389 -0.5031  0.5165 -1.2556
  168DOPC   H3Y20440   1.532   7.916  10.450 -0.1072  0.3930  0.6418
  168DOPC   C3420441   1.698   7.783  10.483  0.3873 -0.0613 -0.2464
  168DOPC   H4X20442   1.644   7.723  10.559 -0.7564  1.7145  0.4166
  168DOPC   H4Y20443   1.797   7.805  10.529 -0.4955 -1.4372  2.5655
  168DOPC   C3520444   1.689   7.724  10.343 -0.3603  0.3703  1.1012
  168DOPC   H5X20445   1.745   7.628  10.343  0.7587  0.9674  3.2026
  168DOPC   H5Y20446   1.747   7.791  10.276 -0.1944  2.1342  2.8969
  168DOPC   C3620447   1.549   7.703  10.294 -0.5926 -0.0143  0.3859
  168DOPC   H6X20448   1.480   7.791  10.295 -0.6808 -0.0448 -0.9699
  168DOPC   H6Y20449   1.548   7.666  10.189 -0.8178 -2.7594  1.2966
  168DOPC   C3720450   1.477   7.590  10.386 -0.4021  0.0962 -0.1366
  168DOPC   H7X20451   1.552   7.509  10.387  0.3398  0.7185 -1.4986
  168DOPC   H7Y20452   1.460   7.626  10.489 -0.6005 -2.1296  0.6567
  168DOPC   C3820453   1.347   7.536  10.326  0.9036 -0.1937  0.2187
  168DOPC   H8X20454   1.305   7.448  10.380 -1.2132  0.2240 -0.6582
  168DOPC   H8Y20455   1.358   7.488  10.227  0.0857  0.8151 -0.3845
  168DOPC   C3920456   1.235   7.637  10.306 -1.4533 -0.5405 -1.1793
  168DOPC   H9X20457   1.180   7.664  10.398 -0.0380 -0.9527 -0.1740
  168DOPC  C31020458   1.198   7.684  10.187 -0.6912  0.4540 -0.1802
  168DOPC  H10X20459   1.121   7.763  10.180 -0.8280  0.5610  1.9478
  168DOPC  C31120460   1.265   7.641  10.053 -0.0975 -0.2584  0.2134
  168DOPC  H11X20461   1.363   7.591  10.051  0.1473  0.1408 -2.7491
  168DOPC  H11Y20462   1.289   7.730   9.990  1.1552 -0.7579 -0.0306
  168DOPC  C31220463   1.183   7.541   9.970  0.5111  0.2100 -0.3038
  168DOPC  H12X20464   1.077   7.576   9.969  0.4513  0.4329  2.7784
  168DOPC  H12Y20465   1.186   7.450  10.035  0.6345  1.9279  2.2534
  168DOPC  C31320466   1.233   7.512   9.829 -0.0704 -0.4560  0.3306
  168DOPC  H13X20467   1.147   7.476   9.769  0.2206  0.3724 -0.6108
  168DOPC  H13Y20468   1.276   7.604   9.784 -0.5409  0.1920  1.1538
  168DOPC  C31420469   1.345   7.404   9.817  0.6023  0.2538 -0.0229
  168DOPC  H14X20470   1.445   7.417   9.863  0.0168  0.7742  1.1380
  168DOPC  H14Y20471   1.303   7.313   9.865  0.3369  0.9902  1.1768
  168DOPC  C31520472   1.364   7.369   9.669  0.5906  0.1189 -0.0426
  168DOPC  H15X20473   1.378   7.468   9.620  0.3653  0.8050  1.2295
  168DOPC  H15Y20474   1.275   7.312   9.635 -1.2543  1.4789  2.1832
  168DOPC  C31620475   1.472   7.265   9.640  0.3649  0.4583  0.2825
  168DOPC  H16X20476   1.563   7.313   9.682 -0.7160  0.7543  2.4366
  168DOPC  H16Y20477   1.449   7.169   9.691  2.6287  0.0404  0.6047
  168DOPC  C31720478   1.497   7.243   9.487 -0.3360 -0.4057  0.0457
  168DOPC  H17X20479   1.523   7.345   9.454  0.8750 -0.4557  0.7695
  168DOPC  H17Y20480   1.587   7.179   9.472 -0.2416 -0.7469  1.7888
  168DOPC  C31820481   1.393   7.187   9.397 -0.1978  0.5600 -0.2795
  168DOPC  H18X20482   1.295   7.232   9.426 -0.3304 -0.0272  0.2213
  168DOPC  H18Y20483   1.412   7.205   9.290 -3.4346  1.2607 -0.8612
  168DOPC  H18Z20484   1.381   7.077   9.412  0.6401  0.5020 -0.0097
  169DOPC     N20485   7.418   0.546  11.451 -0.2223 -0.1702 -0.2975
  169DOPC   C1220486   7.402   0.413  11.374 -0.6688  0.3303 -0.0662
  169DOPC  H12A20487   7.340   0.343  11.428 -0.1439 -0.3336 -0.3139
  169DOPC  H12B20488   7.498   0.364  11.371 -0.9772 -0.2437 -1.5336
  169DOPC   C1320489   7.295   0.624  11.424  0.1521 -0.4030 -0.0719
  169DOPC  H13A20490   7.281   0.710  11.488  0.5773  0.5238 -1.1853
  169DOPC  H13B20491   7.289   0.659  11.322  0.3981  0.0276  0.0601
  169DOPC  H13C20492   7.215   0.552  11.437 -0.1814 -0.1192 -0.5248
  169DOPC   C1420493   7.526   0.635  11.398 -0.3219  0.3816 -1.0631
  169DOPC  H14A20494   7.628   0.606  11.422  0.0866 -0.1583 -3.2434
  169DOPC  H14B20495   7.521   0.615  11.292  0.6068  0.7417 -1.1844
  169DOPC  H14C20496   7.510   0.735  11.436 -0.1712 -0.9623  3.0524
  169DOPC   C1520497   7.434   0.526  11.601  0.9965 -0.0248  0.2754
  169DOPC  H15A20498   7.513   0.455  11.623 -0.9322 -2.0211  1.1400
  169DOPC  H15B20499   7.343   0.491  11.647  0.7714  1.0982  0.7186
  169DOPC  H15C20500   7.451   0.623  11.646  0.4920 -0.1227  0.6884
  169DOPC   C1120501   7.346   0.429  11.223 -0.4239 -0.0287  0.4001
  169DOPC  H11A20502   7.333   0.325  11.186  0.2850  0.2193 -0.5786
  169DOPC  H11B20503   7.239   0.459  11.231 -0.8202 -1.3524  0.3892
  169DOPC     P20504   7.363   0.600  11.034 -0.1802 -0.0149 -0.2412
  169DOPC   O1320505   7.464   0.661  10.946  0.3806 -0.1063 -0.3448
  169DOPC   O1420506   7.290   0.693  11.117 -0.0161 -0.3483  0.2923
  169DOPC   O1220507   7.433   0.498  11.132  0.1978  0.4509 -0.0634
  169DOPC   O1120508   7.263   0.505  10.945 -0.3523  0.6184 -0.2138
  169DOPC    C120509   7.325   0.402  10.872 -0.1296 -0.6642 -0.4971
  169DOPC    HA20510   7.318   0.313  10.939  1.9042 -1.4394 -1.2253
  169DOPC    HB20511   7.436   0.409  10.860  0.1408 -2.7376  0.3138
  169DOPC    C220512   7.251   0.365  10.740 -0.5758  0.0689  0.1602
  169DOPC    HS20513   7.317   0.289  10.694 -0.7762 -0.0408  0.0549
  169DOPC   O2120514   7.262   0.484  10.651  0.1773  0.3863  0.0045
  169DOPC   C2120515   7.381   0.522  10.615 -0.3237  0.4027 -0.6023
  169DOPC   O2220516   7.483   0.459  10.620  0.3923  0.4680  0.3953
  169DOPC   C2220517   7.357   0.656  10.549  0.3625 -0.6305 -0.6697
  169DOPC   H2R20518   7.297   0.724  10.612  2.7585  1.3995 -0.4336
  169DOPC   H2S20519   7.309   0.634  10.451  1.0728  0.1664 -1.2059
  169DOPC    C320520   7.110   0.314  10.767  0.3048 -0.2453 -0.2289
  169DOPC    HX20521   7.050   0.403  10.796  0.7971  0.2643 -0.7494
  169DOPC    HY20522   7.103   0.238  10.847 -1.5478  1.1116  1.0009
  169DOPC   O3120523   7.063   0.257  10.647 -0.2543  0.1035  0.4356
  169DOPC   C3120524   7.088   0.126  10.631 -0.5296 -0.0115 -0.0621
  169DOPC   O3220525   7.164   0.060  10.698  0.5616 -0.2263 -0.1069
  169DOPC   C3220526   7.028   0.074  10.503  0.4329  0.1645  0.3036
  169DOPC   H2X20527   6.986  -0.026  10.526 -0.4040 -0.1934 -2.3987
  169DOPC   H2Y20528   6.950   0.137  10.455  2.3679  1.7786 -0.8897
  169DOPC   C2320529   7.496   0.720  10.521 -0.2869  0.9389  0.0468
  169DOPC   H3R20530   7.561   0.658  10.456 -0.5518  2.1789 -1.4583
  169DOPC   H3S20531   7.556   0.747  10.610 -0.0385  2.6606 -0.6016
  169DOPC   C2420532   7.471   0.854  10.459  0.4491  0.4279  0.4263
  169DOPC   H4R20533   7.414   0.917  10.530 -0.8539  1.9007 -1.8072
  169DOPC   H4S20534   7.404   0.851  10.371  0.6069 -0.4555  0.3212
  169DOPC   C2520535   7.607   0.933  10.429  0.3587 -0.3653 -0.7994
  169DOPC   H5R20536   7.653   0.935  10.530 -0.7523  1.7916 -0.2813
  169DOPC   H5S20537   7.588   1.039  10.400  0.5918 -0.3416 -0.8634
  169DOPC   C2620538   7.698   0.864  10.331 -0.0446 -0.0804 -0.4430
  169DOPC   H6R20539   7.721   0.755  10.335 -1.3077 -0.3662 -0.3882
  169DOPC   H6S20540   7.789   0.927  10.331 -1.0469  1.4298 -0.3187
  169DOPC   C2720541   7.652   0.887  10.185  0.0208 -0.2058 -0.2004
  169DOPC   H7R20542   7.631   0.995  10.170 -1.9318 -0.5115  0.0561
  169DOPC   H7S20543   7.563   0.821  10.190 -0.0588 -0.0133  1.7891
  169DOPC   C2820544   7.754   0.838  10.074 -0.6739  0.1692  0.1392
  169DOPC   H8R20545   7.766   0.730  10.098  0.6586  0.7425  2.4298
  169DOPC   H8S20546   7.855   0.883  10.087  0.4103 -1.2952 -2.5356
  169DOPC   C2920547   7.720   0.872   9.926 -0.2702  0.2550 -0.3417
  169DOPC   H9R20548   7.774   0.957   9.883  0.5959 -0.5283 -0.8513
  169DOPC  C21020549   7.615   0.828   9.852 -0.6204  0.6201  0.4025
  169DOPC  H10R20550   7.601   0.864   9.749 -1.2116 -0.1292  0.2102
  169DOPC  C21120551   7.520   0.716   9.887  0.2770 -0.0861 -0.0773
  169DOPC  H11R20552   7.414   0.750   9.887 -0.8306 -2.9402  3.3103
  169DOPC  H11S20553   7.531   0.685   9.993 -0.9077  1.6504  0.5937
  169DOPC  C21220554   7.549   0.598   9.798 -0.2408 -0.3084  0.0780
  169DOPC  H12R20555   7.498   0.507   9.837  1.7289 -0.0222  3.7882
  169DOPC  H12S20556   7.654   0.562   9.791 -0.6322 -1.5127  0.1680
  169DOPC  C21320557   7.499   0.607   9.652 -0.1051  0.1007 -0.4976
  169DOPC  H13R20558   7.559   0.680   9.594 -1.0244  0.9504 -0.4055
  169DOPC  H13S20559   7.397   0.651   9.647 -0.0334  0.5506  1.2127
  169DOPC  C21420560   7.510   0.476   9.578 -0.4816  0.1007  0.2251
  169DOPC  H14R20561   7.455   0.488   9.482 -0.3771  0.8361  0.2504
  169DOPC  H14S20562   7.448   0.394   9.619 -1.1597  0.9016  0.8319
  169DOPC  C21520563   7.655   0.423   9.547  0.4122  0.3608  0.6004
  169DOPC  H15R20564   7.648   0.317   9.512  1.7417  0.8147 -1.1642
  169DOPC  H15S20565   7.724   0.421   9.634  0.3191  0.9496  0.6900
  169DOPC  C21620566   7.723   0.512   9.438 -0.4690 -0.5397  0.2110
  169DOPC  H16R20567   7.746   0.609   9.487 -0.6572  0.9810 -2.4955
  169DOPC  H16S20568   7.642   0.539   9.367 -0.6492  0.1155  0.6584
  169DOPC  C21720569   7.839   0.445   9.361 -0.7728 -0.0513 -0.3218
  169DOPC  H17R20570   7.906   0.394   9.435  0.8266  1.2246 -0.8222
  169DOPC  H17S20571   7.910   0.520   9.320  1.0648 -0.1175  2.4369
  169DOPC  C21820572   7.790   0.344   9.261 -0.2907  0.2142  0.5986
  169DOPC  H18R20573   7.739   0.403   9.182  2.3299  0.1535 -1.2793
  169DOPC  H18S20574   7.714   0.273   9.301  0.8509 -1.1121  0.4925
  169DOPC  H18T20575   7.878   0.295   9.215 -0.2532  0.4290  0.4385
  169DOPC   C3320576   7.128   0.045  10.394 -0.5899  0.3144  0.4164
  169DOPC   H3X20577   7.198  -0.026  10.443 -1.4549 -2.6498 -2.2666
  169DOPC   H3Y20578   7.185   0.130  10.349  0.2377 -0.3188  0.2340
  169DOPC   C3420579   7.058  -0.034  10.276 -0.4508 -0.6473  0.2545
  169DOPC   H4X20580   6.984   0.036  10.231 -0.2463 -1.1222 -0.8357
  169DOPC   H4Y20581   7.000  -0.119  10.320  0.5901 -0.4717  2.0659
  169DOPC   C3520582   7.150  -0.082  10.162  0.6953  0.1547 -0.0686
  169DOPC   H5X20583   7.218   0.003  10.142  1.0825 -0.3663 -1.0060
  169DOPC   H5Y20584   7.092  -0.102  10.069 -0.3331 -0.6446  0.7310
  169DOPC   C3620585   7.225  -0.202  10.204 -0.2713  0.1238  0.3123
  169DOPC   H6X20586   7.289  -0.168  10.288  0.0976 -1.6320  0.7707
  169DOPC   H6Y20587   7.178  -0.299  10.231  1.1312 -0.5236  0.5308
  169DOPC   C3720588   7.315  -0.255  10.086 -0.2088  0.0121 -0.4182
  169DOPC   H7X20589   7.253  -0.300  10.006 -1.8466 -0.7142  1.1882
  169DOPC   H7Y20590   7.370  -0.168  10.043  3.2808 -1.3601  0.8946
  169DOPC   C3820591   7.431  -0.353  10.121 -0.1614  0.2491 -0.0776
  169DOPC   H8X20592   7.510  -0.307  10.184  2.5252 -2.8585 -0.8986
  169DOPC   H8Y20593   7.486  -0.361  10.024 -0.0550  1.4177 -0.1243
  169DOPC   C3920594   7.395  -0.497  10.152  0.2590 -0.3011 -0.3620
  169DOPC   H9X20595   7.301  -0.520  10.100  0.0228 -1.5455  0.5668
  169DOPC  C31020596   7.457  -0.587  10.224 -0.1284  0.1882  0.5397
  169DOPC  H10X20597   7.424  -0.692  10.225 -1.6318  0.4693 -2.9149
  169DOPC  C31120598   7.591  -0.557  10.296 -0.9042 -0.1350 -0.0001
  169DOPC  H11X20599   7.609  -0.620  10.385 -1.6316 -1.5263 -0.8000
  169DOPC  H11Y20600   7.583  -0.454  10.335 -0.1869 -0.8055  2.0739
  169DOPC  C31220601   7.719  -0.568  10.204  0.4084  0.0266 -0.3480
  169DOPC  H12X20602   7.729  -0.483  10.133 -0.0274  0.6068  0.2650
  169DOPC  H12Y20603   7.721  -0.663  10.147  2.2979  1.1264 -2.2773
  169DOPC  C31320604   7.856  -0.569  10.270 -0.6868 -0.3887  0.2106
  169DOPC  H13X20605   7.849  -0.469  10.317 -1.3935  1.4131 -3.3264
  169DOPC  H13Y20606   7.858  -0.653  10.342  0.4950 -2.3076 -1.9022
  169DOPC  C31420607   7.978  -0.570  10.179  0.0587  0.3266  0.8052
  169DOPC  H14X20608   7.947  -0.626  10.088  0.8264 -1.5044  1.6347
  169DOPC  H14Y20609   8.006  -0.469  10.140  1.4587  0.2189  1.5139
  169DOPC  C31520610   8.103  -0.620  10.245  0.8305  0.6278 -1.0494
  169DOPC  H15X20611   8.176  -0.644  10.166  1.0036  3.0305 -1.6875
  169DOPC  H15Y20612   8.072  -0.708  10.307 -1.6484  0.8635 -1.8286
  169DOPC  C31620613   8.166  -0.516  10.343 -0.3795 -0.0334 -0.0713
  169DOPC  H16X20614   8.192  -0.428  10.281 -0.9375 -0.0633 -0.3537
  169DOPC  H16Y20615   8.094  -0.485  10.422  1.9697  1.1188  1.7696
  169DOPC  C31720616   8.284  -0.574  10.410 -0.0174  0.3176 -0.0069
  169DOPC  H17X20617   8.249  -0.660  10.470 -0.8253 -0.6926 -1.8497
  169DOPC  H17Y20618   8.354  -0.613  10.332  0.4482  4.3349 -1.8685
  169DOPC  C31820619   8.351  -0.477  10.507  0.4240 -0.5802  0.3237
  169DOPC  H18X20620   8.444  -0.511  10.558  1.2445  1.2883  0.1274
  169DOPC  H18Y20621   8.373  -0.379  10.460 -1.5411  0.7361  1.9629
  169DOPC  H18Z20622   8.284  -0.452  10.592  0.8676 -1.3595  0.9184
  170DOPC     N20623   7.114   7.220  10.972 -0.7007  0.5605  0.1500
  170DOPC   C1220624   7.075   7.197  10.829 -0.1591  1.0416 -0.2262
  170DOPC  H12A20625   7.122   7.108  10.791 -1.3484  0.0733  0.4862
  170DOPC  H12B20626   7.104   7.282  10.769 -1.5616  0.7982 -1.2788
  170DOPC   C1320627   7.265   7.225  10.989  0.2623 -0.0037  1.2027
  170DOPC  H13A20628   7.298   7.308  10.928  2.2706 -1.0741  0.7330
  170DOPC  H13B20629   7.288   7.258  11.089 -1.3266  0.4325  1.4505
  170DOPC  H13C20630   7.330   7.150  10.947 -0.9999  0.1728 -1.2496
  170DOPC   C1420631   7.068   7.095  11.050  0.5328 -0.1177  0.0265
  170DOPC  H14A20632   7.112   7.001  11.019 -1.1358 -0.5421 -1.2534
  170DOPC  H14B20633   7.088   7.115  11.154  0.6119 -2.5533  0.5444
  170DOPC  H14C20634   6.960   7.084  11.040  0.5280 -0.0841  0.0439
  170DOPC   C1520635   7.045   7.337  11.038  0.0334 -0.1742 -0.3573
  170DOPC  H15A20636   6.941   7.319  11.018 -0.0150 -3.1448  1.9543
  170DOPC  H15B20637   7.076   7.430  10.992  0.7481  0.7718  1.9074
  170DOPC  H15C20638   7.061   7.344  11.144 -3.4111  1.5492  0.1704
  170DOPC   C1120639   6.920   7.183  10.807 -0.4920 -0.0823  0.2754
  170DOPC  H11A20640   6.879   7.280  10.841  0.5609  0.8415 -1.0070
  170DOPC  H11B20641   6.912   7.191  10.697 -2.6878  0.6608  0.4459
  170DOPC     P20642   6.825   6.929  10.807 -0.4825 -0.1458  0.6772
  170DOPC   O1320643   6.680   6.903  10.842 -0.0750  0.0506  0.0763
  170DOPC   O1420644   6.935   6.839  10.856  0.3670  0.1202 -0.0564
  170DOPC   O1220645   6.861   7.068  10.870 -0.1772 -0.1169 -0.2810
  170DOPC   O1120646   6.844   6.946  10.649  0.0546 -0.4043 -0.2572
  170DOPC    C120647   6.745   6.898  10.560 -0.5427  0.3613  0.4701
  170DOPC    HA20648   6.757   6.947  10.461 -0.9394 -1.7734 -0.7123
  170DOPC    HB20649   6.641   6.925  10.591 -0.7882 -1.8119  1.7492
  170DOPC    C220650   6.744   6.741  10.546 -0.4505  0.7115 -0.0991
  170DOPC    HS20651   6.733   6.693  10.645 -2.2358  0.6268 -0.3189
  170DOPC   O2120652   6.866   6.707  10.481  0.2081  0.5120 -0.5080
  170DOPC   C2120653   6.917   6.582  10.512  0.5990 -0.2368  0.1565
  170DOPC   O2220654   6.883   6.513  10.610  0.1556 -0.0718  0.7051
  170DOPC   C2220655   7.019   6.544  10.411 -0.3353  0.9343 -0.2099
  170DOPC   H2R20656   6.978   6.475  10.334  3.4420 -0.9828 -0.7659
  170DOPC   H2S20657   7.090   6.476  10.463 -0.3875  1.8492  1.0942
  170DOPC    C320658   6.627   6.693  10.460  0.1035 -0.3710  1.0123
  170DOPC    HX20659   6.541   6.735  10.516  0.1753 -1.1431  1.7262
  170DOPC    HY20660   6.605   6.584  10.465  0.8684 -0.5549  0.5317
  170DOPC   O3120661   6.622   6.738  10.318  0.7651 -0.2966 -0.6129
  170DOPC   C3120662   6.682   6.646  10.237  0.1639  0.5815  0.4594
  170DOPC   O3220663   6.722   6.535  10.273 -0.4034  0.3638  0.2659
  170DOPC   C3220664   6.668   6.688  10.095  0.3591 -0.0759  0.8445
  170DOPC   H2X20665   6.559   6.683  10.072  0.7715 -1.1301 -1.1492
  170DOPC   H2Y20666   6.704   6.793  10.091  2.2266 -0.6530  1.5513
  170DOPC   C2320667   7.111   6.659  10.349  0.1470  0.0953 -0.1282
  170DOPC   H3R20668   7.177   6.694  10.431 -0.0608  3.1433 -1.1517
  170DOPC   H3S20669   7.043   6.738  10.312 -0.6918 -0.5943 -0.1046
  170DOPC   C2420670   7.203   6.608  10.237  0.1745  0.5847 -0.4349
  170DOPC   H4R20671   7.142   6.565  10.154 -1.1453  1.2480  0.1670
  170DOPC   H4S20672   7.264   6.524  10.277 -0.4821  0.1116 -0.4073
  170DOPC   C2520673   7.295   6.722  10.188 -0.1353  0.4759  0.4838
  170DOPC   H5R20674   7.355   6.772  10.267 -0.5488  0.0820  1.0586
  170DOPC   H5S20675   7.246   6.803  10.130  1.1752  0.2925 -0.9493
  170DOPC   C2620676   7.408   6.664  10.103  0.9636 -0.2451  0.3183
  170DOPC   H6R20677   7.365   6.630  10.007 -3.0717  3.6548  0.3826
  170DOPC   H6S20678   7.450   6.576  10.156 -0.2106 -1.8807 -1.3485
  170DOPC   C2720679   7.506   6.772  10.059 -0.1581  0.0504  0.3232
  170DOPC   H7R20680   7.528   6.842  10.143 -0.8119  1.0092 -0.2781
  170DOPC   H7S20681   7.460   6.835   9.980  1.8733 -0.0260 -0.9734
  170DOPC   C2820682   7.647   6.726  10.018  0.0634 -0.5297 -0.9177
  170DOPC   H8R20683   7.683   6.657  10.098 -1.0367 -0.1502 -0.0754
  170DOPC   H8S20684   7.712   6.816  10.020  0.6501 -0.9495 -0.5359
  170DOPC   C2920685   7.654   6.654   9.884 -0.1631  0.5458  0.7578
  170DOPC   H9R20686   7.556   6.607   9.863  0.0735  0.6007 -0.4963
  170DOPC  C21020687   7.764   6.637   9.805  0.7821 -0.0919 -0.4552
  170DOPC  H10R20688   7.753   6.591   9.706  1.5647  3.6108 -2.4533
  170DOPC  C21120689   7.898   6.684   9.817 -0.0337  0.0255 -0.4954
  170DOPC  H11R20690   7.967   6.597   9.807 -1.2896 -0.9004 -1.4546
  170DOPC  H11S20691   7.916   6.731   9.917  2.3017  1.1203 -1.3498
  170DOPC  C21220692   7.942   6.782   9.712  0.1323 -0.0899  0.0364
  170DOPC  H12R20693   7.937   6.736   9.612 -0.0125 -1.8816  0.8393
  170DOPC  H12S20694   8.047   6.812   9.735  1.0332 -2.5964 -0.5049
  170DOPC  C21320695   7.863   6.921   9.708 -0.3302  0.3243  0.1982
  170DOPC  H13R20696   7.757   6.904   9.681  0.2470 -0.7048 -1.5751
  170DOPC  H13S20697   7.894   6.988   9.624 -0.1421 -0.5202 -0.4188
  170DOPC  C21420698   7.868   6.998   9.846  1.3314  0.5003 -0.1316
  170DOPC  H14R20699   7.965   6.992   9.901  0.7589 -1.8829  0.7792
  170DOPC  H14S20700   7.799   6.953   9.920  1.6856  1.3809  0.7620
  170DOPC  C21520701   7.827   7.148   9.831 -0.5153  0.2460 -0.1670
  170DOPC  H15R20702   7.820   7.196   9.930  1.9015 -1.0891  0.7174
  170DOPC  H15S20703   7.727   7.149   9.782 -1.0933 -0.6903  0.9594
  170DOPC  C21620704   7.919   7.243   9.746 -0.1544  0.7800 -0.1261
  170DOPC  H16R20705   7.917   7.223   9.636  2.5770 -0.9887  0.0611
  170DOPC  H16S20706   8.015   7.203   9.783 -0.2226  1.9496  1.3960
  170DOPC  C21720707   7.901   7.391   9.776 -0.4663 -0.5639 -0.3253
  170DOPC  H17R20708   7.866   7.402   9.880 -0.4539  4.4300 -0.5864
  170DOPC  H17S20709   7.813   7.433   9.723  1.0080  2.1495 -0.8449
  170DOPC  C21820710   8.023   7.480   9.769 -0.0474 -0.2101 -0.4943
  170DOPC  H18R20711   8.098   7.442   9.841 -1.0863  0.6399  1.0830
  170DOPC  H18S20712   8.010   7.587   9.796  1.9793 -0.0117 -0.1555
  170DOPC  H18T20713   8.063   7.465   9.667  1.1983 -0.7094  0.0525
  170DOPC   C3320714   6.749   6.599  10.001  0.3089  0.5806  0.0974
  170DOPC   H3X20715   6.710   6.495  10.005  2.5625 -0.2754  1.1804
  170DOPC   H3Y20716   6.854   6.599  10.035  0.3549 -0.7825  0.0153
  170DOPC   C3420717   6.739   6.640   9.851 -0.3873 -0.1540 -0.0674
  170DOPC   H4X20718   6.811   6.580   9.792 -0.6381 -0.6677  0.1430
  170DOPC   H4Y20719   6.768   6.747   9.843 -2.0107  0.5334  2.1710
  170DOPC   C3520720   6.598   6.629   9.795 -0.0629  0.2246 -0.1512
  170DOPC   H5X20721   6.593   6.665   9.690 -2.6676  1.5580  0.3403
  170DOPC   H5Y20722   6.520   6.688   9.849 -0.3992  1.0163 -1.4315
  170DOPC   C3620723   6.540   6.486   9.771 -1.0402  0.2986  0.3219
  170DOPC   H6X20724   6.607   6.417   9.715  0.1396  0.3790  1.5849
  170DOPC   H6Y20725   6.521   6.440   9.870 -0.4032 -1.8913 -0.5194
  170DOPC   C3720726   6.396   6.489   9.708 -0.7798  0.2079 -0.7003
  170DOPC   H7X20727   6.332   6.568   9.752 -1.2594  0.0388 -1.0897
  170DOPC   H7Y20728   6.409   6.524   9.603  0.1020  0.2986 -0.5683
  170DOPC   C3820729   6.328   6.354   9.720  0.4227  0.5734 -0.0961
  170DOPC   H8X20730   6.327   6.334   9.829  0.4792  1.7672  0.1363
  170DOPC   H8Y20731   6.384   6.281   9.656 -2.9781  1.2925 -4.3407
  170DOPC   C3920732   6.188   6.349   9.678 -0.5603  0.3992  0.0358
  170DOPC   H9X20733   6.155   6.437   9.622 -0.0118 -0.4732 -1.7252
  170DOPC  C31020734   6.107   6.245   9.713 -0.1416  0.3309  0.4309
  170DOPC  H10X20735   6.004   6.252   9.673  0.4938 -0.5778 -1.5198
  170DOPC  C31120736   6.145   6.112   9.783  0.1623 -0.0462 -0.1274
  170DOPC  H11X20737   6.110   6.110   9.889  1.3077 -0.0408  0.2743
  170DOPC  H11Y20738   6.253   6.094   9.804  0.3218  1.6828  0.6491
  170DOPC  C31220739   6.090   5.981   9.724  0.0394  0.8019 -0.4142
  170DOPC  H12X20740   5.981   5.985   9.741 -0.2446  1.9883 -2.1907
  170DOPC  H12Y20741   6.135   5.897   9.780 -0.7112  0.9118  0.3645
  170DOPC  C31320742   6.116   5.964   9.579 -0.0213 -0.5007  0.4594
  170DOPC  H13X20743   6.076   6.051   9.523  0.4708  0.3531  1.3866
  170DOPC  H13Y20744   6.224   5.964   9.552 -0.6252 -1.5875 -2.2265
  170DOPC  C31420745   6.036   5.834   9.537  0.4070  0.3312  0.2213
  170DOPC  H14X20746   6.080   5.743   9.584 -2.0480 -0.9618  0.2119
  170DOPC  H14Y20747   5.930   5.841   9.569  0.5620 -0.8076  1.0174
  170DOPC  C31520748   6.045   5.819   9.383  0.7394 -0.2456  0.0231
  170DOPC  H15X20749   6.150   5.833   9.349  0.9399 -1.3791  0.1299
  170DOPC  H15Y20750   5.987   5.901   9.336 -2.0406 -1.6758  0.7344
  170DOPC  C31620751   5.981   5.689   9.326 -0.6140 -0.3086  0.4933
  170DOPC  H16X20752   5.872   5.687   9.347 -0.7952 -1.3231 -0.4551
  170DOPC  H16Y20753   5.972   5.706   9.217 -3.8511 -0.3090  0.6903
  170DOPC  C31720754   6.051   5.556   9.357  0.5750  0.1135 -0.3540
  170DOPC  H17X20755   6.138   5.560   9.287 -0.3202  0.0158 -1.5011
  170DOPC  H17Y20756   6.092   5.559   9.460 -0.0641  0.1554 -0.1009
  170DOPC  C31820757   5.956   5.436   9.338 -0.0976  0.3003  0.6135
  170DOPC  H18X20758   5.864   5.446   9.400 -0.0577 -1.3976  0.9784
  170DOPC  H18Y20759   5.928   5.427   9.231  1.6443 -1.0251  0.2309
  170DOPC  H18Z20760   6.006   5.343   9.373  0.8758 -0.2643 -2.0268
  171DOPC     N20761   3.719   2.230   7.084 -0.6146  0.6502 -0.5809
  171DOPC   C1220762   3.643   2.137   7.002  0.9116  0.4109 -0.2891
  171DOPC  H12A20763   3.688   2.041   7.025  0.2456  0.2863  0.5381
  171DOPC  H12B20764   3.665   2.171   6.902  0.4426  2.2292  0.1946
  171DOPC   C1320765   3.710   2.185   7.232  0.1992 -0.2531  0.0886
  171DOPC  H13A20766   3.741   2.083   7.249 -0.5437 -0.5456 -0.3124
  171DOPC  H13B20767   3.776   2.253   7.285 -1.1096  0.8863  0.3060
  171DOPC  H13C20768   3.615   2.202   7.280  1.6304 -1.2785  3.6033
  171DOPC   C1420769   3.689   2.376   7.069  0.3842  0.3270  0.0402
  171DOPC  H14A20770   3.667   2.405   6.967 -2.2787 -1.2027  0.0767
  171DOPC  H14B20771   3.596   2.380   7.123 -0.5274  0.8837 -1.5135
  171DOPC  H14C20772   3.766   2.428   7.123 -0.7409 -0.5632  2.6777
  171DOPC   C1520773   3.865   2.220   7.044 -0.5439 -0.4013  0.2801
  171DOPC  H15A20774   3.931   2.281   7.104  0.5369 -1.7276  0.5059
  171DOPC  H15B20775   3.864   2.259   6.943 -2.4980  3.2744  1.5369
  171DOPC  H15C20776   3.885   2.114   7.037 -1.1156 -0.7248  2.6943
  171DOPC   C1120777   3.490   2.135   7.004  0.8871  0.3558 -0.2753
  171DOPC  H11A20778   3.449   2.238   7.003  2.0639  1.0058  3.0259
  171DOPC  H11B20779   3.444   2.086   6.916  2.4375 -1.0675 -0.3439
  171DOPC     P20780   3.379   1.932   7.134  0.0936 -0.2675  0.3994
  171DOPC   O1320781   3.485   1.836   7.087 -0.2364  0.3246 -0.3594
  171DOPC   O1420782   3.250   1.930   7.061 -0.0673 -0.2010  0.2778
  171DOPC   O1220783   3.438   2.079   7.129 -0.5162 -0.4038  0.1422
  171DOPC   O1120784   3.354   1.902   7.284 -0.3074  0.8862 -0.7030
  171DOPC    C120785   3.281   1.991   7.370  0.6012 -1.0912 -0.0955
  171DOPC    HA20786   3.180   1.954   7.397  0.9602 -1.4172  0.8494
  171DOPC    HB20787   3.274   2.096   7.334  1.1311 -0.2074  2.2267
  171DOPC    C220788   3.362   1.997   7.504 -0.0371  0.6818 -0.2669
  171DOPC    HS20789   3.467   2.003   7.470  0.4516  0.0947  1.0644
  171DOPC   O2120790   3.343   1.857   7.562  0.0313 -0.3551 -0.1786
  171DOPC   C2120791   3.447   1.821   7.638  0.2481 -0.4499  0.0805
  171DOPC   O2220792   3.549   1.890   7.642 -0.1382 -0.0854 -0.0307
  171DOPC   C2220793   3.420   1.690   7.715  0.3309  0.2230  0.2433
  171DOPC   H2R20794   3.385   1.615   7.641 -0.6161 -0.4089  1.2997
  171DOPC   H2S20795   3.330   1.705   7.779  0.0330  1.0697 -0.3532
  171DOPC    C320796   3.319   2.104   7.606  0.5598 -0.0084 -0.2650
  171DOPC    HX20797   3.209   2.106   7.612  0.3434 -0.5890 -2.9549
  171DOPC    HY20798   3.328   2.202   7.553  0.8493  0.9751  1.5062
  171DOPC   O3120799   3.379   2.097   7.739 -0.3899  0.1122  0.1272
  171DOPC   C3120800   3.462   2.197   7.771 -0.2652 -0.7218  0.2173
  171DOPC   O3220801   3.482   2.298   7.710 -0.4493 -0.1722  0.0893
  171DOPC   C3220802   3.541   2.168   7.896 -0.5632  0.2387 -0.3864
  171DOPC   H2X20803   3.649   2.151   7.877 -0.6111  0.7031 -1.0976
  171DOPC   H2Y20804   3.525   2.248   7.971  0.2477  0.9444 -0.9490
  171DOPC   C2320805   3.544   1.630   7.785  0.4930  0.9109  0.1669
  171DOPC   H3R20806   3.571   1.695   7.872  2.5605 -0.1964  0.4188
  171DOPC   H3S20807   3.628   1.640   7.712  0.2021 -1.3345 -0.5544
  171DOPC   C2420808   3.530   1.482   7.816  0.1029 -0.2678 -0.6509
  171DOPC   H4R20809   3.622   1.449   7.869 -0.3507  0.1969  0.4657
  171DOPC   H4S20810   3.516   1.413   7.730 -1.1502  0.5441 -1.1219
  171DOPC   C2520811   3.409   1.463   7.915  0.5632 -0.3917 -0.7983
  171DOPC   H5R20812   3.386   1.354   7.920  1.0210 -0.4603  3.2161
  171DOPC   H5S20813   3.331   1.519   7.858  3.1049  2.4191 -1.7524
  171DOPC   C2620814   3.421   1.513   8.057 -0.3490 -0.0191 -0.2631
  171DOPC   H6R20815   3.430   1.624   8.054 -0.9752  0.1233  1.7254
  171DOPC   H6S20816   3.521   1.487   8.097 -1.6957 -3.5615  1.2008
  171DOPC   C2720817   3.300   1.478   8.144 -0.1787 -0.9289 -0.3501
  171DOPC   H7R20818   3.284   1.370   8.162 -0.2626 -0.5575  2.2288
  171DOPC   H7S20819   3.207   1.515   8.096 -0.1515  1.7598  1.4771
  171DOPC   C2820820   3.297   1.543   8.284  0.1809 -0.5941  0.5941
  171DOPC   H8R20821   3.214   1.504   8.348 -1.0787 -2.9919 -2.2748
  171DOPC   H8S20822   3.286   1.653   8.274  1.0694 -0.5074  0.4576
  171DOPC   C2920823   3.426   1.497   8.348  0.5929 -0.0430 -0.2254
  171DOPC   H9R20824   3.474   1.403   8.314 -0.0542  0.0669 -1.4766
  171DOPC  C21020825   3.480   1.557   8.457 -0.5223  0.3559  0.4042
  171DOPC  H10R20826   3.577   1.517   8.491  0.7867  1.2736 -1.9895
  171DOPC  C21120827   3.443   1.697   8.507 -0.6044  0.3701  0.5904
  171DOPC  H11R20828   3.350   1.738   8.463 -1.1905  0.6244  2.0190
  171DOPC  H11S20829   3.524   1.765   8.474  1.1451 -2.0902 -0.5850
  171DOPC  C21220830   3.421   1.712   8.655  0.9827  1.5617 -0.3923
  171DOPC  H12R20831   3.340   1.640   8.679  3.3334 -1.2570 -0.3554
  171DOPC  H12S20832   3.375   1.810   8.681 -2.7363 -0.4083  1.2395
  171DOPC  C21320833   3.541   1.683   8.745  0.5062  0.0471 -0.4305
  171DOPC  H13R20834   3.599   1.778   8.749 -0.5482  0.6841  0.1003
  171DOPC  H13S20835   3.615   1.617   8.694  1.1287  0.6058 -0.2641
  171DOPC  C21420836   3.506   1.607   8.878 -0.1783 -0.2047  0.0643
  171DOPC  H14R20837   3.595   1.546   8.906  1.0611  0.4481 -2.2215
  171DOPC  H14S20838   3.426   1.533   8.860  0.3052 -0.4931 -0.9374
  171DOPC  C21520839   3.446   1.698   8.985 -0.5185 -1.1826  0.4081
  171DOPC  H15R20840   3.349   1.745   8.958  0.1992 -1.0736 -2.2614
  171DOPC  H15S20841   3.516   1.783   8.995 -2.1439  0.4489 -1.3248
  171DOPC  C21620842   3.427   1.644   9.128  0.1096  0.1189  0.3462
  171DOPC  H16R20843   3.448   1.731   9.193  1.3664  1.0915 -1.2951
  171DOPC  H16S20844   3.500   1.561   9.135 -1.8030 -1.5930  0.8664
  171DOPC  C21720845   3.293   1.582   9.145 -0.2941  0.0805 -0.1804
  171DOPC  H17R20846   3.274   1.502   9.070 -0.3502  1.9197 -2.2120
  171DOPC  H17S20847   3.206   1.649   9.132  1.2576  2.6705  1.7821
  171DOPC  C21820848   3.263   1.528   9.282 -0.6056  0.3402  0.4345
  171DOPC  H18R20849   3.275   1.605   9.362 -1.8255  1.7530 -0.6925
  171DOPC  H18S20850   3.325   1.440   9.309 -0.5462  0.1308 -0.3602
  171DOPC  H18T20851   3.155   1.505   9.288 -0.7945  0.2602 -2.1165
  171DOPC   C3320852   3.493   2.034   7.966 -0.2929 -0.2498 -0.2450
  171DOPC   H3X20853   3.512   1.957   7.888 -0.4479  0.9718 -1.5357
  171DOPC   H3Y20854   3.387   2.045   7.995 -0.5158  0.9470 -1.4148
  171DOPC   C3420855   3.569   2.011   8.099 -0.6731 -0.1078 -0.2103
  171DOPC   H4X20856   3.674   1.983   8.077 -1.3108 -0.9059 -2.4818
  171DOPC   H4Y20857   3.532   1.910   8.130  0.9266 -0.7094 -0.1895
  171DOPC   C3520858   3.557   2.119   8.210  0.1150  0.5564 -0.1843
  171DOPC   H5X20859   3.455   2.163   8.203  0.3055  1.3467  1.5037
  171DOPC   H5Y20860   3.628   2.205   8.200  1.4915 -0.5356 -0.0911
  171DOPC   C3620861   3.577   2.069   8.352  0.2585  0.7494  0.8088
  171DOPC   H6X20862   3.500   2.000   8.392  0.7018 -0.9107 -1.0156
  171DOPC   H6Y20863   3.675   2.017   8.351  0.3146  0.7426  2.6894
  171DOPC   C3720864   3.587   2.185   8.451 -0.2199 -0.6328  0.2068
  171DOPC   H7X20865   3.649   2.265   8.405  0.4080 -1.3328 -0.1888
  171DOPC   H7Y20866   3.490   2.227   8.485  0.4492 -0.3031  1.7833
  171DOPC   C3820867   3.660   2.151   8.587  0.3322 -0.3880  0.4046
  171DOPC   H8X20868   3.709   2.235   8.641  0.9146  0.0341 -0.7388
  171DOPC   H8Y20869   3.744   2.100   8.536 -0.4122 -0.9469 -0.2867
  171DOPC   C3920870   3.561   2.077   8.675 -0.2248 -0.1317  0.6904
  171DOPC   H9X20871   3.463   2.057   8.628 -0.0481 -0.0496  0.2920
  171DOPC  C31020872   3.571   2.070   8.805  1.0117  0.3549  0.0681
  171DOPC  H10X20873   3.498   2.006   8.855  0.3639  1.0771  0.0738
  171DOPC  C31120874   3.673   2.108   8.904  0.9265 -0.2316 -0.1366
  171DOPC  H11X20875   3.633   2.195   8.959  0.7298 -0.5508  0.2256
  171DOPC  H11Y20876   3.775   2.134   8.866  0.6537  0.0021 -0.7350
  171DOPC  C31220877   3.699   2.009   9.020 -0.0338  0.3647  0.3335
  171DOPC  H12X20878   3.750   1.916   8.987 -1.0518 -0.4053  0.8405
  171DOPC  H12Y20879   3.600   1.971   9.054 -0.4250 -0.5435 -1.6996
  171DOPC  C31320880   3.772   2.065   9.146 -0.6100 -1.0248  0.9214
  171DOPC  H13X20881   3.729   2.158   9.188 -1.7314 -0.5894 -1.0757
  171DOPC  H13Y20882   3.764   1.985   9.222 -0.2570 -0.4641  1.5618
  171DOPC  C31420883   3.923   2.091   9.114 -0.4797 -0.5236  0.4373
  171DOPC  H14X20884   3.974   1.993   9.103 -0.7631 -1.0424  3.1493
  171DOPC  H14Y20885   3.946   2.160   9.030  2.7682  1.9036  3.0825
  171DOPC  C31520886   3.997   2.171   9.224 -0.3851 -0.4680  0.3342
  171DOPC  H15X20887   3.965   2.141   9.325  0.0396 -1.4020  0.1999
  171DOPC  H15Y20888   3.956   2.273   9.205 -0.3939 -0.6851 -0.9270
  171DOPC  C31620889   4.151   2.185   9.219  0.1120  0.1732  0.1120
  171DOPC  H16X20890   4.198   2.085   9.223  0.6558  0.3667 -1.0416
  171DOPC  H16Y20891   4.185   2.226   9.122  0.6473  1.6854  0.8991
  171DOPC  C31720892   4.211   2.275   9.334 -0.1319 -0.9267 -0.6582
  171DOPC  H17X20893   4.139   2.359   9.341  0.8575 -0.1022 -0.0634
  171DOPC  H17Y20894   4.206   2.208   9.423 -0.4752 -0.4086 -0.2779
  171DOPC  C31820895   4.348   2.326   9.298  0.3813  0.5200  0.1867
  171DOPC  H18X20896   4.403   2.385   9.375  0.9128  0.4522 -0.1371
  171DOPC  H18Y20897   4.413   2.244   9.260  0.4441 -0.2040  1.7570
  171DOPC  H18Z20898   4.335   2.395   9.213 -0.7394 -0.0549 -0.1344
  172DOPC     N20899   3.468   4.295   6.791 -0.0340 -0.0286  0.5941
  172DOPC   C1220900   3.403   4.251   6.918  0.3096 -0.5056 -0.9070
  172DOPC  H12A20901   3.479   4.238   6.994  1.6479 -1.2342 -2.3260
  172DOPC  H12B20902   3.362   4.153   6.898 -0.8382 -0.5830  1.4055
  172DOPC   C1320903   3.556   4.191   6.738  0.1161 -0.0745  0.1483
  172DOPC  H13A20904   3.615   4.146   6.817  0.1087 -1.6406 -0.6953
  172DOPC  H13B20905   3.494   4.111   6.700 -0.1344  0.0983  0.1936
  172DOPC  H13C20906   3.624   4.226   6.662  0.2141  1.1730  0.7930
  172DOPC   C1420907   3.550   4.418   6.819 -0.4905 -0.7305  0.0177
  172DOPC  H14A20908   3.494   4.498   6.866  0.0172 -0.5751  0.3713
  172DOPC  H14B20909   3.629   4.405   6.891  0.2006  2.0076 -0.1141
  172DOPC  H14C20910   3.601   4.447   6.729 -1.1255 -0.0278 -0.1331
  172DOPC   C1520911   3.372   4.336   6.687 -0.4138  0.1501  0.4414
  172DOPC  H15A20912   3.288   4.394   6.724 -1.0686 -1.4352  1.5300
  172DOPC  H15B20913   3.332   4.251   6.635  0.7282 -0.2207  0.1478
  172DOPC  H15C20914   3.426   4.390   6.611  2.1429 -0.8351  1.4345
  172DOPC   C1120915   3.292   4.351   6.971  0.0314  0.4529 -0.7184
  172DOPC  H11A20916   3.275   4.340   7.081 -0.1136  0.9078 -0.6953
  172DOPC  H11B20917   3.339   4.451   6.960 -0.1060  0.6112  0.0316
  172DOPC     P20918   3.089   4.208   6.919 -0.3263 -0.3558  0.1488
  172DOPC   O1320919   3.174   4.089   6.904 -0.7726 -0.1495  0.2304
  172DOPC   O1420920   2.977   4.219   6.823 -0.0802  0.7057 -0.0516
  172DOPC   O1220921   3.170   4.343   6.902  0.4494  0.0823  0.0755
  172DOPC   O1120922   3.050   4.205   7.074 -0.0020  0.0599  0.3644
  172DOPC    C120923   2.997   4.311   7.148  0.3309 -0.2222 -0.1555
  172DOPC    HA20924   2.890   4.329   7.124  0.3229  0.7449  0.5522
  172DOPC    HB20925   3.058   4.404   7.149 -1.6318  1.1402  1.3866
  172DOPC    C220926   2.997   4.276   7.301  0.4694 -0.6777 -0.0399
  172DOPC    HS20927   3.106   4.274   7.321  0.7710  0.8712 -1.2720
  172DOPC   O2120928   2.929   4.148   7.313  0.1101  0.1967 -0.1441
  172DOPC   C2120929   2.985   4.073   7.405  1.5591 -0.7624  0.4983
  172DOPC   O2220930   3.082   4.103   7.475 -0.3670 -0.0209 -0.2419
  172DOPC   C2220931   2.899   3.946   7.420 -0.0584  0.3712  0.0486
  172DOPC   H2R20932   2.820   3.946   7.343  1.0251  0.0640 -1.0942
  172DOPC   H2S20933   2.861   3.940   7.525  0.9482  0.9535  0.4636
  172DOPC    C320934   2.925   4.379   7.403  0.1660 -0.3962 -0.1693
  172DOPC    HX20935   2.816   4.379   7.382 -0.1674  2.4151  1.0936
  172DOPC    HY20936   2.965   4.480   7.379  1.3262 -1.2732 -2.0963
  172DOPC   O3120937   2.954   4.328   7.535 -0.1940 -0.2049  0.1074
  172DOPC   C3120938   3.067   4.376   7.586  0.4154 -0.0311 -0.0438
  172DOPC   O3220939   3.142   4.451   7.530 -0.5532 -0.4697 -0.2471
  172DOPC   C3220940   3.088   4.317   7.726 -0.1631  0.5548 -0.1776
  172DOPC   H2X20941   2.998   4.263   7.765  0.6538 -0.2475  0.6425
  172DOPC   H2Y20942   3.176   4.249   7.723 -0.1583  0.4606  1.2423
  172DOPC   C2320943   2.976   3.825   7.394 -0.6681  0.7155 -0.2692
  172DOPC   H3R20944   3.053   3.845   7.317  0.9609 -0.2871  1.0470
  172DOPC   H3S20945   2.913   3.745   7.349  0.1241  0.7524 -1.5108
  172DOPC   C2420946   3.056   3.766   7.516  0.2384  0.9619 -0.6679
  172DOPC   H4R20947   3.099   3.844   7.583  2.2585  0.5906 -1.4647
  172DOPC   H4S20948   3.136   3.700   7.478 -1.3682 -1.2593 -0.3837
  172DOPC   C2520949   2.960   3.693   7.616  0.5194  0.1647 -0.0862
  172DOPC   H5R20950   2.920   3.604   7.564 -0.6475 -0.2268  1.4253
  172DOPC   H5S20951   2.870   3.749   7.650  0.5981 -0.1253  0.6293
  172DOPC   C2620952   3.025   3.649   7.748 -0.3777 -0.4296 -0.3894
  172DOPC   H6R20953   3.096   3.564   7.732  1.5341  1.1099 -0.4686
  172DOPC   H6S20954   2.956   3.615   7.828 -0.3736  0.8936  0.1868
  172DOPC   C2720955   3.112   3.758   7.818 -0.6558 -0.6278  0.2917
  172DOPC   H7R20956   3.189   3.797   7.749 -0.6207 -2.4830 -0.7723
  172DOPC   H7S20957   3.165   3.710   7.903 -0.2367  0.0200  0.4032
  172DOPC   C2820958   3.020   3.873   7.870 -0.5284  0.2368 -0.1828
  172DOPC   H8R20959   2.947   3.834   7.944 -1.0937  1.3154 -0.1495
  172DOPC   H8S20960   2.964   3.918   7.786 -0.6754 -0.8436 -0.6754
  172DOPC   C2920961   3.109   3.971   7.946 -0.0191  0.3147  1.2607
  172DOPC   H9R20962   3.137   4.058   7.885  0.0060 -1.0209 -0.7406
  172DOPC  C21020963   3.142   3.968   8.076  0.1305  0.2054  0.0159
  172DOPC  H10R20964   3.208   4.047   8.113  0.9000 -1.0086  1.3107
  172DOPC  C21120965   3.100   3.873   8.184  0.4349  0.1194  0.6052
  172DOPC  H11R20966   3.181   3.801   8.209 -0.9340 -2.1438 -1.0920
  172DOPC  H11S20967   3.004   3.824   8.158  1.1662  0.0940 -2.4399
  172DOPC  C21220968   3.083   3.936   8.323 -0.4732 -0.5903  0.0500
  172DOPC  H12R20969   3.025   4.030   8.330 -2.5305 -1.8916  2.3295
  172DOPC  H12S20970   3.184   3.960   8.363 -0.5566  0.8689 -0.5407
  172DOPC  C21320971   3.030   3.835   8.427  0.5631 -0.9283 -0.9079
  172DOPC  H13R20972   3.094   3.746   8.443  1.3545 -0.1166  0.7078
  172DOPC  H13S20973   2.934   3.797   8.386  0.5561 -1.9899  0.0330
  172DOPC  C21420974   3.007   3.898   8.565  0.2988  0.0127  0.0946
  172DOPC  H14R20975   2.987   3.813   8.634  0.9853  0.9744  1.5300
  172DOPC  H14S20976   2.923   3.970   8.566  0.9682  0.8165  1.0502
  172DOPC  C21520977   3.132   3.963   8.628  0.1077 -0.3789  1.0283
  172DOPC  H15R20978   3.128   4.069   8.595  3.2894 -0.6758 -0.7022
  172DOPC  H15S20979   3.228   3.923   8.588 -0.2034  0.0108 -0.1201
  172DOPC  C21620980   3.134   3.964   8.779  0.0942  0.1205  0.1446
  172DOPC  H16R20981   3.162   3.865   8.822  3.0699  1.1001  0.6864
  172DOPC  H16S20982   3.034   3.982   8.823 -0.7628 -1.6732 -0.9625
  172DOPC  C21720983   3.225   4.081   8.830 -0.6319  0.5868 -0.3554
  172DOPC  H17R20984   3.189   4.174   8.783  0.1925  1.8278  1.3473
  172DOPC  H17S20985   3.329   4.053   8.801 -1.2294 -2.4960  0.0524
  172DOPC  C21820986   3.224   4.077   8.980 -0.0222  0.3521 -0.4779
  172DOPC  H18R20987   3.268   4.174   9.010  1.2235  0.1777 -1.6263
  172DOPC  H18S20988   3.278   3.998   9.036  0.8926  0.8154 -0.6845
  172DOPC  H18T20989   3.116   4.076   9.006 -0.2972  0.8199 -1.5445
  172DOPC   C3320990   3.124   4.425   7.828 -0.4989 -0.6775  0.0783
  172DOPC   H3X20991   3.198   4.493   7.779 -1.0365  0.2727  0.5570
  172DOPC   H3Y20992   3.174   4.379   7.916 -0.8061  0.2330  0.7462
  172DOPC   C3420993   3.006   4.499   7.893 -0.0994 -0.1265  0.6716
  172DOPC   H4X20994   2.956   4.423   7.957  0.9402  0.1374  1.8406
  172DOPC   H4Y20995   2.930   4.544   7.826  2.1698  4.0102  0.4988
  172DOPC   C3520996   3.039   4.610   7.981 -0.4291 -0.4091  0.1456
  172DOPC   H5X20997   2.968   4.694   7.964  1.2755  1.1631  0.4425
  172DOPC   H5Y20998   3.133   4.651   7.938 -0.2765  0.3736  1.1680
  172DOPC   C3620999   3.041   4.574   8.126 -0.7438  0.4887  0.6109
  172DOPC   H6X21000   3.096   4.480   8.148  0.8769  1.6803  1.9507
  172DOPC   H6Y21001   3.102   4.656   8.168 -0.4983  0.4100  0.4115
  172DOPC   C3721002   2.903   4.563   8.194 -0.1717 -0.9046 -0.5666
  172DOPC   H7X21003   2.845   4.650   8.156  1.5981  0.2846 -0.6944
  172DOPC   H7Y21004   2.845   4.475   8.158 -1.5574 -0.5649  0.7572
  172DOPC   C3821005   2.902   4.555   8.348  0.2082  1.2117 -0.0725
  172DOPC   H8X21006   2.930   4.650   8.399  4.1008  1.2252 -1.8282
  172DOPC   H8Y21007   2.977   4.475   8.367 -0.9941 -0.5204 -2.2431
  172DOPC   C3921008   2.779   4.504   8.411  0.4698 -0.4454 -0.0428
  172DOPC   H9X21009   2.694   4.566   8.378  0.8357  0.9552  1.5257
  172DOPC  C31021010   2.766   4.393   8.487  0.1187 -0.3192  0.2484
  172DOPC  H10X21011   2.669   4.379   8.538 -0.3683 -1.7044 -0.9908
  172DOPC  C31121012   2.876   4.289   8.525  0.2875 -0.1879 -0.4746
  172DOPC  H11X21013   2.928   4.255   8.433 -0.6030  0.7826 -1.3657
  172DOPC  H11Y21014   2.821   4.199   8.559  1.9992 -1.3258 -0.5954
  172DOPC  C31221015   2.971   4.332   8.634  0.9261 -0.5784 -0.3812
  172DOPC  H12X21016   3.014   4.432   8.613 -2.0266  1.1032  0.9264
  172DOPC  H12Y21017   3.053   4.259   8.651  1.3489  0.0216  0.1744
  172DOPC  C31321018   2.910   4.313   8.779  0.2659 -0.1517  0.0916
  172DOPC  H13X21019   2.872   4.209   8.785 -0.1609 -0.0272 -0.3772
  172DOPC  H13Y21020   2.989   4.313   8.858 -0.4469 -0.7425  0.8161
  172DOPC  C31421021   2.808   4.431   8.821 -0.0973  0.3664  0.0363
  172DOPC  H14X21022   2.871   4.522   8.824  2.6052 -1.1461 -3.7454
  172DOPC  H14Y21023   2.732   4.452   8.742 -1.4289 -2.2897  0.4984
  172DOPC  C31521024   2.744   4.411   8.958 -0.3980  0.7898  0.1418
  172DOPC  H15X21025   2.825   4.372   9.024 -1.0914 -3.1099 -1.0288
  172DOPC  H15Y21026   2.668   4.332   8.939  1.2147 -0.2937 -2.4864
  172DOPC  C31621027   2.684   4.534   9.010  0.3886 -0.5975 -0.1608
  172DOPC  H16X21028   2.759   4.606   9.049  2.1634 -2.0253 -0.8053
  172DOPC  H16Y21029   2.621   4.585   8.935 -0.6851 -0.2517  0.9368
  172DOPC  C31721030   2.593   4.499   9.128 -0.7753 -0.2462  0.5382
  172DOPC  H17X21031   2.509   4.430   9.103 -0.3437 -0.8474  0.7344
  172DOPC  H17Y21032   2.653   4.429   9.191  1.3176 -2.9305 -3.9495
  172DOPC  C31821033   2.549   4.618   9.206 -0.3927 -0.0564 -0.2863
  172DOPC  H18X21034   2.488   4.590   9.293  0.1049  0.1544  0.1383
  172DOPC  H18Y21035   2.641   4.651   9.260 -1.1925 -1.2987  1.9106
  172DOPC  H18Z21036   2.504   4.694   9.139  1.8857 -0.7333 -2.7988
  173DOPC     N21037   1.732   1.804   6.866 -0.1033  0.3403  0.4510
  173DOPC   C1221038   1.727   1.934   6.793 -0.5206  0.3338 -0.1542
  173DOPC  H12A21039   1.629   1.939   6.749 -0.6061  0.0603  0.0060
  173DOPC  H12B21040   1.803   1.930   6.716 -0.4045 -1.8868  0.0406
  173DOPC   C1321041   1.867   1.776   6.913 -0.5805  0.5900  0.3111
  173DOPC  H13A21042   1.901   1.865   6.964  0.2979  0.9875 -0.9286
  173DOPC  H13B21043   1.868   1.685   6.970 -1.0130  1.0821  1.1208
  173DOPC  H13C21044   1.935   1.774   6.829  0.3530  2.5586  0.9537
  173DOPC   C1421045   1.691   1.693   6.773  0.5633  0.1179  0.1213
  173DOPC  H14A21046   1.745   1.697   6.679 -0.9982  2.1363 -0.7623
  173DOPC  H14B21047   1.685   1.595   6.818  0.5077 -0.2270 -0.6183
  173DOPC  H14C21048   1.592   1.715   6.737  0.3453 -0.2792  0.4771
  173DOPC   C1521049   1.632   1.805   6.981  0.1502 -0.2411 -0.3823
  173DOPC  H15A21050   1.669   1.854   7.070  1.3187  1.2162 -1.6231
  173DOPC  H15B21051   1.608   1.708   7.022 -3.4220  0.8419  0.4278
  173DOPC  H15C21052   1.542   1.855   6.949  0.2337  0.0334 -0.1861
  173DOPC   C1121053   1.738   2.065   6.872 -0.6686  0.6638  0.1576
  173DOPC  H11A21054   1.734   2.158   6.812 -1.1386  0.9924  0.6859
  173DOPC  H11B21055   1.655   2.079   6.944 -1.0457  2.0072 -0.5183
  173DOPC     P21056   1.883   2.108   7.090  0.0414 -0.0050 -0.0284
  173DOPC   O1321057   1.818   2.242   7.116  0.5034  0.8102  0.0122
  173DOPC   O1421058   2.031   2.101   7.122 -0.9381 -0.4644 -0.0665
  173DOPC   O1221059   1.865   2.064   6.944 -0.1227  1.0688 -0.0502
  173DOPC   O1121060   1.800   2.002   7.175 -0.0558 -0.5338 -0.2278
  173DOPC    C121061   1.675   2.029   7.242  0.2443  0.1518  0.3713
  173DOPC    HA21062   1.640   1.937   7.293 -0.1552  0.4888  0.7131
  173DOPC    HB21063   1.589   2.073   7.186  0.1847 -0.1051  0.2566
  173DOPC    C221064   1.687   2.108   7.366 -0.5361 -0.6529 -0.3725
  173DOPC    HS21065   1.722   2.209   7.337 -1.2377 -0.0494  0.7933
  173DOPC   O2121066   1.789   2.042   7.451  0.1687 -0.1727  0.0156
  173DOPC   C2121067   1.881   2.122   7.500 -0.3499 -1.5282 -0.6690
  173DOPC   O2221068   1.874   2.246   7.498 -0.2944 -0.1595  0.4740
  173DOPC   C2221069   1.990   2.047   7.581 -0.2389  0.2024  0.0263
  173DOPC   H2R21070   2.086   2.068   7.528  0.0716 -2.2455 -0.4694
  173DOPC   H2S21071   1.966   1.939   7.572  1.5703 -0.0592 -3.9044
  173DOPC    C321072   1.556   2.129   7.456  0.2975  0.3083  0.2650
  173DOPC    HX21073   1.515   2.030   7.486 -1.9938  1.3851  0.9121
  173DOPC    HY21074   1.477   2.160   7.385  0.5787 -0.1180 -0.2451
  173DOPC   O3121075   1.570   2.205   7.578 -0.2385  0.0711 -0.0996
  173DOPC   C3121076   1.589   2.336   7.570 -0.9216 -0.5507  0.7293
  173DOPC   O3221077   1.594   2.405   7.467 -0.2535  0.1913  0.5725
  173DOPC   C3221078   1.595   2.397   7.710  0.3354  0.4884  0.8236
  173DOPC   H2X21079   1.680   2.468   7.714  0.5589  0.1845  3.0010
  173DOPC   H2Y21080   1.498   2.447   7.735  1.2358  2.1702  1.0916
  173DOPC   C2321081   1.995   2.086   7.730 -0.0658 -0.1988 -0.2789
  173DOPC   H3R21082   1.915   2.025   7.779 -1.5921  1.1846 -0.9587
  173DOPC   H3S21083   1.977   2.194   7.747 -0.3512 -0.2275 -0.3939
  173DOPC   C2421084   2.126   2.060   7.795 -0.2972  0.9106  0.3256
  173DOPC   H4R21085   2.203   2.074   7.717 -0.2104 -1.2809 -0.0632
  173DOPC   H4S21086   2.132   1.951   7.816  1.9468  0.5013 -1.9434
  173DOPC   C2521087   2.174   2.140   7.919  0.6375 -0.1410 -0.1870
  173DOPC   H5R21088   2.198   2.247   7.898 -0.0753  0.4434  1.7717
  173DOPC   H5S21089   2.270   2.099   7.958  2.0413  3.5482  0.6237
  173DOPC   C2621090   2.065   2.148   8.026  0.2161 -0.3754  0.2020
  173DOPC   H6R21091   2.060   2.053   8.083 -0.7178  0.0860  0.9153
  173DOPC   H6S21092   1.975   2.170   7.965  0.1488  0.0488  0.4538
  173DOPC   C2721093   2.077   2.261   8.131 -0.3973 -0.3496 -0.0456
  173DOPC   H7R21094   1.980   2.282   8.181 -0.9743  1.1840 -1.6926
  173DOPC   H7S21095   2.109   2.351   8.076  0.3266  1.1332  2.6330
  173DOPC   C2821096   2.175   2.235   8.246 -0.1945  0.4532  0.4753
  173DOPC   H8R21097   2.269   2.194   8.205 -0.6669  1.7187 -2.0986
  173DOPC   H8S21098   2.122   2.157   8.305  1.9359 -1.1741  0.3121
  173DOPC   C2921099   2.214   2.365   8.316  0.2138  0.0279  0.7525
  173DOPC   H9R21100   2.287   2.431   8.265  0.0827 -0.5480 -0.2105
  173DOPC  C21021101   2.189   2.395   8.446 -0.2020 -0.1770  0.1020
  173DOPC  H10R21102   2.216   2.497   8.476  2.2485 -1.0087  0.9874
  173DOPC  C21121103   2.104   2.323   8.546  0.1515  0.5440  0.3032
  173DOPC  H11R21104   2.066   2.225   8.511  0.3009  0.8240 -0.6539
  173DOPC  H11S21105   2.018   2.389   8.572  0.4741  0.8536  0.5931
  173DOPC  C21221106   2.176   2.318   8.680 -0.5243 -0.0292  0.3872
  173DOPC  H12R21107   2.280   2.284   8.662 -1.0860 -1.4392 -0.4775
  173DOPC  H12S21108   2.116   2.242   8.735  0.5995 -1.3415 -0.1484
  173DOPC  C21321109   2.183   2.451   8.757 -0.0878 -0.5043  0.7168
  173DOPC  H13R21110   2.085   2.498   8.778  0.4311  0.0776  1.9286
  173DOPC  H13S21111   2.264   2.512   8.709  0.4656  0.0824  2.3424
  173DOPC  C21421112   2.237   2.433   8.904  0.5278  0.6612  0.1637
  173DOPC  H14R21113   2.323   2.364   8.893 -0.2306 -0.0460 -1.7916
  173DOPC  H14S21114   2.159   2.375   8.959 -1.4872  0.8598 -2.2937
  173DOPC  C21521115   2.268   2.563   8.969  0.6131 -0.0438 -0.3658
  173DOPC  H15R21116   2.246   2.570   9.077  1.8055  1.7354 -0.2075
  173DOPC  H15S21117   2.206   2.640   8.918  0.4085 -0.8635 -1.4051
  173DOPC  C21621118   2.418   2.590   8.948 -0.2751  0.4368 -0.6731
  173DOPC  H16R21119   2.451   2.567   8.845  1.7019 -0.6205  0.1360
  173DOPC  H16S21120   2.479   2.531   9.020 -1.8391 -0.6372 -0.1632
  173DOPC  C21721121   2.445   2.739   8.960 -0.1150 -0.1364  0.2007
  173DOPC  H17R21122   2.399   2.785   9.051 -1.9238  0.0069 -0.7349
  173DOPC  H17S21123   2.402   2.792   8.872  0.9154  3.4407  1.6763
  173DOPC  C21821124   2.593   2.762   8.963 -0.7423  0.4930  0.7025
  173DOPC  H18R21125   2.630   2.697   9.044 -1.0284 -3.0358 -1.7664
  173DOPC  H18S21126   2.615   2.871   8.966 -0.3365  0.4135  0.6192
  173DOPC  H18T21127   2.640   2.716   8.874 -0.4388 -0.9654  1.5889
  173DOPC   C3321128   1.631   2.300   7.822  0.4092  0.9614  0.3471
  173DOPC   H3X21129   1.676   2.209   7.777 -2.2660 -0.5188  0.4899
  173DOPC   H3Y21130   1.540   2.264   7.875  0.2333  1.4424  0.3828
  173DOPC   C3421131   1.733   2.348   7.925  0.8763 -0.6584 -0.4231
  173DOPC   H4X21132   1.824   2.390   7.878  0.3908 -0.1355 -0.9209
  173DOPC   H4Y21133   1.764   2.266   7.993 -0.0337 -0.6845 -0.0238
  173DOPC   C3521134   1.676   2.453   8.022  0.4487  0.8110  0.0320
  173DOPC   H5X21135   1.569   2.428   8.038 -0.3516  2.7805 -1.7118
  173DOPC   H5Y21136   1.668   2.555   7.979  0.9839  0.7991 -0.1032
  173DOPC   C3621137   1.751   2.463   8.156 -0.3025  0.4472  0.6306
  173DOPC   H6X21138   1.741   2.362   8.201 -2.3841  0.2486 -0.1517
  173DOPC   H6Y21139   1.857   2.483   8.128 -1.2291  3.4545 -1.1101
  173DOPC   C3721140   1.710   2.559   8.262  0.0515 -0.0599 -0.8458
  173DOPC   H7X21141   1.732   2.661   8.224  0.3111 -0.2668 -1.2682
  173DOPC   H7Y21142   1.605   2.537   8.289  0.3246  0.0271  0.3310
  173DOPC   C3821143   1.801   2.532   8.387 -0.2614 -0.2701  0.5513
  173DOPC   H8X21144   1.819   2.425   8.406  1.6493  0.0016  0.4380
  173DOPC   H8Y21145   1.744   2.563   8.477 -1.4925 -0.5486 -0.1036
  173DOPC   C3921146   1.926   2.613   8.379 -0.8841 -0.7782  0.7793
  173DOPC   H9X21147   1.995   2.580   8.300  2.1656  3.5346  1.3083
  173DOPC  C31021148   1.953   2.725   8.447 -0.4544  0.1891  0.7464
  173DOPC  H10X21149   2.048   2.778   8.431 -1.2817  1.2746 -0.8715
  173DOPC  C31121150   1.866   2.789   8.554 -0.2687  0.1985  0.2764
  173DOPC  H11X21151   1.927   2.851   8.623 -0.2990 -2.0362  2.4512
  173DOPC  H11Y21152   1.817   2.707   8.611 -0.4944  0.1689  0.0402
  173DOPC  C31221153   1.757   2.867   8.481 -0.4387 -0.6073 -0.6316
  173DOPC  H12X21154   1.663   2.864   8.540  0.8474 -0.7093  1.5306
  173DOPC  H12Y21155   1.744   2.829   8.377 -0.5157 -1.2484 -0.3953
  173DOPC  C31321156   1.795   3.016   8.457 -0.3967  0.1901  0.2009
  173DOPC  H13X21157   1.903   3.024   8.433 -0.6614  0.1054 -1.0732
  173DOPC  H13Y21158   1.738   3.053   8.369 -0.8471 -0.3229  0.2719
  173DOPC  C31421159   1.756   3.106   8.578  0.2635  0.8287 -0.1329
  173DOPC  H14X21160   1.650   3.091   8.607  0.1010  0.2357 -0.9972
  173DOPC  H14Y21161   1.822   3.076   8.662  3.5057  1.1822 -2.3950
  173DOPC  C31521162   1.789   3.253   8.543 -0.3739 -0.6676 -0.5661
  173DOPC  H15X21163   1.712   3.293   8.473 -2.6899 -4.3860 -0.4307
  173DOPC  H15Y21164   1.884   3.251   8.486 -0.0833  0.5640 -0.1642
  173DOPC  C31621165   1.795   3.350   8.663 -0.2851  0.0627  1.2093
  173DOPC  H16X21166   1.700   3.348   8.721 -0.6656 -1.6761  0.5625
  173DOPC  H16Y21167   1.881   3.322   8.728 -0.1968  0.3049  1.1978
  173DOPC  C31721168   1.822   3.497   8.615 -0.5589  0.4362 -0.1906
  173DOPC  H17X21169   1.731   3.537   8.566  0.2105  0.1116 -1.9538
  173DOPC  H17Y21170   1.838   3.549   8.712  0.6663 -1.9952  0.9982
  173DOPC  C31821171   1.944   3.518   8.529  0.1853  0.4065  0.0846
  173DOPC  H18X21172   1.962   3.627   8.529 -1.2323  0.6667  0.3855
  173DOPC  H18Y21173   2.029   3.459   8.568 -1.8012 -2.3628  0.5610
  173DOPC  H18Z21174   1.923   3.475   8.429  1.1620  1.2114 -0.4697
  174DOPC     N21175   4.060   1.230   7.062  0.0034  0.0835 -0.9680
  174DOPC   C1221176   3.961   1.161   7.153  0.0513  0.7360  0.3428
  174DOPC  H12A21177   3.892   1.102   7.094 -0.2670  0.3481  1.0942
  174DOPC  H12B21178   3.889   1.228   7.196 -2.8649 -1.6337 -0.4806
  174DOPC   C1321179   4.145   1.132   6.987 -0.1421  0.1932 -0.3705
  174DOPC  H13A21180   4.201   1.068   7.054  0.5638 -0.7818 -1.8309
  174DOPC  H13B21181   4.086   1.066   6.925 -1.4607 -0.6419  1.6766
  174DOPC  H13C21182   4.205   1.186   6.915 -1.9383 -0.0496 -2.1430
  174DOPC   C1421183   4.145   1.340   7.133  0.3910 -0.3332  0.5000
  174DOPC  H14A21184   4.184   1.302   7.227 -1.3689 -0.1902  1.3307
  174DOPC  H14B21185   4.234   1.365   7.077  0.0890 -0.3949 -0.0160
  174DOPC  H14C21186   4.076   1.421   7.149  0.9166 -0.2674  2.7161
  174DOPC   C1521187   3.979   1.307   6.960  0.3858 -0.5633 -0.6585
  174DOPC  H15A21188   4.052   1.334   6.884 -0.9673  2.7073 -0.9645
  174DOPC  H15B21189   3.935   1.400   6.993  0.5724 -1.1949  1.5679
  174DOPC  H15C21190   3.914   1.244   6.902  1.1947 -1.5358 -0.5404
  174DOPC   C1121191   4.004   1.061   7.263 -0.1381  0.1271  1.2315
  174DOPC  H11A21192   4.076   1.122   7.320 -1.0298  1.1329  1.3118
  174DOPC  H11B21193   3.916   1.041   7.327 -2.0957  1.9025 -0.7215
  174DOPC     P21194   3.955   0.820   7.168  0.2414  0.3197 -0.2380
  174DOPC   O1321195   4.011   0.725   7.066  0.1356 -0.2568  0.0797
  174DOPC   O1421196   3.821   0.876   7.146  0.2052 -0.1026  0.3057
  174DOPC   O1221197   4.068   0.938   7.202 -0.2188 -0.4454 -0.3709
  174DOPC   O1121198   3.944   0.751   7.312  0.5084 -0.4936 -0.4089
  174DOPC    C121199   4.061   0.678   7.341 -0.3218  0.4342 -0.8176
  174DOPC    HA21200   4.159   0.719   7.307  0.3084  0.4091  0.8672
  174DOPC    HB21201   4.061   0.574   7.302  1.8377  1.1156 -2.8751
  174DOPC    C221202   4.081   0.665   7.498  1.5575 -0.7523 -0.5533
  174DOPC    HS21203   3.986   0.630   7.542  0.5153  2.0166 -0.4274
  174DOPC   O2121204   4.118   0.798   7.544  0.4435  1.2318  0.0955
  174DOPC   C2121205   4.030   0.869   7.613 -0.0420 -0.1455 -0.1395
  174DOPC   O2221206   3.925   0.823   7.653 -0.3450 -0.5098 -0.0014
  174DOPC   C2221207   4.083   1.014   7.630 -0.4017 -0.6269 -0.2335
  174DOPC   H2R21208   4.090   1.058   7.529 -3.7367 -1.1041 -0.7870
  174DOPC   H2S21209   4.185   1.003   7.673 -0.9153 -2.3198  0.6227
  174DOPC    C321210   4.198   0.570   7.536 -0.1409  0.6254  0.4723
  174DOPC    HX21211   4.288   0.611   7.485 -0.6226  0.2424 -0.7195
  174DOPC    HY21212   4.189   0.470   7.490  0.1009 -0.1104  1.9627
  174DOPC   O3121213   4.235   0.569   7.679  0.2732 -0.3410 -0.1080
  174DOPC   C3121214   4.151   0.484   7.744  0.4227 -0.1628  0.1071
  174DOPC   O3221215   4.063   0.418   7.692 -0.2358 -0.0916 -0.2139
  174DOPC   C3221216   4.188   0.464   7.890 -0.7971 -0.4011  0.7495
  174DOPC   H2X21217   4.095   0.457   7.949 -1.7026  2.5528 -0.1732
  174DOPC   H2Y21218   4.251   0.372   7.897 -0.1405  0.0675  1.0482
  174DOPC   C2321219   3.982   1.105   7.710 -0.3726  0.2007 -0.4455
  174DOPC   H3R21220   3.888   1.100   7.651 -2.1572  3.0248  1.8881
  174DOPC   H3S21221   4.013   1.211   7.711 -1.3094  0.5325  2.3860
  174DOPC   C2421222   3.967   1.064   7.860 -0.8909  0.3409  0.1799
  174DOPC   H4R21223   4.055   1.102   7.917  0.2346  0.7735 -1.7855
  174DOPC   H4S21224   3.965   0.953   7.873 -1.9081  0.1472 -1.3786
  174DOPC   C2521225   3.836   1.103   7.936  0.1419  0.1463  1.0905
  174DOPC   H5R21226   3.754   1.043   7.891  1.3677  0.7574 -2.2652
  174DOPC   H5S21227   3.815   1.208   7.908  0.9038 -0.0306 -0.2187
  174DOPC   C2621228   3.845   1.072   8.086 -0.2846 -0.2659 -0.3655
  174DOPC   H6R21229   3.915   1.143   8.136 -1.2522  1.8579 -1.8816
  174DOPC   H6S21230   3.888   0.970   8.094  1.7218  0.6224  1.1342
  174DOPC   C2721231   3.711   1.069   8.160  0.3192 -0.7432  0.3243
  174DOPC   H7R21232   3.653   0.981   8.125  1.0969 -1.2981  0.4101
  174DOPC   H7S21233   3.661   1.165   8.137  0.6301 -0.2280  1.7093
  174DOPC   C2821234   3.738   1.075   8.313  0.5917  0.1904  0.1110
  174DOPC   H8R21235   3.800   1.167   8.321  3.7389 -1.6629 -0.9871
  174DOPC   H8S21236   3.802   0.989   8.345 -0.6116 -0.0197  2.1417
  174DOPC   C2921237   3.608   1.065   8.396  0.2890 -0.1351  1.1749
  174DOPC   H9R21238   3.538   0.989   8.358 -1.7467  1.3121  1.8504
  174DOPC  C21021239   3.578   1.141   8.501 -0.1517 -0.2658  0.2365
  174DOPC  H10R21240   3.499   1.122   8.575  1.5325  0.9052  2.4522
  174DOPC  C21121241   3.674   1.248   8.552 -0.0491 -0.0737  0.6026
  174DOPC  H11R21242   3.690   1.320   8.469  0.8765 -0.6746  0.2441
  174DOPC  H11S21243   3.776   1.215   8.580 -0.0153 -1.0436 -0.5690
  174DOPC  C21221244   3.636   1.311   8.690  0.1483 -0.9197 -0.2534
  174DOPC  H12R21245   3.536   1.357   8.677  1.2658  1.2429 -1.8913
  174DOPC  H12S21246   3.698   1.398   8.720 -0.6333  0.0961 -1.4619
  174DOPC  C21321247   3.625   1.202   8.804 -0.3560 -0.4816 -0.0034
  174DOPC  H13R21248   3.724   1.156   8.825 -0.8581 -1.8739 -0.5386
  174DOPC  H13S21249   3.562   1.115   8.776  1.6451 -1.6508 -1.1221
  174DOPC  C21421250   3.568   1.261   8.931 -0.4143  0.4354 -0.3933
  174DOPC  H14R21251   3.471   1.312   8.914 -0.5423  0.9278  1.5755
  174DOPC  H14S21252   3.642   1.339   8.962  0.5618 -0.2524 -0.9252
  174DOPC  C21521253   3.545   1.159   9.046  0.4554  0.4395 -0.5654
  174DOPC  H15R21254   3.629   1.088   9.057  1.6219  2.0052  1.1635
  174DOPC  H15S21255   3.448   1.114   9.016 -1.6319  5.1717 -1.8344
  174DOPC  C21621256   3.554   1.237   9.178 -0.0401 -0.1218 -0.2264
  174DOPC  H16R21257   3.484   1.190   9.251  2.0913  1.7606  3.3166
  174DOPC  H16S21258   3.515   1.341   9.174  1.3835  0.3944 -1.5115
  174DOPC  C21721259   3.687   1.232   9.245  0.1500 -0.2336 -0.5034
  174DOPC  H17R21260   3.733   1.131   9.252 -2.3215 -1.3261  1.1798
  174DOPC  H17S21261   3.674   1.268   9.350 -0.9609 -1.5762 -0.1605
  174DOPC  C21821262   3.788   1.333   9.189  0.0914  0.2457 -0.1802
  174DOPC  H18R21263   3.740   1.433   9.194  1.2650  1.0483 -2.9620
  174DOPC  H18S21264   3.805   1.313   9.081  1.5211 -0.5145  0.1558
  174DOPC  H18T21265   3.885   1.320   9.242 -0.2207 -1.1036  0.0930
  174DOPC   C3321266   4.267   0.581   7.949  0.6030 -0.2632  0.2698
  174DOPC   H3X21267   4.202   0.671   7.944  0.4805 -0.4075 -1.1790
  174DOPC   H3Y21268   4.356   0.596   7.884  0.3443  0.8424  0.1462
  174DOPC   C3421269   4.324   0.563   8.092 -0.6578  0.6248 -0.8251
  174DOPC   H4X21270   4.388   0.653   8.106  1.1316 -0.9224  1.9197
  174DOPC   H4Y21271   4.395   0.478   8.100 -2.5451 -0.9414  0.3063
  174DOPC   C3521272   4.220   0.555   8.206  0.4740  0.4982 -0.6240
  174DOPC   H5X21273   4.121   0.596   8.178  1.1390  3.3223  0.7405
  174DOPC   H5Y21274   4.245   0.629   8.286  0.6145  2.2188 -2.1872
  174DOPC   C3621275   4.207   0.423   8.282  0.4788 -0.2605 -0.0018
  174DOPC   H6X21276   4.186   0.341   8.209 -1.4789  0.0872  0.1024
  174DOPC   H6Y21277   4.301   0.407   8.338  0.3396  0.0009  0.3049
  174DOPC   C3721278   4.083   0.434   8.374 -0.1163  0.0244  0.3651
  174DOPC   H7X21279   4.106   0.521   8.439 -0.7740  0.0525  0.5648
  174DOPC   H7Y21280   4.008   0.451   8.294  0.3098  0.5406  0.0603
  174DOPC   C3821281   4.046   0.295   8.427 -0.4296  0.5288 -0.3606
  174DOPC   H8X21282   4.131   0.248   8.480 -1.0713  0.4720  0.6532
  174DOPC   H8Y21283   4.020   0.226   8.344  1.3964  2.6746 -2.8976
  174DOPC   C3921284   3.936   0.316   8.530 -0.7862  0.2270 -0.1211
  174DOPC   H9X21285   3.977   0.326   8.632 -1.2322 -1.3207  0.2341
  174DOPC  C31021286   3.805   0.302   8.513  0.5043  0.5095  0.1735
  174DOPC  H10X21287   3.740   0.317   8.600 -0.6233 -0.2670 -0.5067
  174DOPC  C31121288   3.738   0.279   8.377 -0.2128 -0.1420  0.2714
  174DOPC  H11X21289   3.810   0.299   8.295  0.8107  0.6779  1.3489
  174DOPC  H11Y21290   3.655   0.351   8.365 -0.5218 -0.4181  0.7269
  174DOPC  C31221291   3.702   0.128   8.352  0.1257 -0.1870 -0.5365
  174DOPC  H12X21292   3.675   0.075   8.445  1.7874  1.2134  0.8303
  174DOPC  H12Y21293   3.787   0.073   8.305  1.5127  1.5895 -0.2552
  174DOPC  C31321294   3.590   0.109   8.246 -0.4543 -0.7388 -0.4770
  174DOPC  H13X21295   3.563   0.002   8.234  1.4967 -1.2087 -0.9436
  174DOPC  H13Y21296   3.504   0.164   8.292  0.6860  0.2465  0.5535
  174DOPC  C31421297   3.629   0.162   8.105 -0.6514  0.3747 -0.2771
  174DOPC  H14X21298   3.539   0.165   8.039 -0.9433 -1.7312 -0.0253
  174DOPC  H14Y21299   3.671   0.265   8.115  2.0611 -0.7448  0.6939
  174DOPC  C31521300   3.743   0.075   8.052  0.1123 -0.4642 -0.4936
  174DOPC  H15X21301   3.724  -0.034   8.063 -0.4219 -0.3430 -0.1550
  174DOPC  H15Y21302   3.837   0.090   8.109 -0.2668 -0.3467  0.1102
  174DOPC  C31621303   3.756   0.113   7.902  0.4669 -0.3409 -0.2997
  174DOPC  H16X21304   3.660   0.131   7.849 -0.0790 -0.1175  0.7436
  174DOPC  H16Y21305   3.817   0.206   7.892 -1.0659  0.5453 -2.3554
  174DOPC  C31721306   3.813   0.004   7.813 -0.4951  0.2610  0.1972
  174DOPC  H17X21307   3.816   0.052   7.713  0.1564 -1.1304 -0.4821
  174DOPC  H17Y21308   3.918  -0.017   7.843  0.1182  1.2864 -1.1286
  174DOPC  C31821309   3.726  -0.127   7.800  0.6357 -0.1111 -0.0903
  174DOPC  H18X21310   3.730  -0.199   7.884  0.9668  2.1666  1.9235
  174DOPC  H18Y21311   3.624  -0.089   7.777  0.4798  0.9678  2.1290
  174DOPC  H18Z21312   3.769  -0.180   7.712  1.4461  1.7072 -0.8436
  175DOPC     N21313   3.351   5.544   7.073 -0.5854  0.0017 -0.2764
  175DOPC   C1221314   3.307   5.422   7.152  0.4577  0.8885  0.1928
  175DOPC  H12A21315   3.308   5.447   7.257  1.3504 -1.6150  0.8420
  175DOPC  H12B21316   3.373   5.338   7.134 -0.3046  0.3792 -0.2967
  175DOPC   C1321317   3.256   5.665   7.101 -0.6848  0.5887 -0.3458
  175DOPC  H13A21318   3.275   5.700   7.202 -0.5240 -0.1519 -0.1159
  175DOPC  H13B21319   3.290   5.742   7.034 -0.8100 -0.4103 -1.6015
  175DOPC  H13C21320   3.152   5.644   7.079 -0.4305 -1.4257  0.1497
  175DOPC   C1421321   3.360   5.514   6.927  0.5084 -0.2323 -1.1783
  175DOPC  H14A21322   3.415   5.422   6.909 -1.0097 -1.3732 -0.2757
  175DOPC  H14B21323   3.261   5.494   6.890  0.2064 -0.0163 -0.5085
  175DOPC  H14C21324   3.399   5.592   6.863 -1.5546  0.2269 -1.9429
  175DOPC   C1521325   3.482   5.589   7.126 -0.5330  0.4703 -0.1564
  175DOPC  H15A21326   3.558   5.523   7.087  1.8160  3.6839 -1.3735
  175DOPC  H15B21327   3.483   5.604   7.233  0.1987  0.8363 -0.2121
  175DOPC  H15C21328   3.505   5.684   7.081  0.8492  0.7612  1.0949
  175DOPC   C1121329   3.155   5.376   7.136  0.0968  0.2852  0.3907
  175DOPC  H11A21330   3.136   5.357   7.028 -1.9215 -0.8323  0.8842
  175DOPC  H11B21331   3.147   5.279   7.189 -0.2172  0.3472  0.4601
  175DOPC     P21332   3.001   5.488   7.328 -0.0924  0.2658 -0.0126
  175DOPC   O1321333   2.873   5.420   7.311  0.8259  0.4180 -0.2136
  175DOPC   O1421334   2.996   5.622   7.378  0.0358  0.7577 -0.2012
  175DOPC   O1221335   3.061   5.474   7.175  0.4765  0.0458 -0.5861
  175DOPC   O1121336   3.100   5.401   7.426 -0.2213  0.0590 -0.3007
  175DOPC    C121337   3.072   5.267   7.448  0.0725 -0.2031  0.3084
  175DOPC    HA21338   3.161   5.204   7.424  0.5894  0.5431  0.2188
  175DOPC    HB21339   2.993   5.219   7.388 -0.1046 -0.6350  0.8854
  175DOPC    C221340   3.026   5.239   7.591  0.1852 -0.1467  0.0421
  175DOPC    HS21341   3.032   5.129   7.600  2.7748 -0.0748  0.0649
  175DOPC   O2121342   2.892   5.293   7.621 -0.3744  0.3791 -0.2897
  175DOPC   C2121343   2.789   5.237   7.566 -1.1043 -1.1287  0.0776
  175DOPC   O2221344   2.794   5.126   7.516  0.0494 -0.0791 -0.2946
  175DOPC   C2221345   2.672   5.323   7.592 -0.0600 -0.5944  0.5633
  175DOPC   H2R21346   2.599   5.290   7.515  0.6610  0.9368 -0.8514
  175DOPC   H2S21347   2.693   5.430   7.571 -0.7402  0.1963  3.4953
  175DOPC    C321348   3.128   5.294   7.692 -0.1418  0.2768  0.7897
  175DOPC    HX21349   3.124   5.405   7.683  0.2401  0.3003  0.8782
  175DOPC    HY21350   3.230   5.263   7.663  0.3443  0.5971  2.0842
  175DOPC   O3121351   3.089   5.245   7.826  0.4646 -0.0584  0.7920
  175DOPC   C3121352   3.153   5.145   7.877  0.1871 -0.3763 -0.1189
  175DOPC   O3221353   3.247   5.087   7.825 -0.5230 -0.3083 -0.5644
  175DOPC   C3221354   3.095   5.111   8.014  0.1118 -0.0733  0.2166
  175DOPC   H2X21355   3.161   5.169   8.082  0.5523  2.0473 -1.8860
  175DOPC   H2Y21356   2.990   5.148   8.012  0.1664  0.3141  2.0870
  175DOPC   C2321357   2.632   5.317   7.738  0.5977  0.0596  0.3156
  175DOPC   H3R21358   2.715   5.334   7.810  0.9864 -1.5458  0.2818
  175DOPC   H3S21359   2.596   5.213   7.753 -0.8851  0.9603  4.0704
  175DOPC   C2421360   2.524   5.427   7.770 -0.4023  0.7048 -0.7383
  175DOPC   H4R21361   2.438   5.413   7.700  0.4597  0.0593 -1.6985
  175DOPC   H4S21362   2.568   5.529   7.765  1.2133  0.0218 -1.0810
  175DOPC   C2521363   2.480   5.417   7.917  0.0410  0.4290 -0.1084
  175DOPC   H5R21364   2.556   5.444   7.994 -1.7169  1.6521  1.2749
  175DOPC   H5S21365   2.446   5.313   7.932  0.5005  0.5165  1.8027
  175DOPC   C2621366   2.366   5.510   7.957  0.3749 -0.8497 -0.4115
  175DOPC   H6R21367   2.276   5.492   7.895 -0.5652 -0.2728  0.7376
  175DOPC   H6S21368   2.396   5.613   7.931  0.5704 -1.0846 -1.1218
  175DOPC   C2721369   2.319   5.517   8.101 -0.7057 -0.9536  0.1570
  175DOPC   H7R21370   2.229   5.582   8.104 -2.6743 -3.3808  4.5783
  175DOPC   H7S21371   2.402   5.554   8.165  0.2749  1.2792 -2.1999
  175DOPC   C2821372   2.270   5.392   8.169  0.2130  0.1959 -0.0708
  175DOPC   H8R21373   2.227   5.321   8.095 -0.3094 -0.1684  0.5764
  175DOPC   H8S21374   2.183   5.419   8.231 -0.5211 -0.2522 -0.8882
  175DOPC   C2921375   2.369   5.312   8.244 -0.6817  0.0295  0.1142
  175DOPC   H9R21376   2.458   5.285   8.184 -0.0310  0.8060  0.7109
  175DOPC  C21021377   2.360   5.277   8.376  0.4396 -0.6098 -0.2157
  175DOPC  H10R21378   2.452   5.245   8.427  0.7638 -2.4113 -1.8238
  175DOPC  C21121379   2.246   5.291   8.473 -0.2526 -0.3996 -0.0510
  175DOPC  H11R21380   2.145   5.272   8.431 -0.5977 -0.4442  0.7973
  175DOPC  H11S21381   2.240   5.394   8.515  1.2782 -1.1070  2.0297
  175DOPC  C21221382   2.260   5.192   8.588  0.3603 -0.0952  0.2610
  175DOPC  H12R21383   2.362   5.196   8.632  0.3396 -3.9076  0.9907
  175DOPC  H12S21384   2.260   5.086   8.553 -1.2600 -0.0378  0.0169
  175DOPC  C21321385   2.149   5.218   8.690  0.3476 -0.5661 -0.3263
  175DOPC  H13R21386   2.059   5.219   8.625  1.0617  0.5099 -1.3577
  175DOPC  H13S21387   2.155   5.317   8.740 -1.1769  0.8377 -2.7242
  175DOPC  C21421388   2.148   5.105   8.804  0.2217 -0.0381 -0.5334
  175DOPC  H14R21389   2.240   5.129   8.863 -0.2629 -0.4308  0.4095
  175DOPC  H14S21390   2.168   5.004   8.762  0.4828  0.5211 -1.8042
  175DOPC  C21521391   2.026   5.107   8.902  0.2292 -0.3662 -0.1942
  175DOPC  H15R21392   2.010   5.012   8.958 -0.4822  0.4923  1.1184
  175DOPC  H15S21393   1.939   5.135   8.838 -0.7452 -2.3677  0.1575
  175DOPC  C21621394   2.039   5.219   9.018  0.0538 -0.0389  0.1940
  175DOPC  H16R21395   1.994   5.318   8.993  1.6903  0.6958  0.0050
  175DOPC  H16S21396   2.145   5.245   9.038 -0.2243  0.5152  1.0173
  175DOPC  C21721397   1.977   5.185   9.152 -0.9737  0.2528 -0.5180
  175DOPC  H17R21398   2.026   5.101   9.205  0.6406  2.1902  1.2516
  175DOPC  H17S21399   1.873   5.151   9.133 -0.6186 -1.7578  0.8006
  175DOPC  C21821400   1.983   5.292   9.264 -0.4343 -0.1027 -0.6235
  175DOPC  H18R21401   2.076   5.311   9.322 -0.3036  1.5285 -1.2947
  175DOPC  H18S21402   1.902   5.276   9.337 -0.9610 -0.7892 -1.3395
  175DOPC  H18T21403   1.952   5.387   9.215 -0.4542  0.4710  0.4759
  175DOPC   C3321404   3.093   4.964   8.049  0.2908 -0.1743  0.2303
  175DOPC   H3X21405   3.194   4.921   8.028  0.1520 -0.0356 -0.7724
  175DOPC   H3Y21406   3.030   4.896   7.987  1.4193 -1.8382  0.8207
  175DOPC   C3421407   3.056   4.946   8.198  0.0819  0.1406  0.2163
  175DOPC   H4X21408   3.026   4.840   8.207  0.4428  0.0571  0.4051
  175DOPC   H4Y21409   2.965   5.004   8.225  0.1358 -0.0263  0.7715
  175DOPC   C3521410   3.171   4.974   8.289 -0.5841  0.2954  0.3306
  175DOPC   H5X21411   3.218   5.070   8.258 -1.9631  0.1367 -2.5814
  175DOPC   H5Y21412   3.246   4.903   8.248 -1.0866 -2.4787  3.6738
  175DOPC   C3621413   3.156   4.950   8.440 -0.2402 -0.5491  0.1841
  175DOPC   H6X21414   3.118   4.846   8.446  1.7023 -1.4125 -1.4317
  175DOPC   H6Y21415   3.255   4.949   8.490  0.1906 -1.6668 -0.6608
  175DOPC   C3721416   3.072   5.050   8.521 -0.0721  0.3278 -0.2156
  175DOPC   H7X21417   3.110   5.153   8.506 -0.2229  0.3293 -0.6150
  175DOPC   H7Y21418   2.964   5.055   8.496 -1.0400  0.2805  3.3956
  175DOPC   C3821419   3.071   5.017   8.676 -0.3492  0.3903  0.4200
  175DOPC   H8X21420   3.007   5.095   8.721  0.7490  1.9117 -0.5210
  175DOPC   H8Y21421   3.175   5.024   8.715  0.1633  0.6662 -0.9368
  175DOPC   C3921422   3.011   4.887   8.719  0.0443  0.4542 -0.2715
  175DOPC   H9X21423   2.987   4.814   8.640  2.6658  1.8482 -2.4835
  175DOPC  C31021424   3.001   4.841   8.843 -0.2572  0.3393  0.4025
  175DOPC  H10X21425   2.953   4.745   8.864 -0.1932  0.2808  0.2811
  175DOPC  C31121426   3.036   4.924   8.962  0.2870  0.1245 -0.3255
  175DOPC  H11X21427   3.010   5.030   8.938 -0.3598 -0.0728 -0.5230
  175DOPC  H11Y21428   3.144   4.921   8.988  0.2210 -0.6738 -0.1208
  175DOPC  C31221429   2.945   4.896   9.089  0.2921 -0.1013 -0.1331
  175DOPC  H12X21430   2.841   4.881   9.055  0.2048  0.4174 -0.1124
  175DOPC  H12Y21431   2.969   4.978   9.161  2.8083 -1.2167  0.4040
  175DOPC  C31321432   2.981   4.768   9.168 -0.2798 -0.5488 -0.0074
  175DOPC  H13X21433   2.943   4.680   9.111  0.7006 -1.2364  0.3755
  175DOPC  H13Y21434   3.091   4.753   9.170 -0.1864  0.1449  0.3179
  175DOPC  C31421435   2.924   4.771   9.309 -0.0692 -0.6029 -1.1823
  175DOPC  H14X21436   2.978   4.853   9.362  1.1749 -1.1486 -1.5693
  175DOPC  H14Y21437   2.819   4.806   9.306  0.5101  1.3930  0.0992
  175DOPC  C31521438   2.935   4.641   9.388 -0.4263  0.2565  0.6059
  175DOPC  H15X21439   3.041   4.615   9.412 -0.6848 -1.5467 -0.0905
  175DOPC  H15Y21440   2.894   4.562   9.322 -2.5656  2.6783 -1.1710
  175DOPC  C31621441   2.868   4.646   9.528  0.8239  0.4871  1.4556
  175DOPC  H16X21442   2.927   4.712   9.594 -0.2393  1.8925  1.0751
  175DOPC  H16Y21443   2.765   4.687   9.511  0.9189  0.2930  0.3197
  175DOPC  C31721444   2.851   4.507   9.589 -0.1411  0.1240  0.2396
  175DOPC  H17X21445   2.772   4.442   9.546  0.1082  0.5960 -1.0111
  175DOPC  H17Y21446   2.940   4.442   9.578  0.1761 -0.0713  3.3448
  175DOPC  C31821447   2.837   4.514   9.742  0.0843 -0.1838 -0.0419
  175DOPC  H18X21448   2.750   4.581   9.762  0.6852  0.2155  1.3502
  175DOPC  H18Y21449   2.836   4.416   9.794 -0.2410 -0.7323 -1.0551
  175DOPC  H18Z21450   2.918   4.577   9.784  1.0193 -1.0200 -0.5673
  176DOPC     N21451   2.725   0.232   7.394 -0.6371 -0.0368 -0.0101
  176DOPC   C1221452   2.618   0.342   7.380  0.2907 -0.2684  0.1784
  176DOPC  H12A21453   2.577   0.335   7.280  0.5599  1.1093 -0.0566
  176DOPC  H12B21454   2.667   0.438   7.390  0.3048 -0.4236  1.7198
  176DOPC   C1321455   2.828   0.255   7.286 -0.0761  0.4889  0.4075
  176DOPC  H13A21456   2.894   0.170   7.274 -0.8829 -0.6812  3.3596
  176DOPC  H13B21457   2.784   0.266   7.188  0.0439  0.6928  0.3739
  176DOPC  H13C21458   2.882   0.349   7.295 -0.1994  0.8114 -1.6903
  176DOPC   C1421459   2.662   0.096   7.377 -0.4020 -0.1905  0.7874
  176DOPC  H14A21460   2.741   0.023   7.372 -1.5280 -1.4036 -2.9512
  176DOPC  H14B21461   2.595   0.080   7.460 -1.1840  0.0006  0.2111
  176DOPC  H14C21462   2.601   0.082   7.289  0.3354 -0.4082  0.3041
  176DOPC   C1521463   2.798   0.243   7.523  0.3044 -0.6893 -0.0101
  176DOPC  H15A21464   2.738   0.246   7.612  0.3456 -0.0190  0.0047
  176DOPC  H15B21465   2.865   0.328   7.525  0.8197 -1.0409 -1.4412
  176DOPC  H15C21466   2.852   0.150   7.531 -0.6271 -1.2390  0.0029
  176DOPC   C1121467   2.502   0.348   7.484 -0.1766 -0.8203  0.2987
  176DOPC  H11A21468   2.543   0.360   7.586 -2.8562  1.7020  1.2313
  176DOPC  H11B21469   2.440   0.440   7.468  0.1724 -0.9776 -2.4768
  176DOPC     P21470   2.271   0.218   7.485 -0.1904  0.4138 -0.1887
  176DOPC   O1321471   2.225   0.109   7.396  0.1398 -0.4073 -0.2367
  176DOPC   O1421472   2.213   0.357   7.465  0.0496 -0.0107  0.4103
  176DOPC   O1221473   2.426   0.233   7.479 -0.0510  0.4318 -0.2628
  176DOPC   O1121474   2.239   0.175   7.631 -0.4625  0.2126  0.6553
  176DOPC    C121475   2.303   0.238   7.741  0.1135 -0.1666 -0.2723
  176DOPC    HA21476   2.295   0.348   7.727 -2.0799 -0.2809 -0.2898
  176DOPC    HB21477   2.412   0.219   7.745  0.1586 -0.0739 -1.0410
  176DOPC    C221478   2.246   0.196   7.880  0.1055  0.5882  0.2064
  176DOPC    HS21479   2.136   0.212   7.884 -0.8580 -3.3702 -3.5327
  176DOPC   O2121480   2.324   0.268   7.978 -0.3125  0.0994  0.2286
  176DOPC   C2121481   2.265   0.313   8.089 -0.1026  0.4782  0.3965
  176DOPC   O2221482   2.147   0.296   8.119 -0.5064  0.3565 -0.2697
  176DOPC   C2221483   2.358   0.396   8.173  0.0047 -0.7797 -0.2198
  176DOPC   H2R21484   2.411   0.456   8.096 -1.0551 -0.2659 -0.5591
  176DOPC   H2S21485   2.437   0.331   8.218 -0.2466 -0.8892  0.0671
  176DOPC    C321486   2.276   0.042   7.893  0.6130  0.5495  0.8762
  176DOPC    HX21487   2.387   0.041   7.892  0.6348  1.4481  1.3229
  176DOPC    HY21488   2.232  -0.019   7.812  0.2109 -1.2928  2.4166
  176DOPC   O3121489   2.228  -0.018   8.012  0.2424  0.5487 -0.6930
  176DOPC   C3121490   2.094  -0.033   8.024 -0.2849 -0.1997 -0.5838
  176DOPC   O3221491   2.020  -0.047   7.929  0.1546  0.0124  0.2081
  176DOPC   C3221492   2.049  -0.031   8.167 -0.3560 -0.5464 -0.0431
  176DOPC   H2X21493   2.085  -0.127   8.211  1.4693  0.1804  0.1169
  176DOPC   H2Y21494   2.090   0.057   8.221  0.7782 -0.9662 -0.2026
  176DOPC   C2321495   2.289   0.472   8.284  0.3098  0.0373  0.5007
  176DOPC   H3R21496   2.250   0.395   8.353 -2.8991 -0.5181 -1.6900
  176DOPC   H3S21497   2.208   0.540   8.250 -0.3116 -0.7187  0.4408
  176DOPC   C2421498   2.395   0.561   8.351  0.1941 -0.2962 -0.5241
  176DOPC   H4R21499   2.441   0.643   8.291  1.4071  0.0010  0.7710
  176DOPC   H4S21500   2.477   0.491   8.377  0.1043  0.4324  1.9864
  176DOPC   C2521501   2.325   0.634   8.472 -0.6292  0.3146 -0.2421
  176DOPC   H5R21502   2.272   0.558   8.532  0.3422 -0.4193 -0.2964
  176DOPC   H5S21503   2.244   0.700   8.432 -2.5472 -1.8089 -0.0709
  176DOPC   C2621504   2.431   0.725   8.539 -1.0857  0.5801 -0.3292
  176DOPC   H6R21505   2.447   0.812   8.472  1.7170  0.7648  0.4462
  176DOPC   H6S21506   2.525   0.666   8.543  1.0824  3.8614  2.2079
  176DOPC   C2721507   2.390   0.790   8.672 -0.5066 -0.4517  0.1449
  176DOPC   H7R21508   2.299   0.852   8.665  0.0952  0.6759  1.7037
  176DOPC   H7S21509   2.466   0.863   8.709 -0.2174 -0.9617  0.5715
  176DOPC   C2821510   2.371   0.687   8.789 -0.2697 -0.2703  0.2121
  176DOPC   H8R21511   2.283   0.625   8.760  1.5139 -2.7948 -0.0948
  176DOPC   H8S21512   2.351   0.751   8.878  1.6478 -2.0162  1.9917
  176DOPC   C2921513   2.491   0.602   8.825  0.3160 -0.4843  0.8658
  176DOPC   H9R21514   2.582   0.659   8.851 -2.3356  2.3577  5.2555
  176DOPC  C21021515   2.487   0.471   8.835 -0.5570 -0.7110 -0.1246
  176DOPC  H10R21516   2.582   0.422   8.861 -0.2105  1.2075  2.8132
  176DOPC  C21121517   2.370   0.381   8.798 -0.1088  0.3122 -0.9543
  176DOPC  H11R21518   2.406   0.301   8.730  1.0701  1.7403 -2.0830
  176DOPC  H11S21519   2.284   0.424   8.742  0.2129  0.7550 -1.1051
  176DOPC  C21221520   2.309   0.299   8.918 -0.1850  0.4163 -0.0802
  176DOPC  H12R21521   2.402   0.267   8.970 -1.6091 -0.6831  1.9451
  176DOPC  H12S21522   2.252   0.209   8.887 -1.2850  2.0257 -3.1733
  176DOPC  C21321523   2.226   0.377   9.026  0.4433  0.0642 -0.3094
  176DOPC  H13R21524   2.287   0.466   9.051 -0.2707  0.4032  0.2783
  176DOPC  H13S21525   2.215   0.312   9.116 -2.1267  2.1152  0.9698
  176DOPC  C21421526   2.084   0.433   8.985  0.3088  0.1819  0.0392
  176DOPC  H14R21527   2.098   0.492   8.892  0.3421 -0.6022 -0.4659
  176DOPC  H14S21528   2.066   0.493   9.076  0.7951 -2.5987  2.1052
  176DOPC  C21521529   1.965   0.332   8.977  0.0089  0.5910  0.6888
  176DOPC  H15R21530   2.008   0.244   8.925 -2.8608 -2.0448  2.3971
  176DOPC  H15S21531   1.894   0.382   8.909 -1.7882 -0.7552  1.4666
  176DOPC  C21621532   1.903   0.283   9.106 -0.1715  0.3421  0.0500
  176DOPC  H16R21533   1.830   0.365   9.125 -0.3415 -0.1280  1.5833
  176DOPC  H16S21534   1.976   0.289   9.190  1.0918  0.7828 -1.0494
  176DOPC  C21721535   1.831   0.152   9.086 -0.1507 -0.4822  0.4055
  176DOPC  H17R21536   1.817   0.140   8.976 -1.9881 -0.9730  0.6447
  176DOPC  H17S21537   1.733   0.173   9.136  1.0483  1.6074  2.0411
  176DOPC  C21821538   1.907   0.039   9.151  0.4449  0.8688  0.1031
  176DOPC  H18R21539   1.847  -0.052   9.129  0.1652  0.6857  1.5308
  176DOPC  H18S21540   1.913   0.058   9.261 -0.1999  3.0315 -0.1996
  176DOPC  H18T21541   2.006   0.027   9.102  0.5743  1.4215  0.2218
  176DOPC   C3321542   1.893  -0.034   8.172  0.0297  0.1225  0.1471
  176DOPC   H3X21543   1.855  -0.134   8.144 -1.7898  0.4443  1.2358
  176DOPC   H3Y21544   1.855   0.046   8.105  1.6541 -0.0666 -1.0453
  176DOPC   C3421545   1.842  -0.009   8.312 -0.5887  0.3453 -0.1881
  176DOPC   H4X21546   1.856   0.095   8.350 -1.0093 -0.7944  3.4582
  176DOPC   H4Y21547   1.898  -0.077   8.380 -2.3265 -0.0157  0.9450
  176DOPC   C3521548   1.694  -0.032   8.323 -0.4424  0.1942  0.7492
  176DOPC   H5X21549   1.678  -0.141   8.339 -0.1237 -0.1098 -0.8079
  176DOPC   H5Y21550   1.638  -0.002   8.232 -0.6294 -3.1477 -0.3815
  176DOPC   C3621551   1.621   0.042   8.437 -0.0254  0.5214 -0.7269
  176DOPC   H6X21552   1.658   0.016   8.538 -3.4103  0.9102  0.7679
  176DOPC   H6Y21553   1.640   0.150   8.422  0.5698  0.1734 -2.8643
  176DOPC   C3721554   1.472   0.029   8.436  0.9027  0.0371 -0.3391
  176DOPC   H7X21555   1.429   0.078   8.345  0.3883  2.6300  1.1908
  176DOPC   H7Y21556   1.429  -0.073   8.429  0.0079  0.5022 -2.2906
  176DOPC   C3821557   1.399   0.099   8.557 -0.1796  0.3664  0.2923
  176DOPC   H8X21558   1.421   0.044   8.650  1.2401  0.4767  0.0383
  176DOPC   H8Y21559   1.288   0.090   8.548 -0.2547  0.6192  0.9464
  176DOPC   C3921560   1.437   0.246   8.556  0.6112  0.3940  0.0590
  176DOPC   H9X21561   1.415   0.297   8.461 -1.6737  0.2260  0.4556
  176DOPC  C31021562   1.473   0.317   8.658  1.2759 -0.4279 -0.6461
  176DOPC  H10X21563   1.481   0.427   8.647 -2.4987  0.0774  0.4864
  176DOPC  C31121564   1.489   0.266   8.799  0.4254 -0.2176  0.8883
  176DOPC  H11X21565   1.538   0.167   8.799 -0.7740 -0.8751 -1.1514
  176DOPC  H11Y21566   1.387   0.254   8.840 -0.6351 -1.8167 -1.9118
  176DOPC  C31221567   1.582   0.354   8.881 -0.4546  0.1663  0.0727
  176DOPC  H12X21568   1.682   0.370   8.835  0.1566  0.5285  1.4696
  176DOPC  H12Y21569   1.583   0.296   8.976 -0.9818 -0.5275 -0.3341
  176DOPC  C31321570   1.515   0.494   8.916  0.2873 -0.3104 -0.3698
  176DOPC  H13X21571   1.482   0.545   8.823  0.8341 -0.6438 -0.7511
  176DOPC  H13Y21572   1.424   0.456   8.968  1.3141 -2.8037 -0.2387
  176DOPC  C31421573   1.606   0.582   8.998  0.0110 -0.3917 -0.0299
  176DOPC  H14X21574   1.563   0.583   9.100  1.7296 -3.9030  0.9165
  176DOPC  H14Y21575   1.701   0.526   9.013  1.3941  1.9952  0.5743
  176DOPC  C31521576   1.633   0.733   8.952 -0.7438  0.6517 -0.1992
  176DOPC  H15X21577   1.546   0.798   8.978  0.1229  1.7011  0.1458
  176DOPC  H15Y21578   1.639   0.732   8.841 -3.7995  0.4035 -0.4445
  176DOPC  C31621579   1.763   0.795   9.000 -0.9562 -0.0689 -0.6908
  176DOPC  H16X21580   1.781   0.884   8.937 -0.2365  0.1081 -0.2419
  176DOPC  H16Y21581   1.743   0.830   9.104  1.1647  1.2705 -0.6746
  176DOPC  C31721582   1.897   0.718   8.989  0.7075 -0.4849 -0.0973
  176DOPC  H17X21583   1.896   0.638   9.067  2.0109  1.4657  2.0808
  176DOPC  H17Y21584   1.901   0.676   8.887  0.4334 -0.4321 -0.1310
  176DOPC  C31821585   2.020   0.805   9.003  0.5502 -0.2243 -0.5207
  176DOPC  H18X21586   2.007   0.881   9.084 -1.3350 -1.4970  0.4318
  176DOPC  H18Y21587   2.111   0.743   9.022  0.7859  0.4830  0.8063
  176DOPC  H18Z21588   2.041   0.853   8.905 -1.2631 -1.2697 -1.4615
  177DOPC     N21589   4.667   3.559   6.815 -0.0615  0.3940 -0.2268
  177DOPC   C1221590   4.717   3.691   6.851  0.2912  0.4686  0.2429
  177DOPC  H12A21591   4.722   3.693   6.959 -0.0328  2.1198  0.2520
  177DOPC  H12B21592   4.631   3.754   6.836  0.3537  0.6880  0.7830
  177DOPC   C1321593   4.794   3.470   6.826 -0.1523 -0.2153  0.1804
  177DOPC  H13A21594   4.872   3.513   6.765  1.4266 -2.0975  0.7660
  177DOPC  H13B21595   4.835   3.469   6.926 -1.6786 -3.1061  0.8951
  177DOPC  H13C21596   4.776   3.368   6.795  0.0400  0.2368 -1.5172
  177DOPC   C1421597   4.619   3.555   6.673 -0.0244 -0.1972  0.3736
  177DOPC  H14A21598   4.693   3.577   6.597  0.8026  0.5031  1.3681
  177DOPC  H14B21599   4.586   3.454   6.651 -0.9328  0.2327 -0.3368
  177DOPC  H14C21600   4.539   3.626   6.661  0.5408  0.2690 -0.7918
  177DOPC   C1521601   4.556   3.513   6.903  0.6980 -0.0262  0.6025
  177DOPC  H15A21602   4.530   3.411   6.879 -0.9352  0.2668  1.0079
  177DOPC  H15B21603   4.461   3.564   6.907 -0.2091 -1.7174  1.9982
  177DOPC  H15C21604   4.594   3.516   7.004  0.4963  1.1913  0.6605
  177DOPC   C1121605   4.831   3.781   6.798  0.8681  0.4006  0.5667
  177DOPC  H11A21606   4.802   3.805   6.693 -0.0503  3.5992  1.4599
  177DOPC  H11B21607   4.821   3.876   6.854 -0.2713  0.5642  0.1179
  177DOPC     P21608   5.064   3.756   6.919  0.0363 -0.1718 -0.2063
  177DOPC   O1321609   5.145   3.875   6.885  0.1311  0.5525  0.0548
  177DOPC   O1421610   5.142   3.633   6.935 -0.0599 -0.4484 -0.6054
  177DOPC   O1221611   4.960   3.725   6.800 -0.7167  0.0460  0.3748
  177DOPC   O1121612   4.966   3.789   7.041 -0.0032 -0.2401 -0.3904
  177DOPC    C121613   4.930   3.910   7.099 -0.0964 -0.2236  0.4609
  177DOPC    HA21614   4.820   3.920   7.099 -0.1169 -0.2612  1.7947
  177DOPC    HB21615   4.958   3.999   7.039 -2.1804  2.8690  3.6712
  177DOPC    C221616   4.985   3.926   7.249  0.2499 -0.2481 -0.3341
  177DOPC    HS21617   5.096   3.925   7.242  0.2026  0.4585 -1.4916
  177DOPC   O2121618   4.926   3.819   7.326 -0.3752  0.3990  0.0958
  177DOPC   C2121619   5.013   3.749   7.394  0.6189  0.2949 -0.1976
  177DOPC   O2221620   5.131   3.783   7.407 -0.3765 -0.1804  0.6087
  177DOPC   C2221621   4.932   3.648   7.480 -0.1979 -0.1094 -0.1949
  177DOPC   H2R21622   4.909   3.560   7.417 -0.2248  0.3585 -0.8520
  177DOPC   H2S21623   4.830   3.683   7.505 -0.0626  1.7756 -1.9848
  177DOPC    C321624   4.933   4.057   7.321  0.0517 -0.4833 -0.0243
  177DOPC    HX21625   4.823   4.063   7.313  0.0087 -1.3611 -0.1206
  177DOPC    HY21626   4.974   4.144   7.264 -0.1833  0.0580  0.6227
  177DOPC   O3121627   4.978   4.076   7.461 -0.6152 -0.0134 -0.6343
  177DOPC   C3121628   4.905   4.024   7.560 -0.0480 -0.0826  0.3625
  177DOPC   O3221629   4.799   3.962   7.542 -0.1465 -0.4857 -0.7287
  177DOPC   C3221630   4.965   4.059   7.700  0.1289  0.0093 -0.3301
  177DOPC   H2X21631   5.059   4.002   7.713 -0.7004 -1.3282  0.0368
  177DOPC   H2Y21632   4.985   4.168   7.703  4.3044 -0.5977 -0.4314
  177DOPC   C2321633   5.006   3.598   7.603  0.5317 -0.0127 -0.4135
  177DOPC   H3R21634   5.108   3.566   7.572  0.0669 -2.0396 -0.0452
  177DOPC   H3S21635   4.958   3.505   7.640  1.2406 -0.1300  0.2626
  177DOPC   C2421636   5.035   3.696   7.717  1.0005 -0.1222  0.3932
  177DOPC   H4R21637   4.935   3.741   7.731 -0.0624 -1.6051 -1.7303
  177DOPC   H4S21638   5.104   3.768   7.667 -1.0268  1.1109 -0.7329
  177DOPC   C2521639   5.081   3.642   7.846 -0.1578 -0.1007 -0.1847
  177DOPC   H5R21640   5.164   3.569   7.834  1.2576  1.8633 -3.4951
  177DOPC   H5S21641   4.992   3.595   7.894 -1.2411 -0.7202 -2.6713
  177DOPC   C2621642   5.127   3.749   7.945 -0.5745 -0.0436  0.3373
  177DOPC   H6R21643   5.034   3.804   7.971 -0.6927 -0.6388  1.2336
  177DOPC   H6S21644   5.198   3.821   7.899 -1.3161  0.0479 -0.6894
  177DOPC   C2721645   5.184   3.677   8.068  0.4334 -0.0708  0.0493
  177DOPC   H7R21646   5.270   3.613   8.040 -1.5901 -2.1330 -1.8461
  177DOPC   H7S21647   5.098   3.611   8.093  0.5534 -1.4208 -2.6963
  177DOPC   C2821648   5.224   3.768   8.192 -0.0762 -0.0222  0.3807
  177DOPC   H8R21649   5.234   3.695   8.275 -2.0632 -0.6815  0.1048
  177DOPC   H8S21650   5.138   3.836   8.214  0.5421 -0.0362  3.1528
  177DOPC   C2921651   5.356   3.836   8.178  0.0983  0.1827  0.5784
  177DOPC   H9R21652   5.389   3.871   8.079  0.8696  0.7973  1.0405
  177DOPC  C21021653   5.423   3.894   8.278 -0.2654  0.2494 -0.0550
  177DOPC  H10R21654   5.529   3.917   8.262 -0.8055  0.8008 -3.5651
  177DOPC  C21121655   5.380   3.894   8.425  0.2221  0.1133  0.2181
  177DOPC  H11R21656   5.476   3.908   8.480 -0.3244  2.2571  0.7158
  177DOPC  H11S21657   5.329   3.800   8.453 -0.4291  0.2583 -0.4584
  177DOPC  C21221658   5.289   4.003   8.490  0.5027 -0.2934  0.5363
  177DOPC  H12R21659   5.196   4.017   8.432  2.9486  1.7907 -3.3635
  177DOPC  H12S21660   5.347   4.098   8.481  0.1879 -0.1446  0.0757
  177DOPC  C21321661   5.256   3.980   8.641  0.5617 -0.0081 -0.4247
  177DOPC  H13R21662   5.276   3.873   8.662  0.4508 -0.0950 -0.7578
  177DOPC  H13S21663   5.147   3.996   8.654  0.5614 -0.2725 -0.0834
  177DOPC  C21421664   5.328   4.081   8.733 -0.3091  0.0338  0.0626
  177DOPC  H14R21665   5.276   4.179   8.729 -0.6782 -0.1150  0.9464
  177DOPC  H14S21666   5.436   4.099   8.714 -0.4732  0.4965 -0.4611
  177DOPC  C21521667   5.317   4.048   8.881  0.3172 -0.0042  0.6750
  177DOPC  H15R21668   5.372   3.955   8.906  1.0725 -0.1219 -1.2726
  177DOPC  H15S21669   5.209   4.039   8.906  0.6352  1.1134  2.6635
  177DOPC  C21621670   5.380   4.145   8.980 -0.0949 -0.6327 -0.1930
  177DOPC  H16R21671   5.324   4.240   8.994 -0.5785 -1.1589  1.7434
  177DOPC  H16S21672   5.482   4.175   8.949  0.1468  0.5548  1.6396
  177DOPC  C21721673   5.366   4.085   9.120 -0.0248 -0.6794  0.0135
  177DOPC  H17R21674   5.417   3.987   9.133  0.1592 -1.0372 -2.8452
  177DOPC  H17S21675   5.260   4.058   9.136 -0.4783 -0.1347 -1.8767
  177DOPC  C21821676   5.420   4.193   9.220  0.7771 -0.6382 -0.0473
  177DOPC  H18R21677   5.420   4.165   9.327  1.0052 -0.8929 -0.1121
  177DOPC  H18S21678   5.359   4.285   9.209  1.2811 -0.2342  0.4699
  177DOPC  H18T21679   5.524   4.222   9.194  0.0448 -0.0939 -2.7383
  177DOPC   C3321680   4.872   4.020   7.820  0.8621 -0.2077  0.1249
  177DOPC   H3X21681   4.923   4.042   7.916  0.9109  0.2546 -0.0063
  177DOPC   H3Y21682   4.839   3.914   7.817 -1.3492  0.2684  2.7941
  177DOPC   C3421683   4.737   4.096   7.811  0.3792 -0.4459  0.5606
  177DOPC   H4X21684   4.694   4.107   7.913 -1.7282  1.2375 -0.4258
  177DOPC   H4Y21685   4.655   4.049   7.752  0.0447  1.4228 -0.5467
  177DOPC   C3521686   4.741   4.249   7.772 -0.9559 -0.1920  0.1168
  177DOPC   H5X21687   4.748   4.253   7.661 -0.9455  0.3814  0.1339
  177DOPC   H5Y21688   4.833   4.294   7.815 -1.7405  1.7124 -0.1120
  177DOPC   C3621689   4.614   4.323   7.796 -0.0717  0.7606 -0.3832
  177DOPC   H6X21690   4.550   4.293   7.711  0.5661  0.7497 -0.8614
  177DOPC   H6Y21691   4.562   4.285   7.887  0.1715  0.0383 -0.5406
  177DOPC   C3721692   4.614   4.480   7.807  0.3127  0.5873 -0.0788
  177DOPC   H7X21693   4.687   4.515   7.730  0.6645  2.5356  1.0597
  177DOPC   H7Y21694   4.512   4.516   7.782  0.0555 -0.6229 -0.8672
  177DOPC   C3821695   4.666   4.533   7.946  0.4741 -0.0066  0.9718
  177DOPC   H8X21696   4.700   4.636   7.920 -0.5078 -0.1943 -1.2604
  177DOPC   H8Y21697   4.767   4.491   7.965  0.4645 -0.2456  0.5197
  177DOPC   C3921698   4.566   4.525   8.057 -0.7439  0.3527 -0.6301
  177DOPC   H9X21699   4.493   4.606   8.052 -0.9189  0.2522  0.1942
  177DOPC  C31021700   4.570   4.440   8.160  0.8424  0.0234  0.2945
  177DOPC  H10X21701   4.485   4.453   8.228  0.3123  0.2370 -0.3957
  177DOPC  C31121702   4.669   4.328   8.195 -0.3101 -0.8260 -0.6437
  177DOPC  H11X21703   4.772   4.342   8.157  0.3072  0.2739  1.3163
  177DOPC  H11Y21704   4.632   4.239   8.140  1.8244 -2.2808  0.1870
  177DOPC  C31221705   4.687   4.311   8.349  1.1012 -0.6837 -0.4112
  177DOPC  H12X21706   4.779   4.251   8.364  1.2995 -0.2270  0.2380
  177DOPC  H12Y21707   4.598   4.255   8.386  0.7101 -0.2609 -0.6994
  177DOPC  C31321708   4.715   4.441   8.426  0.0869  0.7519  0.1883
  177DOPC  H13X21709   4.800   4.492   8.375  0.2609  1.6980  1.3647
  177DOPC  H13Y21710   4.623   4.503   8.416  0.4608  1.6712  1.9358
  177DOPC  C31421711   4.766   4.419   8.565  0.6146  0.1790 -0.6451
  177DOPC  H14X21712   4.691   4.363   8.625 -0.4690 -0.0022 -2.1158
  177DOPC  H14Y21713   4.859   4.357   8.562 -0.7813 -2.1412  0.7127
  177DOPC  C31521714   4.787   4.557   8.623  0.0572  0.1207 -0.3006
  177DOPC  H15X21715   4.711   4.635   8.604 -1.1497 -0.2617  2.3944
  177DOPC  H15Y21716   4.881   4.598   8.582  1.0655 -1.0560  0.7436
  177DOPC  C31621717   4.797   4.550   8.772  0.3673  0.1403 -0.0482
  177DOPC  H16X21718   4.698   4.514   8.806  0.7432 -1.2934 -0.4171
  177DOPC  H16Y21719   4.874   4.472   8.793  0.7103 -0.1155 -2.0181
  177DOPC  C31721720   4.845   4.683   8.828  0.0435  0.2203 -0.0121
  177DOPC  H17X21721   4.932   4.723   8.772  0.0046 -0.8565 -0.8755
  177DOPC  H17Y21722   4.772   4.760   8.797 -0.3593 -0.6591 -1.3255
  177DOPC  C31821723   4.859   4.674   8.979  0.0712  0.5906 -0.7551
  177DOPC  H18X21724   4.939   4.602   9.007 -2.4047 -1.8932  0.5411
  177DOPC  H18Y21725   4.901   4.761   9.033  0.7344 -1.1960  1.8691
  177DOPC  H18Z21726   4.764   4.642   9.029  0.7651  0.1766  0.3416
  178DOPC     N21727   1.925   4.973   6.971  0.4540 -0.1627  0.1871
  178DOPC   C1221728   1.774   4.973   6.938 -0.1993  0.2426 -0.2198
  178DOPC  H12A21729   1.756   4.984   6.832  2.0870  1.3898 -0.5343
  178DOPC  H12B21730   1.734   5.059   6.988  0.9838  0.9035 -0.3749
  178DOPC   C1321731   1.987   5.102   6.943  0.3639 -0.1702  0.3033
  178DOPC  H13A21732   1.976   5.116   6.836 -1.8063 -0.1185  0.4867
  178DOPC  H13B21733   1.954   5.186   7.002  0.7711  0.2700 -0.0868
  178DOPC  H13C21734   2.094   5.093   6.950  0.6311  0.7478 -1.8260
  178DOPC   C1421735   2.001   4.880   6.887 -0.4090  0.6148 -0.3317
  178DOPC  H14A21736   2.104   4.862   6.914 -0.1586  0.6612 -1.2193
  178DOPC  H14B21737   1.953   4.783   6.891  1.3249 -0.2801 -0.1420
  178DOPC  H14C21738   2.012   4.890   6.780  2.0488 -2.2271 -0.4961
  178DOPC   C1521739   1.957   4.935   7.109 -0.8685 -0.7360  0.1611
  178DOPC  H15A21740   1.938   4.830   7.128 -0.9230 -0.8583 -0.5267
  178DOPC  H15B21741   1.898   4.992   7.179  0.9621 -0.1772  1.3043
  178DOPC  H15C21742   2.057   4.965   7.136 -1.6064  0.0791  2.0941
  178DOPC   C1121743   1.684   4.846   6.991  0.6827 -0.9286  0.5856
  178DOPC  H11A21744   1.592   4.858   6.929  0.1204  0.1306  1.6047
  178DOPC  H11B21745   1.743   4.754   6.969  1.7889 -0.4356  1.4253
  178DOPC     P21746   1.569   4.967   7.177  0.0859  0.1747 -0.4660
  178DOPC   O1321747   1.442   4.937   7.112  0.2448 -0.0109  0.3480
  178DOPC   O1421748   1.632   5.099   7.162  0.2000 -0.0582 -0.4198
  178DOPC   O1221749   1.668   4.856   7.129  0.1508 -0.1325 -0.6179
  178DOPC   O1121750   1.564   4.934   7.327 -0.2270  0.4121  0.2159
  178DOPC    C121751   1.653   4.975   7.429 -0.6891 -0.4709  0.0545
  178DOPC    HA21752   1.677   5.081   7.407 -0.5704 -0.5703 -0.3174
  178DOPC    HB21753   1.752   4.926   7.435  1.3564  3.2998 -0.0692
  178DOPC    C221754   1.578   4.965   7.568 -0.1814 -0.0509 -0.0675
  178DOPC    HS21755   1.470   4.943   7.554  0.0484 -2.6491  1.4194
  178DOPC   O2121756   1.597   5.085   7.643  0.3590 -0.2291 -0.0585
  178DOPC   C2121757   1.518   5.179   7.609  1.2736 -0.4409 -0.0952
  178DOPC   O2221758   1.431   5.173   7.526  0.1479  0.2729 -0.1422
  178DOPC   C2221759   1.537   5.300   7.699  0.0778  0.7427 -0.0613
  178DOPC   H2R21760   1.481   5.393   7.679  0.7890  0.9063 -1.4250
  178DOPC   H2S21761   1.644   5.325   7.683  0.2911  0.4615  0.8590
  178DOPC    C321762   1.627   4.845   7.657  0.6422  0.4104  0.4461
  178DOPC    HX21763   1.738   4.837   7.658  0.9545  3.5387  2.1324
  178DOPC    HY21764   1.587   4.749   7.618  1.6692 -0.1339  0.7019
  178DOPC   O3121765   1.593   4.844   7.797  0.0775  0.0718 -0.4582
  178DOPC   C3121766   1.467   4.847   7.828  0.7768  0.4646 -0.0507
  178DOPC   O3221767   1.373   4.841   7.751  0.3733 -0.0885  0.4640
  178DOPC   C3221768   1.454   4.876   7.975  0.1499 -0.0042 -0.0089
  178DOPC   H2X21769   1.552   4.854   8.023 -0.7934 -0.1197  1.9784
  178DOPC   H2Y21770   1.431   4.984   7.977 -0.2742 -0.0945  1.1896
  178DOPC   C2321771   1.533   5.261   7.854  0.1891 -0.0608  0.3649
  178DOPC   H3R21772   1.582   5.341   7.913  1.5452  1.8832 -3.1280
  178DOPC   H3S21773   1.566   5.155   7.858 -2.3538 -1.1174 -2.5119
  178DOPC   C2421774   1.389   5.262   7.904 -0.2851 -0.8155  0.1169
  178DOPC   H4R21775   1.341   5.166   7.873  0.1741 -1.1711  0.4946
  178DOPC   H4S21776   1.334   5.349   7.863  0.8844 -0.3153 -0.4507
  178DOPC   C2521777   1.393   5.273   8.060 -0.5165 -0.5244  0.1448
  178DOPC   H5R21778   1.436   5.371   8.089  0.9654 -0.8514 -0.8466
  178DOPC   H5S21779   1.460   5.192   8.095 -0.7022 -0.3499  0.9071
  178DOPC   C2621780   1.260   5.252   8.128 -0.1352  0.0806 -0.0744
  178DOPC   H6R21781   1.200   5.164   8.093 -1.2034  0.6451  0.2915
  178DOPC   H6S21782   1.191   5.337   8.111 -0.0217  0.1345 -0.2680
  178DOPC   C2721783   1.267   5.242   8.281 -0.3109 -0.3423  0.4829
  178DOPC   H7R21784   1.312   5.338   8.313  0.3724 -1.6366  3.7386
  178DOPC   H7S21785   1.337   5.161   8.312  0.9653  1.3052  2.0986
  178DOPC   C2821786   1.132   5.225   8.354  0.1240  0.2427  0.6380
  178DOPC   H8R21787   1.070   5.316   8.343  0.5669  0.4123 -0.6650
  178DOPC   H8S21788   1.164   5.221   8.460 -0.5795  0.1379  0.8463
  178DOPC   C2921789   1.062   5.094   8.329 -0.4640 -0.0435  0.4089
  178DOPC   H9R21790   1.125   5.005   8.316  3.5836  2.3934  1.4469
  178DOPC  C21021791   0.931   5.079   8.296  0.8815  0.7394 -0.1733
  178DOPC  H10R21792   0.897   4.977   8.273  1.0064  0.9745 -1.4829
  178DOPC  C21121793   0.825   5.186   8.309  0.2170 -0.2503 -0.1029
  178DOPC  H11R21794   0.798   5.199   8.201 -1.5349 -0.9284  0.2152
  178DOPC  H11S21795   0.851   5.285   8.352 -0.7108 -0.0659  0.0474
  178DOPC  C21221796   0.703   5.144   8.402 -0.5430  0.1856  0.8010
  178DOPC  H12R21797   0.660   5.061   8.341  0.6538  1.2334 -1.5917
  178DOPC  H12S21798   0.636   5.232   8.396  2.2024  2.3617 -0.0011
  178DOPC  C21321799   0.743   5.092   8.544  0.1057 -0.6779 -0.3817
  178DOPC  H13R21800   0.828   5.158   8.572 -0.7669  0.1778  0.2839
  178DOPC  H13S21801   0.783   4.989   8.540  1.9217 -0.0009 -0.7191
  178DOPC  C21421802   0.633   5.109   8.649 -0.7514  0.5211  0.1848
  178DOPC  H14R21803   0.538   5.078   8.601 -0.1075 -0.7402 -0.3402
  178DOPC  H14S21804   0.613   5.216   8.673  0.9468  0.5430  1.7112
  178DOPC  C21521805   0.668   5.025   8.777  0.4772  0.5575  0.1064
  178DOPC  H15R21806   0.730   4.938   8.746 -0.9986 -0.5884  0.2400
  178DOPC  H15S21807   0.570   4.998   8.823 -0.1788  0.6049 -1.2301
  178DOPC  C21621808   0.752   5.105   8.876 -0.0495  0.0814  0.1894
  178DOPC  H16R21809   0.858   5.092   8.847 -0.2080 -1.4198  0.1886
  178DOPC  H16S21810   0.741   5.072   8.982 -2.8549  2.6758  0.8513
  178DOPC  C21721811   0.735   5.258   8.884 -0.4907 -0.5680 -0.8992
  178DOPC  H17R21812   0.628   5.287   8.879 -0.4878 -0.1213  0.9268
  178DOPC  H17S21813   0.776   5.302   8.791 -1.6673  1.2247 -0.6107
  178DOPC  C21821814   0.805   5.330   9.001  0.2868  0.7070  0.6989
  178DOPC  H18R21815   0.824   5.437   8.977  0.4916  0.7363  0.9884
  178DOPC  H18S21816   0.907   5.286   9.011 -0.7712 -1.7944  1.0973
  178DOPC  H18T21817   0.749   5.321   9.096 -1.3698 -0.7348 -0.3405
  178DOPC   C3321818   1.338   4.802   8.043  0.4166  0.6873  0.2967
  178DOPC   H3X21819   1.348   4.695   8.013  0.7739  1.0585 -0.9610
  178DOPC   H3Y21820   1.244   4.840   7.996  0.1950  1.0162  0.9958
  178DOPC   C3421821   1.357   4.822   8.200  0.6803  0.1506  0.5363
  178DOPC   H4X21822   1.349   4.926   8.239  0.7023  0.4558 -0.2528
  178DOPC   H4Y21823   1.461   4.795   8.227  0.6518  0.9082  1.4495
  178DOPC   C3521824   1.260   4.733   8.278  0.5867  0.5889 -0.5936
  178DOPC   H5X21825   1.255   4.627   8.246 -0.3045 -0.2960  2.1512
  178DOPC   H5Y21826   1.161   4.781   8.265  0.5373  0.1306 -2.1239
  178DOPC   C3621827   1.275   4.741   8.432  0.0605 -0.9863  0.0046
  178DOPC   H6X21828   1.371   4.689   8.449  1.1225  0.8295 -0.1199
  178DOPC   H6Y21829   1.284   4.851   8.450 -0.7856 -1.0196  0.6887
  178DOPC   C3721830   1.165   4.670   8.512 -0.7567  0.2186  0.3316
  178DOPC   H7X21831   1.156   4.567   8.471 -0.4272  0.2268  0.2364
  178DOPC   H7Y21832   1.207   4.663   8.614  0.4543 -0.1949 -0.1725
  178DOPC   C3821833   1.034   4.755   8.523 -0.0920  0.7179  0.0560
  178DOPC   H8X21834   1.018   4.820   8.434  2.3845  2.5074  0.7949
  178DOPC   H8Y21835   1.062   4.825   8.604  0.0619 -0.7645  1.3202
  178DOPC   C3921836   0.904   4.684   8.554  0.5070 -0.7296  1.0601
  178DOPC   H9X21837   0.839   4.666   8.467 -1.0984  5.1753  0.6175
  178DOPC  C31021838   0.865   4.652   8.676  0.7860  0.8302  0.2960
  178DOPC  H10X21839   0.764   4.613   8.690  0.4343  1.7256  0.3012
  178DOPC  C31121840   0.943   4.679   8.804 -0.5885  0.1855  0.5810
  178DOPC  H11X21841   0.883   4.751   8.863 -0.3091  2.1851 -1.4233
  178DOPC  H11Y21842   1.043   4.725   8.789  0.3098 -1.8603 -0.1791
  178DOPC  C31221843   0.956   4.552   8.890 -0.8782  0.2121 -0.0761
  178DOPC  H12X21844   0.852   4.512   8.897 -1.2933  1.2309 -0.2862
  178DOPC  H12Y21845   0.988   4.564   8.996  2.8915 -2.2854 -0.7313
  178DOPC  C31321846   1.064   4.454   8.835 -0.1979 -0.5067 -0.4393
  178DOPC  H13X21847   1.034   4.422   8.733 -0.1125 -0.2426 -0.5482
  178DOPC  H13Y21848   1.161   4.508   8.831 -0.6390  0.3259 -0.1577
  178DOPC  C31421849   1.064   4.332   8.932  0.6447 -1.1237  0.0286
  178DOPC  H14X21850   1.093   4.372   9.031  2.3232  0.2912 -0.9680
  178DOPC  H14Y21851   0.965   4.281   8.936 -1.5612  2.7405  0.0747
  178DOPC  C31521852   1.170   4.233   8.882  0.1705 -0.0305 -0.1372
  178DOPC  H15X21853   1.278   4.255   8.892  0.5502 -1.0590 -1.6707
  178DOPC  H15Y21854   1.152   4.217   8.773 -0.1935 -0.4850 -0.0110
  178DOPC  C31621855   1.140   4.103   8.948 -0.0080  0.0020 -0.7526
  178DOPC  H16X21856   1.151   4.116   9.058  1.3859 -2.7336 -0.4858
  178DOPC  H16Y21857   1.039   4.066   8.918 -0.0300 -0.3166 -0.2909
  178DOPC  C31721858   1.233   3.995   8.900 -1.1068  0.0427 -0.2983
  178DOPC  H17X21859   1.305   4.030   8.823  2.2181  0.3070  2.6805
  178DOPC  H17Y21860   1.297   3.965   8.986 -2.2421  0.7560  0.8189
  178DOPC  C31821861   1.164   3.866   8.860 -0.2939 -0.2124 -0.2863
  178DOPC  H18X21862   1.232   3.781   8.840 -0.6044 -1.1614  2.3185
  178DOPC  H18Y21863   1.088   3.827   8.930 -0.5000 -2.6513 -1.7607
  178DOPC  H18Z21864   1.110   3.883   8.764  2.1888 -0.5057 -1.8434
  179DOPC     N21865   5.494   2.780   6.858 -0.4387  0.2077  0.7877
  179DOPC   C1221866   5.521   2.817   6.996  0.7669 -0.6130  0.3318
  179DOPC  H12A21867   5.609   2.878   6.998 -0.6524  1.5190  2.1942
  179DOPC  H12B21868   5.527   2.730   7.060 -1.0804 -1.6121 -0.7559
  179DOPC   C1321869   5.603   2.686   6.811  0.4958  0.1481  0.5418
  179DOPC  H13A21870   5.567   2.640   6.720 -1.1193  0.4607  0.9798
  179DOPC  H13B21871   5.697   2.721   6.773 -0.7335  0.3428 -2.6112
  179DOPC  H13C21872   5.625   2.608   6.883 -1.5026 -0.2089  0.8439
  179DOPC   C1421873   5.503   2.894   6.760  0.0614  0.2388 -0.9147
  179DOPC  H14A21874   5.469   2.858   6.664 -4.8725 -1.1681  1.0471
  179DOPC  H14B21875   5.445   2.976   6.801  1.2322  0.4775  0.3120
  179DOPC  H14C21876   5.604   2.930   6.755  0.0097  0.9098  1.5297
  179DOPC   C1521877   5.360   2.713   6.843  0.3275 -0.8873  0.0368
  179DOPC  H15A21878   5.375   2.610   6.870 -0.6109 -0.3866  2.8856
  179DOPC  H15B21879   5.321   2.710   6.742 -0.7923  1.2061  0.3431
  179DOPC  H15C21880   5.299   2.764   6.916  1.4893  0.4379  0.1255
  179DOPC   C1121881   5.420   2.912   7.064  0.1199  0.7128 -0.4378
  179DOPC  H11A21882   5.325   2.858   7.084  0.5509 -0.4614 -1.4477
  179DOPC  H11B21883   5.452   2.951   7.163 -1.5225  2.5606 -0.5768
  179DOPC     P21884   5.280   3.109   6.989  0.2348  0.5538  0.2801
  179DOPC   O1321885   5.182   3.011   6.930 -0.0901 -0.6082  0.2437
  179DOPC   O1421886   5.293   3.240   6.927  0.2316 -0.5075  0.0985
  179DOPC   O1221887   5.413   3.032   6.983 -0.2609  0.6675 -0.1893
  179DOPC   O1121888   5.253   3.125   7.144  0.5519 -0.3173  0.8507
  179DOPC    C121889   5.334   3.210   7.221 -0.0334 -0.3245 -0.3610
  179DOPC    HA21890   5.345   3.312   7.178 -0.4119 -0.8635 -1.7761
  179DOPC    HB21891   5.434   3.163   7.232 -0.1388 -0.2234  1.2778
  179DOPC    C221892   5.286   3.215   7.375  0.3368 -0.0251  0.2946
  179DOPC    HS21893   5.371   3.250   7.437  0.9757 -0.9172 -0.0619
  179DOPC   O2121894   5.247   3.083   7.412 -0.2875  0.7012 -0.1433
  179DOPC   C2121895   5.341   2.991   7.421 -0.1555 -0.3836 -0.1866
  179DOPC   O2221896   5.461   3.013   7.427 -0.1796  0.2315 -0.0709
  179DOPC   C2221897   5.274   2.859   7.433 -0.8928 -0.6457  0.3676
  179DOPC   H2R21898   5.358   2.796   7.468  1.1516  2.0961  0.7180
  179DOPC   H2S21899   5.235   2.825   7.335  0.7810  1.0465 -0.9746
  179DOPC    C321900   5.165   3.306   7.398  0.3819 -0.0153  0.0706
  179DOPC    HX21901   5.080   3.276   7.333 -0.8494 -0.3186  1.7816
  179DOPC    HY21902   5.196   3.406   7.361  0.4304 -0.2469 -0.5361
  179DOPC   O3121903   5.125   3.306   7.538 -0.1382  0.3924  0.0268
  179DOPC   C3121904   5.018   3.237   7.570 -0.8223 -0.2377 -0.0562
  179DOPC   O3221905   4.950   3.179   7.486 -0.0636  0.2556 -0.7440
  179DOPC   C3221906   4.995   3.235   7.721 -1.3317 -0.6540  0.0001
  179DOPC   H2X21907   5.067   3.169   7.774  1.3860  0.4884 -2.0156
  179DOPC   H2Y21908   5.028   3.332   7.763 -2.0623 -1.2118  2.0023
  179DOPC   C2321909   5.164   2.848   7.540  0.1175 -0.0580 -0.4158
  179DOPC   H3R21910   5.116   2.749   7.533 -1.3404  0.6539 -0.8490
  179DOPC   H3S21911   5.088   2.927   7.525 -0.3358 -0.7802 -2.1998
  179DOPC   C2421912   5.216   2.864   7.679 -0.3883 -0.1256  0.4764
  179DOPC   H4R21913   5.275   2.958   7.689  1.5238 -0.9041 -2.3665
  179DOPC   H4S21914   5.280   2.780   7.714 -0.2201  0.5307  1.8269
  179DOPC   C2521915   5.093   2.869   7.778 -0.2250  0.3480 -0.4454
  179DOPC   H5R21916   5.025   2.783   7.758 -0.7281  0.9165 -1.2768
  179DOPC   H5S21917   5.028   2.957   7.756  0.3431  0.8794 -0.0127
  179DOPC   C2621918   5.131   2.873   7.927 -0.7643  0.2574 -0.3919
  179DOPC   H6R21919   5.044   2.910   7.985  1.7694  3.4326  1.7285
  179DOPC   H6S21920   5.204   2.956   7.936 -0.6500 -0.0702  2.2488
  179DOPC   C2721921   5.165   2.738   7.990 -0.1951  0.6493  0.3773
  179DOPC   H7R21922   5.244   2.687   7.931 -1.8457 -1.3027 -0.2681
  179DOPC   H7S21923   5.075   2.673   7.994  1.4078 -1.6985  0.6554
  179DOPC   C2821924   5.218   2.760   8.134 -0.5014  0.9527 -0.6730
  179DOPC   H8R21925   5.290   2.843   8.118 -0.1385  0.4025 -2.1053
  179DOPC   H8S21926   5.294   2.681   8.154 -2.4799 -0.7789  0.4238
  179DOPC   C2921927   5.125   2.782   8.247 -0.2593  0.0738  0.0924
  179DOPC   H9R21928   5.074   2.879   8.238  3.2861  2.0519 -0.4978
  179DOPC  C21021929   5.092   2.697   8.347 -0.1614  0.2955  0.1563
  179DOPC  H10R21930   5.030   2.727   8.433 -0.8356  1.2736 -0.6522
  179DOPC  C21121931   5.144   2.556   8.366  0.4502 -0.0547 -0.6687
  179DOPC  H11R21932   5.195   2.545   8.465  0.7802 -0.9794 -0.9329
  179DOPC  H11S21933   5.223   2.529   8.294  0.9656  2.3186 -1.0742
  179DOPC  C21221934   5.031   2.452   8.351  0.1488 -0.3856  0.3694
  179DOPC  H12R21935   4.945   2.473   8.419  2.3203  0.0495  3.1195
  179DOPC  H12S21936   5.080   2.365   8.399 -1.1285 -0.5063  1.5226
  179DOPC  C21321937   4.989   2.419   8.209  0.5357 -0.4165 -0.2392
  179DOPC  H13R21938   5.069   2.352   8.170 -0.3146 -0.9563 -1.1035
  179DOPC  H13S21939   4.982   2.508   8.142  2.6115 -0.2393 -0.2998
  179DOPC  C21421940   4.863   2.326   8.200  0.2873 -0.0760  0.0166
  179DOPC  H14R21941   4.784   2.395   8.236  0.3681 -0.9820  2.0602
  179DOPC  H14S21942   4.870   2.238   8.268 -0.4043  0.1942  0.4438
  179DOPC  C21521943   4.841   2.268   8.053  0.0054  0.4302 -0.6671
  179DOPC  H15R21944   4.935   2.230   8.010  0.2072 -0.8987  0.8280
  179DOPC  H15S21945   4.797   2.341   7.982  2.0082  0.7739 -1.6233
  179DOPC  C21621946   4.744   2.152   8.066  0.1926 -0.0072  0.7181
  179DOPC  H16R21947   4.642   2.186   8.091 -1.4661 -2.5821 -1.7943
  179DOPC  H16S21948   4.767   2.072   8.139 -0.7284  0.5603  1.6492
  179DOPC  C21721949   4.723   2.078   7.930 -0.4491 -1.2469 -0.5875
  179DOPC  H17R21950   4.663   1.986   7.944 -1.4548 -0.4397  0.6538
  179DOPC  H17S21951   4.827   2.047   7.905  0.5906  0.2676  1.5114
  179DOPC  C21821952   4.669   2.161   7.806  0.1113 -0.3150  0.1945
  179DOPC  H18R21953   4.614   2.100   7.732  0.9859 -0.9924  0.0896
  179DOPC  H18S21954   4.744   2.231   7.764  0.6944 -0.8176  0.3876
  179DOPC  H18T21955   4.588   2.220   7.855  0.9776  0.2162  1.0355
  179DOPC   C3321956   4.852   3.228   7.752 -0.2943  0.1632 -0.1563
  179DOPC   H3X21957   4.829   3.119   7.747 -2.6444  0.4965  1.3190
  179DOPC   H3Y21958   4.786   3.283   7.681  1.7444  2.1903 -0.5917
  179DOPC   C3421959   4.825   3.277   7.901 -0.0921  0.0645  0.0455
  179DOPC   H4X21960   4.715   3.265   7.914 -0.0804  0.3670  0.4231
  179DOPC   H4Y21961   4.844   3.386   7.910  4.7568 -0.5660  0.2973
  179DOPC   C3521962   4.906   3.218   8.021  0.6203 -0.4510  0.3888
  179DOPC   H5X21963   4.927   3.116   7.984  0.3501 -0.4753  0.3005
  179DOPC   H5Y21964   4.833   3.227   8.105 -0.6762  0.2799 -0.7807
  179DOPC   C3621965   5.035   3.289   8.065 -0.6825 -0.2737  0.1531
  179DOPC   H6X21966   5.109   3.283   7.983  0.7008 -0.7892  1.3949
  179DOPC   H6Y21967   5.005   3.394   8.087 -2.2883 -0.8212  0.7556
  179DOPC   C3721968   5.109   3.226   8.189  0.6913  0.1903  0.1724
  179DOPC   H7X21969   5.146   3.125   8.163  1.8201  0.5179  0.4362
  179DOPC   H7Y21970   5.199   3.290   8.203  2.3611 -2.3238  1.8097
  179DOPC   C3821971   5.023   3.208   8.318  0.3303  0.8449  0.2684
  179DOPC   H8X21972   5.078   3.136   8.382 -1.9621 -0.2983  1.0520
  179DOPC   H8Y21973   4.921   3.170   8.295  0.2086  1.3187  0.0079
  179DOPC   C3921974   5.006   3.338   8.397  0.5854 -0.5995 -0.1756
  179DOPC   H9X21975   4.925   3.408   8.371  3.5233  2.5966 -1.4558
  179DOPC  C31021976   5.098   3.384   8.481  0.2043  0.3158 -0.2826
  179DOPC  H10X21977   5.088   3.485   8.524  0.2125  0.2702 -0.1728
  179DOPC  C31121978   5.230   3.322   8.527  0.0282 -0.0098 -0.1204
  179DOPC  H11X21979   5.314   3.366   8.469  2.4758  0.4749  3.4409
  179DOPC  H11Y21980   5.242   3.213   8.516 -0.8075 -0.1615  0.3880
  179DOPC  C31221981   5.265   3.370   8.675 -0.1610 -0.2819 -0.2042
  179DOPC  H12X21982   5.196   3.312   8.741  1.2708 -0.8022  0.8919
  179DOPC  H12Y21983   5.246   3.477   8.698  2.3789  0.2541 -0.2914
  179DOPC  C31321984   5.405   3.319   8.718 -0.3655 -0.4381 -0.2047
  179DOPC  H13X21985   5.415   3.328   8.829 -0.4775  4.1321 -0.3697
  179DOPC  H13Y21986   5.434   3.215   8.693  1.1423  0.2756 -1.6353
  179DOPC  C31421987   5.517   3.412   8.663 -0.7177 -0.4323  0.3422
  179DOPC  H14X21988   5.502   3.435   8.555 -1.4608  0.4749  0.6222
  179DOPC  H14Y21989   5.509   3.509   8.717 -1.8781  0.4936 -1.3938
  179DOPC  C31521990   5.648   3.339   8.695  0.3233 -0.4289 -0.4428
  179DOPC  H15X21991   5.645   3.238   8.649  0.2985 -1.1914  1.1982
  179DOPC  H15Y21992   5.668   3.319   8.802 -0.4021 -0.7350 -0.3634
  179DOPC  C31621993   5.760   3.428   8.642 -0.7699  0.4402  0.9752
  179DOPC  H16X21994   5.778   3.400   8.536  0.4327  0.8117  1.0585
  179DOPC  H16Y21995   5.729   3.535   8.641  0.6092  0.8710  0.9136
  179DOPC  C31721996   5.896   3.412   8.700  0.3747 -0.2139  0.4026
  179DOPC  H17X21997   5.967   3.462   8.631  0.9739 -1.6667 -0.0761
  179DOPC  H17Y21998   5.901   3.465   8.798  2.5914  1.3425 -0.4821
  179DOPC  C31821999   5.936   3.265   8.707  0.5167 -0.2036  0.4994
  179DOPC  H18X22000   6.047   3.255   8.707  0.4511 -1.2285 -0.8490
  179DOPC  H18Y22001   5.900   3.240   8.808 -0.5293  0.1685  0.2317
  179DOPC  H18Z22002   5.891   3.193   8.635  1.0892 -0.3687  0.2977
  180DOPC     N22003   6.390   1.000   7.370  0.2066 -0.5599  0.2000
  180DOPC   C1222004   6.508   1.078   7.315  0.3385  0.3430  0.2125
  180DOPC  H12A22005   6.473   1.149   7.242  0.9371  2.3961  1.8167
  180DOPC  H12B22006   6.577   1.019   7.255  2.0207  3.0948 -0.7522
  180DOPC   C1322007   6.310   0.931   7.265  0.1450 -0.0409 -0.4366
  180DOPC  H13A22008   6.238   1.004   7.231  0.0936  0.6343  1.0784
  180DOPC  H13B22009   6.368   0.901   7.178 -0.3524 -0.8043 -0.5098
  180DOPC  H13C22010   6.257   0.845   7.304 -0.9035  1.0567  0.6307
  180DOPC   C1422011   6.300   1.095   7.447  0.4488  0.3503 -0.0291
  180DOPC  H14A22012   6.339   1.156   7.527 -0.1838  2.8833 -1.5496
  180DOPC  H14B22013   6.262   1.174   7.384 -2.4871  0.2540  1.4441
  180DOPC  H14C22014   6.218   1.033   7.480 -0.2947  1.0769 -0.4780
  180DOPC   C1522015   6.436   0.897   7.462  0.1344  0.2501  0.5128
  180DOPC  H15A22016   6.499   0.822   7.416  0.1547 -0.4309  1.6096
  180DOPC  H15B22017   6.358   0.838   7.509 -0.3653  2.7669  3.1159
  180DOPC  H15C22018   6.496   0.943   7.539  1.0466  0.7415 -0.4620
  180DOPC   C1122019   6.593   1.158   7.416  0.1816  0.0294  0.3331
  180DOPC  H11A22020   6.678   1.197   7.356  0.9691 -1.3563  0.4897
  180DOPC  H11B22021   6.534   1.248   7.442  0.5008  0.3967 -0.1945
  180DOPC     P22022   6.780   1.014   7.538  0.0539 -0.1445  0.2385
  180DOPC   O1322023   6.817   0.946   7.415 -0.2534  0.9097  0.4759
  180DOPC   O1422024   6.769   0.929   7.656 -0.3196  0.3152 -0.2970
  180DOPC   O1222025   6.639   1.076   7.524 -0.2860  0.0836  0.6169
  180DOPC   O1122026   6.878   1.128   7.570  0.5905  0.2805  0.6037
  180DOPC    C122027   7.020   1.105   7.561  0.0208 -0.4540 -0.1461
  180DOPC    HA22028   7.069   1.194   7.515  1.6208 -1.8682 -1.3030
  180DOPC    HB22029   7.053   1.017   7.502  0.6141 -1.3274  1.4231
  180DOPC    C222030   7.081   1.110   7.699 -0.0638  0.7138 -0.1759
  180DOPC    HS22031   7.191   1.118   7.684 -0.0852 -0.7955 -1.4274
  180DOPC   O2122032   7.047   0.982   7.766  0.0806  0.2054  0.2703
  180DOPC   C2122033   7.109   0.872   7.718 -0.9877 -0.1957  0.4174
  180DOPC   O2222034   7.206   0.865   7.639  0.0006 -0.0489 -0.1598
  180DOPC   C2222035   7.049   0.751   7.785 -0.3138 -0.3604 -0.8716
  180DOPC   H2R22036   7.088   0.658   7.739 -1.3668 -2.5752  2.3905
  180DOPC   H2S22037   6.939   0.757   7.769 -0.8944 -1.5075  2.0180
  180DOPC    C322038   7.032   1.221   7.803 -0.9614 -0.2867  1.0702
  180DOPC    HX22039   6.921   1.217   7.801 -1.0062  0.2151  1.9253
  180DOPC    HY22040   7.076   1.314   7.761  1.3478 -2.1451 -0.9009
  180DOPC   O3122041   7.101   1.216   7.932 -0.3786 -0.2413 -0.5649
  180DOPC   C3122042   7.011   1.195   8.033 -0.3166 -0.1998  0.3626
  180DOPC   O3222043   6.891   1.175   8.018 -0.9769  0.1653 -0.5632
  180DOPC   C3222044   7.085   1.179   8.163 -0.3020 -0.3748 -0.0320
  180DOPC   H2X22045   7.171   1.249   8.168 -0.8508  0.3283 -0.3227
  180DOPC   H2Y22046   7.009   1.200   8.242  0.6972 -1.4955  1.2665
  180DOPC   C2322047   7.082   0.743   7.939  0.0559 -0.8401 -0.0019
  180DOPC   H3R22048   7.059   0.844   7.979  2.2415  0.0954 -0.9506
  180DOPC   H3S22049   7.190   0.718   7.948  0.9229  2.8738  2.3935
  180DOPC   C2422050   7.009   0.634   8.024 -0.9797 -0.3504 -0.3235
  180DOPC   H4R22051   7.012   0.541   7.963 -0.1028 -0.1770 -0.5503
  180DOPC   H4S22052   6.899   0.655   8.028 -0.8117  0.5578 -0.3013
  180DOPC   C2522053   7.074   0.606   8.154  0.0771  0.1414 -0.0409
  180DOPC   H5R22054   7.007   0.553   8.224 -0.0684  0.2270 -0.1147
  180DOPC   H5S22055   7.099   0.702   8.205 -0.5620 -0.2580  1.0386
  180DOPC   C2622056   7.204   0.513   8.159  0.1101 -0.6100  0.4842
  180DOPC   H6R22057   7.282   0.559   8.095 -0.6367 -1.2960 -0.9769
  180DOPC   H6S22058   7.205   0.407   8.125 -0.2743 -0.9895  1.6079
  180DOPC   C2722059   7.260   0.514   8.302  0.0797 -0.0141 -1.1728
  180DOPC   H7R22060   7.212   0.432   8.360 -0.4533  1.9895  1.3992
  180DOPC   H7S22061   7.234   0.609   8.354  1.1486 -0.5186  0.3414
  180DOPC   C2822062   7.414   0.516   8.310 -0.0928 -0.1088  0.3144
  180DOPC   H8R22063   7.438   0.604   8.247 -2.6210  0.9772  0.7241
  180DOPC   H8S22064   7.450   0.429   8.251  0.3028 -0.7258  1.4392
  180DOPC   C2922065   7.482   0.514   8.443  0.0297 -0.1736  0.1166
  180DOPC   H9R22066   7.438   0.599   8.498 -1.1427  0.6762 -1.9815
  180DOPC  C21022067   7.576   0.432   8.487  0.6987 -0.8839  0.3402
  180DOPC  H10R22068   7.623   0.462   8.582  1.0275 -0.5724  0.0797
  180DOPC  C21122069   7.628   0.306   8.430 -0.1432 -0.8947 -0.1856
  180DOPC  H11R22070   7.729   0.331   8.393  0.1038 -2.0334 -0.3322
  180DOPC  H11S22071   7.568   0.274   8.342 -1.4334 -0.2637  0.4356
  180DOPC  C21222072   7.637   0.184   8.526 -0.5602 -0.2747 -0.4613
  180DOPC  H12R22073   7.690   0.221   8.617  0.3311  1.3478 -1.5688
  180DOPC  H12S22074   7.692   0.099   8.481  0.5722 -0.7233  1.6432
  180DOPC  C21322075   7.498   0.130   8.557 -0.1710 -0.7229  0.2073
  180DOPC  H13R22076   7.445   0.080   8.472 -0.7946  1.2084 -0.5843
  180DOPC  H13S22077   7.430   0.215   8.578 -0.9113 -1.4887  0.9830
  180DOPC  C21422078   7.493   0.039   8.678  0.5351 -0.3488  0.0533
  180DOPC  H14R22079   7.572  -0.039   8.671 -1.1248 -1.9990 -2.1731
  180DOPC  H14S22080   7.395  -0.015   8.673  0.1521  0.4504 -2.9359
  180DOPC  C21522081   7.512   0.115   8.804 -0.5567 -0.1614 -0.5334
  180DOPC  H15R22082   7.424   0.180   8.821  0.1087  0.9590 -1.2425
  180DOPC  H15S22083   7.602   0.180   8.792 -1.0760  0.7281  0.3197
  180DOPC  C21622084   7.536   0.032   8.932  0.3656 -0.3907  0.2418
  180DOPC  H16R22085   7.623  -0.035   8.917  1.9055  1.7144 -0.7051
  180DOPC  H16S22086   7.446  -0.031   8.947 -1.7199  2.4509  0.6175
  180DOPC  C21722087   7.572   0.114   9.061  1.3257  0.5867  0.4083
  180DOPC  H17R22088   7.680   0.130   9.046  1.9925 -3.3025  0.1377
  180DOPC  H17S22089   7.563   0.053   9.153 -1.8805 -0.3286 -0.3519
  180DOPC  C21822090   7.503   0.246   9.074  0.5993  0.4391  0.3297
  180DOPC  H18R22091   7.550   0.316   9.001  0.4423  0.4457  0.2335
  180DOPC  H18S22092   7.517   0.286   9.176  1.9030 -0.5932  0.5878
  180DOPC  H18T22093   7.396   0.242   9.043  0.5833 -0.3679  0.4870
  180DOPC   C3322094   7.128   1.043   8.208  0.4652 -0.4264 -0.3592
  180DOPC   H3X22095   7.210   0.994   8.152 -0.5983 -2.2394 -0.4378
  180DOPC   H3Y22096   7.042   0.976   8.182 -0.3310 -0.1095  1.3203
  180DOPC   C3422097   7.149   1.029   8.354 -0.0022  0.1454 -0.4012
  180DOPC   H4X22098   7.076   1.092   8.409 -1.5870 -2.1676  0.2617
  180DOPC   H4Y22099   7.249   1.067   8.387 -0.2591 -0.8404  1.6725
  180DOPC   C3522100   7.127   0.890   8.405 -0.4523  0.1048  0.3843
  180DOPC   H5X22101   7.207   0.828   8.357 -1.1886  0.5741 -1.5440
  180DOPC   H5Y22102   7.029   0.846   8.378  0.2005 -2.7248  2.2104
  180DOPC   C3622103   7.151   0.884   8.550 -0.5499 -0.6149 -0.3410
  180DOPC   H6X22104   7.248   0.935   8.569 -0.4567 -1.0924  0.5303
  180DOPC   H6Y22105   7.072   0.950   8.591 -0.6941 -0.1908 -1.2711
  180DOPC   C3722106   7.169   0.742   8.600  0.4762 -0.3402 -0.0844
  180DOPC   H7X22107   7.069   0.693   8.592 -0.2362  1.2547 -1.8065
  180DOPC   H7Y22108   7.238   0.682   8.537 -1.1421 -0.4125 -1.9124
  180DOPC   C3822109   7.214   0.733   8.747  0.9838 -0.2573  0.8848
  180DOPC   H8X22110   7.148   0.807   8.798  1.4260  0.1237  0.9130
  180DOPC   H8Y22111   7.320   0.765   8.734  0.2395  2.3912  0.7814
  180DOPC   C3922112   7.207   0.596   8.819  0.1852  0.3707  0.5669
  180DOPC   H9X22113   7.107   0.555   8.840  0.6022 -1.2667 -0.5012
  180DOPC  C31022114   7.311   0.522   8.854 -0.1061 -0.3386  0.3135
  180DOPC  H10X22115   7.300   0.431   8.914  1.3527 -0.1061  0.9935
  180DOPC  C31122116   7.453   0.569   8.844 -0.2990 -0.7093 -1.0828
  180DOPC  H11X22117   7.469   0.649   8.770 -3.1325  3.6849  2.5166
  180DOPC  H11Y22118   7.522   0.489   8.810 -3.0206 -2.4060 -3.0386
  180DOPC  C31222119   7.524   0.621   8.972 -0.0048  0.1541 -0.1940
  180DOPC  H12X22120   7.496   0.555   9.057 -2.1690  1.2796  0.0578
  180DOPC  H12Y22121   7.478   0.719   9.000  1.2297  1.0139 -1.0910
  180DOPC  C31322122   7.676   0.634   8.954 -0.4461 -0.1417  0.1516
  180DOPC  H13X22123   7.714   0.534   8.924 -3.2618 -1.5635  0.9254
  180DOPC  H13Y22124   7.701   0.705   8.873  1.4271  1.1329  1.7500
  180DOPC  C31422125   7.745   0.681   9.086  0.0922 -0.0356  0.1019
  180DOPC  H14X22126   7.714   0.615   9.170  0.8765 -0.1779  0.2852
  180DOPC  H14Y22127   7.856   0.680   9.081  0.1905  3.4178 -1.0408
  180DOPC  C31522128   7.718   0.827   9.117  0.0387 -0.1547  0.1871
  180DOPC  H15X22129   7.609   0.847   9.118 -0.0813 -0.5999  2.3280
  180DOPC  H15Y22130   7.768   0.896   9.046  1.2332  0.5403  1.6473
  180DOPC  C31622131   7.763   0.870   9.260 -0.7966  0.1559 -0.5326
  180DOPC  H16X22132   7.736   0.978   9.271  0.3651  0.5041 -0.8983
  180DOPC  H16Y22133   7.704   0.807   9.329 -1.4718 -0.5563 -1.7403
  180DOPC  C31722134   7.909   0.850   9.300  0.7456 -0.3141  0.3151
  180DOPC  H17X22135   7.924   0.740   9.291  0.1206 -0.3398 -0.4998
  180DOPC  H17Y22136   7.964   0.902   9.218  0.4701 -1.5806 -0.6991
  180DOPC  C31822137   7.951   0.905   9.434 -0.6589 -0.4146 -0.0923
  180DOPC  H18X22138   7.949   1.016   9.431  0.3480 -0.3853 -0.1331
  180DOPC  H18Y22139   7.884   0.875   9.517 -1.1549  0.1478 -0.2887
  180DOPC  H18Z22140   8.059   0.876   9.439 -0.8513 -0.9469  1.7896
  181DOPC     N22141   1.216   2.365   7.104 -0.1670 -0.0474  0.6043
  181DOPC   C1222142   1.184   2.257   7.006  0.2528  0.1579  0.1737
  181DOPC  H12A22143   1.141   2.296   6.915  3.0808 -0.6491 -1.6446
  181DOPC  H12B22144   1.103   2.200   7.048 -0.0306  0.6071  0.2471
  181DOPC   C1322145   1.280   2.317   7.232 -0.1667 -0.0617 -0.1037
  181DOPC  H13A22146   1.228   2.233   7.274 -0.9643  1.8519  3.0747
  181DOPC  H13B22147   1.377   2.278   7.206  0.7014  0.0287  2.6856
  181DOPC  H13C22148   1.296   2.392   7.309 -0.3921 -0.2369  0.1127
  181DOPC   C1422149   1.094   2.439   7.126 -0.1893 -0.0666  0.3017
  181DOPC  H14A22150   1.058   2.479   7.032  1.7275 -0.4003 -0.6282
  181DOPC  H14B22151   1.013   2.380   7.165 -0.5720  0.1110 -0.2027
  181DOPC  H14C22152   1.110   2.520   7.196 -0.8542 -1.5008  2.1822
  181DOPC   C1522153   1.316   2.465   7.038  0.1414 -0.3554  0.5010
  181DOPC  H15A22154   1.293   2.467   6.932  0.4761 -1.3045  0.4065
  181DOPC  H15B22155   1.416   2.426   7.050  0.0583 -1.3197 -1.4924
  181DOPC  H15C22156   1.301   2.563   7.081  0.3149  0.6494 -1.5787
  181DOPC   C1122157   1.307   2.161   6.968 -0.4609 -0.0667  0.2413
  181DOPC  H11A22158   1.273   2.094   6.886  2.5087 -0.1613 -1.0393
  181DOPC  H11B22159   1.395   2.213   6.924 -1.0488  0.5050 -0.2757
  181DOPC     P22160   1.297   1.966   7.146 -0.0245  0.0683  0.2463
  181DOPC   O1322161   1.365   1.850   7.087 -0.4203 -0.0208  0.6487
  181DOPC   O1422162   1.150   1.965   7.114 -0.1988  0.0433 -0.0466
  181DOPC   O1222163   1.360   2.091   7.081 -0.0970  0.6265 -0.0648
  181DOPC   O1122164   1.325   1.996   7.296 -0.1728 -0.4937  0.1267
  181DOPC    C122165   1.219   2.026   7.389 -0.4525 -0.3435  0.4033
  181DOPC    HA22166   1.117   2.035   7.344  0.3965  1.8593 -1.2731
  181DOPC    HB22167   1.230   2.120   7.447 -0.4255 -0.6582  0.9101
  181DOPC    C222168   1.199   1.905   7.488 -0.1284 -1.1502 -0.4728
  181DOPC    HS22169   1.168   1.818   7.427 -1.1886 -0.3232 -1.1432
  181DOPC   O2122170   1.100   1.938   7.590 -0.0653 -0.1387  0.1332
  181DOPC   C2122171   0.972   1.907   7.554 -0.5908  0.1021  0.7955
  181DOPC   O2222172   0.940   1.847   7.453  0.1397  0.7569 -0.3307
  181DOPC   C2222173   0.872   1.934   7.666 -0.0496 -0.2238 -0.2944
  181DOPC   H2R22174   0.774   1.950   7.616 -0.6633 -0.0328  0.9235
  181DOPC   H2S22175   0.904   2.029   7.714  3.1775 -0.1297 -2.3002
  181DOPC    C322176   1.330   1.864   7.554 -0.5851  0.6230 -1.1027
  181DOPC    HX22177   1.402   1.839   7.474 -2.2518  0.4917 -2.6320
  181DOPC    HY22178   1.302   1.776   7.616 -1.5249  3.2798  2.5596
  181DOPC   O3122179   1.366   1.963   7.649  0.3850 -0.2144  0.1441
  181DOPC   C3122180   1.324   1.955   7.776 -0.2200  0.1242  0.1841
  181DOPC   O3222181   1.267   1.859   7.822  0.4885  0.5878 -0.1998
  181DOPC   C3222182   1.347   2.086   7.839  0.5700  0.0273  0.5733
  181DOPC   H2X22183   1.445   2.084   7.891  1.6770 -3.0479 -1.3514
  181DOPC   H2Y22184   1.347   2.171   7.768 -0.3426 -0.8338 -0.4887
  181DOPC   C2322185   0.869   1.828   7.783  0.5104  0.3214  0.6724
  181DOPC   H3R22186   0.968   1.818   7.833  2.7482  1.7751 -2.9994
  181DOPC   H3S22187   0.844   1.730   7.739 -0.0639  0.9841 -0.5402
  181DOPC   C2422188   0.766   1.861   7.888  0.0400  0.3798  0.0322
  181DOPC   H4R22189   0.757   1.761   7.936 -1.1772 -0.3161 -1.5491
  181DOPC   H4S22190   0.675   1.895   7.834 -1.6377 -0.3478  2.2632
  181DOPC   C2522191   0.809   1.973   7.989  0.6289  0.1482 -0.2866
  181DOPC   H5R22192   0.802   2.073   7.942  1.8225  1.0079  1.2657
  181DOPC   H5S22193   0.914   1.957   8.022  0.5662  1.7070  0.7733
  181DOPC   C2622194   0.720   1.972   8.116 -0.0946  0.1590  0.6689
  181DOPC   H6R22195   0.746   1.880   8.173 -2.4981  0.5597  2.5656
  181DOPC   H6S22196   0.618   1.951   8.078 -0.3987 -2.6007  2.6841
  181DOPC   C2722197   0.721   2.104   8.194  0.3816  0.1992  0.0326
  181DOPC   H7R22198   0.645   2.093   8.274 -1.0211 -0.0612 -1.2809
  181DOPC   H7S22199   0.690   2.183   8.122 -2.6743  0.5368  1.6009
  181DOPC   C2822200   0.858   2.135   8.258  0.5519  0.2706  0.5532
  181DOPC   H8R22201   0.845   2.245   8.274 -0.3334  0.6940 -2.4619
  181DOPC   H8S22202   0.927   2.126   8.171 -1.6970 -0.2264 -1.2856
  181DOPC   C2922203   0.900   2.046   8.370 -0.4539 -0.0172 -0.0401
  181DOPC   H9R22204   0.981   1.975   8.349  0.9312  0.4261  3.2087
  181DOPC  C21022205   0.860   2.050   8.497 -0.2306 -0.0629  0.3953
  181DOPC  H10R22206   0.894   1.970   8.564 -3.2752 -0.3363  1.8004
  181DOPC  C21122207   0.748   2.137   8.543  0.7446  0.0227 -0.9946
  181DOPC  H11R22208   0.702   2.092   8.634 -0.1636  2.3180 -0.2415
  181DOPC  H11S22209   0.667   2.154   8.469  0.6027  2.7206 -0.3234
  181DOPC  C21222210   0.776   2.281   8.580  0.9710 -0.1197 -0.1095
  181DOPC  H12R22211   0.694   2.347   8.543  0.0279 -1.2116 -0.0019
  181DOPC  H12S22212   0.872   2.309   8.532  1.7476 -2.4059  0.0103
  181DOPC  C21322213   0.797   2.306   8.728  0.1847 -0.3005 -0.1757
  181DOPC  H13R22214   0.842   2.407   8.738  4.1151 -1.5586 -2.9170
  181DOPC  H13S22215   0.873   2.235   8.768  0.4201  0.0988  0.0907
  181DOPC  C21422216   0.681   2.306   8.825 -0.4715  0.3241  0.1022
  181DOPC  H14R22217   0.631   2.208   8.813  0.5880 -0.4914  1.8967
  181DOPC  H14S22218   0.620   2.386   8.777 -0.9920 -0.5087 -0.6379
  181DOPC  C21522219   0.718   2.321   8.973  0.4318 -0.0127 -0.4703
  181DOPC  H15R22220   0.792   2.399   9.003 -1.8033  1.4329  1.6226
  181DOPC  H15S22221   0.778   2.230   8.992  0.4620 -0.2156 -1.4639
  181DOPC  C21622222   0.598   2.343   9.066 -0.5700  0.5699 -0.5146
  181DOPC  H16R22223   0.530   2.256   9.060 -0.1578  0.3261 -2.0648
  181DOPC  H16S22224   0.543   2.425   9.015 -2.3683 -1.6837 -2.3646
  181DOPC  C21722225   0.629   2.367   9.212  0.2423 -0.6093 -0.2648
  181DOPC  H17R22226   0.663   2.271   9.258  0.2219 -1.7534 -2.5331
  181DOPC  H17S22227   0.541   2.414   9.261  1.1552  2.8592 -1.6582
  181DOPC  C21822228   0.745   2.473   9.243  0.0061  0.0397  0.8295
  181DOPC  H18R22229   0.743   2.502   9.350  0.0932  0.0829  0.8192
  181DOPC  H18S22230   0.726   2.561   9.178  2.0444 -0.6854 -0.8563
  181DOPC  H18T22231   0.850   2.444   9.223 -0.1408 -1.0112  1.4935
  181DOPC   C3322232   1.241   2.118   7.946  0.1743  0.1079 -0.1425
  181DOPC   H3X22233   1.217   2.036   8.017  0.5035 -1.0118 -1.2934
  181DOPC   H3Y22234   1.145   2.135   7.892 -0.7917 -0.5189  1.3208
  181DOPC   C3422235   1.267   2.243   8.032  0.0844 -0.1160 -0.0545
  181DOPC   H4X22236   1.242   2.337   7.978 -0.1041 -0.6415 -0.8996
  181DOPC   H4Y22237   1.375   2.256   8.056 -0.3884  2.8403  0.9480
  181DOPC   C3522238   1.196   2.251   8.171  0.3196 -0.5434 -0.5014
  181DOPC   H5X22239   1.196   2.149   8.215 -1.5809 -0.1251  0.5850
  181DOPC   H5Y22240   1.086   2.260   8.157  0.0963 -2.4311 -0.1015
  181DOPC   C3622241   1.257   2.350   8.272 -0.7708 -0.1322  0.0721
  181DOPC   H6X22242   1.368   2.337   8.272 -0.6666  0.6730  0.1903
  181DOPC   H6Y22243   1.256   2.454   8.232  2.1204 -0.4752 -1.1673
  181DOPC   C3722244   1.213   2.345   8.420  0.5172  0.6580  0.1853
  181DOPC   H7X22245   1.105   2.362   8.438  0.7670  1.5017  0.9553
  181DOPC   H7Y22246   1.234   2.240   8.452  3.6286  0.8421 -0.8976
  181DOPC   C3822247   1.292   2.438   8.512  0.4383  0.1346 -0.5570
  181DOPC   H8X22248   1.400   2.456   8.494  1.3642 -0.7070  3.2453
  181DOPC   H8Y22249   1.287   2.385   8.609 -2.2848 -1.3830 -1.3865
  181DOPC   C3922250   1.236   2.581   8.528 -0.1991  0.0529  0.5593
  181DOPC   H9X22251   1.158   2.605   8.454 -2.4622 -2.6625  1.8637
  181DOPC  C31022252   1.280   2.670   8.620 -0.2101 -0.4885 -0.3125
  181DOPC  H10X22253   1.216   2.758   8.637  1.2136  0.4821  0.1472
  181DOPC  C31122254   1.384   2.633   8.723  0.5992  0.1870  0.6674
  181DOPC  H11X22255   1.427   2.531   8.712 -0.0733  0.1282 -2.6289
  181DOPC  H11Y22256   1.353   2.647   8.828  3.0911  1.0115  1.3606
  181DOPC  C31222257   1.511   2.714   8.709  0.1766  0.0206  0.1220
  181DOPC  H12X22258   1.489   2.823   8.717  2.3008  0.5290 -0.4395
  181DOPC  H12Y22259   1.550   2.694   8.607  0.8531 -2.7536  0.8633
  181DOPC  C31322260   1.623   2.701   8.816  0.1520  0.5643  0.1362
  181DOPC  H13X22261   1.706   2.772   8.797  0.5137 -0.2232 -1.4237
  181DOPC  H13Y22262   1.571   2.728   8.910 -1.7003 -2.2650  0.0432
  181DOPC  C31422263   1.674   2.559   8.843 -0.6129 -0.4083 -0.1954
  181DOPC  H14X22264   1.590   2.519   8.904 -0.1500  0.8979  1.3781
  181DOPC  H14Y22265   1.675   2.501   8.748 -0.2170 -0.6501 -0.0438
  181DOPC  C31522266   1.812   2.558   8.914 -0.0149  0.5933 -0.1894
  181DOPC  H15X22267   1.794   2.614   9.008  0.8780 -1.2919  1.1554
  181DOPC  H15Y22268   1.893   2.609   8.859 -0.1951  0.6734 -0.3845
  181DOPC  C31622269   1.857   2.416   8.943  0.1685 -0.1205 -0.2745
  181DOPC  H16X22270   1.857   2.366   8.844 -3.8266 -2.4045  0.6660
  181DOPC  H16Y22271   1.958   2.410   8.991 -0.1563  0.8482  0.5675
  181DOPC  C31722272   1.764   2.333   9.029  0.0971  0.1457 -0.2263
  181DOPC  H17X22273   1.662   2.337   8.985 -0.0461  1.1949  0.1702
  181DOPC  H17Y22274   1.794   2.227   9.012  0.9237  0.2575  0.4870
  181DOPC  C31822275   1.757   2.363   9.179 -0.0704 -0.3822  0.3665
  181DOPC  H18X22276   1.720   2.465   9.202  0.6152  0.2991 -1.4006
  181DOPC  H18Y22277   1.693   2.287   9.229 -1.8102  0.4503 -0.5239
  181DOPC  H18Z22278   1.857   2.356   9.228 -0.5916  0.8943  1.6911
  182DOPC     N22279   1.735   0.246   7.738 -0.3355 -0.3349  0.3566
  182DOPC   C1222280   1.690   0.391   7.742  0.3661  0.4242 -0.1503
  182DOPC  H12A22281   1.583   0.397   7.725  0.8755  3.7927 -3.2365
  182DOPC  H12B22282   1.736   0.444   7.660  0.0016  0.0960 -0.5690
  182DOPC   C1322283   1.718   0.178   7.870 -0.0391 -0.5147 -0.6956
  182DOPC  H13A22284   1.759   0.077   7.871 -0.0042 -0.6532  3.4931
  182DOPC  H13B22285   1.770   0.224   7.953  0.5563 -0.5718 -1.0232
  182DOPC  H13C22286   1.615   0.169   7.900  0.0889 -0.2517 -0.1627
  182DOPC   C1422287   1.877   0.238   7.687  0.1975  0.1598 -0.1038
  182DOPC  H14A22288   1.891   0.274   7.586  0.7876  0.8844  0.2237
  182DOPC  H14B22289   1.936   0.302   7.752 -0.7037 -0.9599  1.8758
  182DOPC  H14C22290   1.902   0.133   7.690  1.4736  0.4438 -0.2187
  182DOPC   C1522291   1.655   0.160   7.642 -0.0071  0.0741 -0.1113
  182DOPC  H15A22292   1.690   0.058   7.642 -1.5477 -0.5779 -3.0973
  182DOPC  H15B22293   1.648   0.191   7.539 -1.0343 -1.1951 -0.4479
  182DOPC  H15C22294   1.554   0.156   7.680 -0.1707 -1.8761 -0.6745
  182DOPC   C1122295   1.718   0.479   7.872  0.1225  0.2175  0.6344
  182DOPC  H11A22296   1.662   0.575   7.872 -0.3559 -0.0545  0.2578
  182DOPC  H11B22297   1.671   0.422   7.955  0.4622  0.2112  0.8251
  182DOPC     P22298   1.954   0.591   7.828 -0.2284  0.1092 -0.3638
  182DOPC   O1322299   1.897   0.629   7.695 -0.4103  0.1496  0.1848
  182DOPC   O1422300   2.088   0.523   7.824  0.0175 -0.4771  0.2118
  182DOPC   O1222301   1.854   0.485   7.899  0.8734 -0.3747  0.7344
  182DOPC   O1122302   1.954   0.713   7.930  0.1993 -0.1414  0.1113
  182DOPC    C122303   1.920   0.702   8.072  0.0154 -1.2911  0.1404
  182DOPC    HA22304   2.010   0.667   8.127  0.4261 -0.9131 -0.2854
  182DOPC    HB22305   1.841   0.625   8.085 -1.0533 -0.3204 -0.4012
  182DOPC    C222306   1.859   0.836   8.126 -0.2837  0.4435 -0.8404
  182DOPC    HS22307   1.775   0.860   8.057 -0.1002  2.0738 -0.5551
  182DOPC   O2122308   1.954   0.946   8.124 -0.4299  0.4885 -0.1120
  182DOPC   C2122309   1.895   1.059   8.137  0.1928 -0.1700  0.0908
  182DOPC   O2222310   1.773   1.082   8.150 -0.2273  0.1299  0.1174
  182DOPC   C2222311   2.007   1.171   8.131  0.5073  0.6366 -0.6339
  182DOPC   H2R22312   2.027   1.188   8.023  0.9833  3.1646 -0.2091
  182DOPC   H2S22313   2.100   1.128   8.173 -0.6372 -0.2622  1.1267
  182DOPC    C322314   1.790   0.821   8.265  0.4896  0.4015  0.2300
  182DOPC    HX22315   1.714   0.745   8.236  0.0360  0.8901  0.1051
  182DOPC    HY22316   1.728   0.912   8.281  0.8204  0.6184  0.2689
  182DOPC   O3122317   1.871   0.779   8.378  0.0450 -0.3592  0.4416
  182DOPC   C3122318   1.795   0.721   8.473  0.5906 -0.0417 -0.5245
  182DOPC   O3222319   1.673   0.697   8.465 -0.3585  0.1457 -0.7942
  182DOPC   C3222320   1.876   0.697   8.597 -0.1598  0.4647 -0.5511
  182DOPC   H2X22321   1.977   0.740   8.580  0.1856  0.0320  0.3697
  182DOPC   H2Y22322   1.828   0.757   8.677  2.3179  0.8359  0.7624
  182DOPC   C2322323   1.975   1.304   8.210 -0.1972  0.8507  1.2014
  182DOPC   H3R22324   1.874   1.339   8.182  0.2207  0.4670 -0.9723
  182DOPC   H3S22325   2.051   1.377   8.175  1.6663 -1.9751 -1.1929
  182DOPC   C2422326   1.964   1.301   8.363  0.4018  0.4346  0.0434
  182DOPC   H4R22327   1.893   1.225   8.402  0.2309  0.1174 -0.8492
  182DOPC   H4S22328   1.934   1.405   8.388  0.3454  0.7019 -1.0558
  182DOPC   C2522329   2.104   1.272   8.432 -0.0656  0.2562  0.2868
  182DOPC   H5R22330   2.173   1.357   8.414 -0.4683  0.4850 -0.1817
  182DOPC   H5S22331   2.147   1.179   8.390  2.1107  1.9817 -1.5538
  182DOPC   C2622332   2.102   1.250   8.588  0.3614 -0.3125 -0.0423
  182DOPC   H6R22333   2.051   1.155   8.614 -2.2206  1.5437  2.3340
  182DOPC   H6S22334   2.042   1.325   8.644  0.6099 -1.4276  1.7985
  182DOPC   C2722335   2.242   1.241   8.655  0.2325  0.1296 -0.1188
  182DOPC   H7R22336   2.299   1.162   8.602 -0.2362  0.0429 -0.5040
  182DOPC   H7S22337   2.232   1.209   8.761  1.7709  0.4199  0.1297
  182DOPC   C2822338   2.318   1.370   8.666  1.0389 -0.2502 -0.8361
  182DOPC   H8R22339   2.310   1.416   8.565 -1.0881  1.6001  0.0929
  182DOPC   H8S22340   2.422   1.342   8.690  0.5180 -2.0411 -0.4791
  182DOPC   C2922341   2.259   1.471   8.763 -0.5525  1.1001  0.4333
  182DOPC   H9R22342   2.156   1.495   8.731  0.2829  0.9275 -2.6625
  182DOPC  C21022343   2.312   1.516   8.877  0.0098 -0.2241  0.8605
  182DOPC  H10R22344   2.276   1.613   8.913  1.7181  1.1655 -0.9623
  182DOPC  C21122345   2.432   1.466   8.949 -0.1306 -0.3545  0.8165
  182DOPC  H11R22346   2.488   1.389   8.892 -0.7724  1.5817 -2.7248
  182DOPC  H11S22347   2.399   1.418   9.043 -2.9840 -0.8301 -0.3547
  182DOPC  C21222348   2.543   1.571   8.982  0.0278  0.0871  0.1493
  182DOPC  H12R22349   2.633   1.511   9.007  0.8435  1.3399  0.3417
  182DOPC  H12S22350   2.513   1.625   9.075 -1.0585 -0.0428 -0.1147
  182DOPC  C21322351   2.584   1.656   8.852 -0.2052 -0.2618  0.2162
  182DOPC  H13R22352   2.517   1.742   8.830 -0.5869 -0.8681 -1.0253
  182DOPC  H13S22353   2.597   1.596   8.760  0.0295  0.9364 -0.5563
  182DOPC  C21422354   2.723   1.716   8.882 -0.0273 -0.0442 -0.4532
  182DOPC  H14R22355   2.758   1.747   8.781 -1.4580  0.0132 -0.9617
  182DOPC  H14S22356   2.790   1.643   8.931  1.3572  1.7094  0.3940
  182DOPC  C21522357   2.717   1.835   8.972  0.3835  0.0171 -0.4107
  182DOPC  H15R22358   2.652   1.808   9.058 -0.2684  0.9807 -0.5771
  182DOPC  H15S22359   2.672   1.921   8.917  2.9377  0.8789 -1.2817
  182DOPC  C21622360   2.845   1.880   9.033  0.3690 -0.2042  0.3797
  182DOPC  H16R22361   2.908   1.801   9.081  0.6223 -1.2568 -1.6100
  182DOPC  H16S22362   2.837   1.967   9.102 -0.3727 -1.1123  1.4765
  182DOPC  C21722363   2.936   1.933   8.917  0.6362 -0.5004 -0.0665
  182DOPC  H17R22364   2.868   2.001   8.860 -1.3729 -0.4387  2.2120
  182DOPC  H17S22365   2.965   1.844   8.858 -1.4917 -2.4774  1.6929
  182DOPC  C21822366   3.069   2.002   8.963  0.0578  0.1990  0.5963
  182DOPC  H18R22367   3.038   2.094   9.017  0.3860  1.4238 -1.2179
  182DOPC  H18S22368   3.135   2.033   8.880 -0.4388  2.8308  1.1002
  182DOPC  H18T22369   3.124   1.935   9.033 -1.7893 -0.6929  1.2396
  182DOPC   C3322370   1.876   0.546   8.629 -0.6476 -0.3250 -0.4781
  182DOPC   H3X22371   1.771   0.525   8.657 -0.9322  2.6705  1.1219
  182DOPC   H3Y22372   1.937   0.522   8.719 -0.0554  1.8333 -0.2587
  182DOPC   C3422373   1.941   0.477   8.508  0.2612  0.1089 -0.2090
  182DOPC   H4X22374   2.021   0.535   8.456  0.1361 -1.1167 -1.8604
  182DOPC   H4Y22375   1.868   0.452   8.428  2.1963 -2.1814 -1.4044
  182DOPC   C3522376   2.018   0.348   8.559  0.0053  0.4146 -0.0628
  182DOPC   H5X22377   2.078   0.378   8.647 -1.0819 -0.8005  1.1365
  182DOPC   H5Y22378   2.087   0.314   8.479 -0.0940 -1.7788  0.7324
  182DOPC   C3622379   1.921   0.239   8.605  0.2529  0.2411  0.6659
  182DOPC   H6X22380   1.874   0.287   8.694 -2.4769 -1.0866  0.0399
  182DOPC   H6Y22381   1.839   0.215   8.534  0.3082 -0.0804  0.7117
  182DOPC   C3722382   1.999   0.113   8.637 -0.5986 -0.1303 -0.6284
  182DOPC   H7X22383   2.059   0.072   8.552  0.4366 -0.0162  0.0263
  182DOPC   H7Y22384   2.080   0.143   8.707 -2.0007  1.6095  0.3158
  182DOPC   C3822385   1.906   0.011   8.696 -0.4612  0.3204 -0.0471
  182DOPC   H8X22386   1.880  -0.051   8.608 -0.1728  0.2480 -0.0826
  182DOPC   H8Y22387   1.811   0.060   8.727 -0.9668  0.0915 -1.1885
  182DOPC   C3922388   1.973  -0.063   8.810  0.2435 -0.3801  0.3093
  182DOPC   H9X22389   2.019  -0.003   8.889  0.2633 -1.6782  1.3184
  182DOPC  C31022390   1.992  -0.198   8.816  0.3161  0.0900  0.6690
  182DOPC  H10X22391   2.048  -0.256   8.890 -2.7552 -4.7930 -0.3969
  182DOPC  C31122392   1.966  -0.294   8.708  0.4660  0.4896  0.6903
  182DOPC  H11X22393   1.866  -0.271   8.665  1.4012  0.6839 -1.5174
  182DOPC  H11Y22394   1.958  -0.396   8.751 -0.6069  0.2478 -0.0551
  182DOPC  C31222395   2.078  -0.279   8.601 -0.4829 -0.0976  0.5312
  182DOPC  H12X22396   2.166  -0.332   8.644  0.2035  0.6614  0.0766
  182DOPC  H12Y22397   2.109  -0.179   8.565  1.7137 -1.3533 -1.2863
  182DOPC  C31322398   2.042  -0.365   8.476  0.0467  0.5900  0.5604
  182DOPC  H13X22399   2.011  -0.466   8.511  2.7822 -0.7128 -0.5549
  182DOPC  H13Y22400   1.964  -0.315   8.415  0.5643  0.6710 -0.0367
  182DOPC  C31422401   2.167  -0.387   8.388 -0.3041  0.0622  0.0924
  182DOPC  H14X22402   2.230  -0.295   8.390 -0.4181  0.1244  0.8192
  182DOPC  H14Y22403   2.239  -0.459   8.431  1.8529  1.7057 -0.5944
  182DOPC  C31522404   2.130  -0.427   8.244  0.5188 -0.0715  0.1570
  182DOPC  H15X22405   2.041  -0.370   8.212  0.1821 -1.9530 -2.5522
  182DOPC  H15Y22406   2.091  -0.531   8.241  0.2688  0.0448 -0.8544
  182DOPC  C31622407   2.243  -0.396   8.145 -0.5038  0.2684 -0.4168
  182DOPC  H16X22408   2.208  -0.437   8.048 -1.8766  1.6210 -0.5315
  182DOPC  H16Y22409   2.254  -0.286   8.133 -1.6523  0.4507  0.0599
  182DOPC  C31722410   2.378  -0.453   8.209  0.5913  0.3655 -0.5559
  182DOPC  H17X22411   2.402  -0.399   8.303  2.4820 -1.5792  0.1554
  182DOPC  H17Y22412   2.369  -0.558   8.244 -1.1314  0.3708 -0.8808
  182DOPC  C31822413   2.500  -0.439   8.115  0.3850  0.4664 -0.5329
  182DOPC  H18X22414   2.477  -0.481   8.014 -1.2793  1.1815 -0.4874
  182DOPC  H18Y22415   2.524  -0.333   8.096  2.6655  0.1053  0.0425
  182DOPC  H18Z22416   2.585  -0.499   8.155  0.1234 -0.4848 -1.3396
  183DOPC     N22417   7.184   4.826   6.963 -0.3096  0.4362  0.1078
  183DOPC   C1222418   7.049   4.761   6.952  0.1804 -0.0814  1.2475
  183DOPC  H12A22419   7.057   4.701   6.862 -0.8565 -2.6781  2.7618
  183DOPC  H12B22420   6.973   4.833   6.928  0.1399 -0.1525  1.1569
  183DOPC   C1322421   7.278   4.714   6.955  0.1808 -0.3043  0.2953
  183DOPC  H13A22422   7.234   4.618   6.978  0.6733 -0.2248  1.6806
  183DOPC  H13B22423   7.321   4.701   6.856 -3.0525 -0.9247 -1.1512
  183DOPC  H13C22424   7.363   4.718   7.021  0.9077 -1.1654 -0.5557
  183DOPC   C1422425   7.199   4.897   7.086 -0.1093 -0.5803  0.1880
  183DOPC  H14A22426   7.115   4.963   7.100  0.1930 -0.1353 -0.0828
  183DOPC  H14B22427   7.198   4.846   7.181 -2.8643  1.4911  1.4231
  183DOPC  H14C22428   7.289   4.956   7.084 -0.1812 -0.4773 -0.8623
  183DOPC   C1522429   7.213   4.915   6.847  0.2678 -0.3973  0.4839
  183DOPC  H15A22430   7.137   4.991   6.834 -0.8194 -1.6314 -0.7993
  183DOPC  H15B22431   7.209   4.849   6.762 -1.8031 -0.9583  0.9450
  183DOPC  H15C22432   7.310   4.962   6.843  0.6050 -1.0220  1.1386
  183DOPC   C1122433   6.999   4.666   7.053 -0.1001 -0.2203 -0.4049
  183DOPC  H11A22434   6.925   4.606   6.997  0.3008 -0.9092 -0.2121
  183DOPC  H11B22435   7.079   4.593   7.075  1.6881  1.3626 -1.2898
  183DOPC     P22436   6.810   4.802   7.175 -0.5161 -0.0048  0.1961
  183DOPC   O1322437   6.803   4.903   7.069  0.5649  0.3621  1.1308
  183DOPC   O1422438   6.779   4.851   7.312 -0.0975 -0.2499 -0.2275
  183DOPC   O1222439   6.952   4.737   7.163  0.2151 -0.2247  0.2972
  183DOPC   O1122440   6.724   4.680   7.141 -1.0801 -0.4435  0.1335
  183DOPC    C122441   6.584   4.667   7.169 -0.6033  0.0801 -0.1186
  183DOPC    HA22442   6.542   4.633   7.072  1.9561 -0.8059 -0.9876
  183DOPC    HB22443   6.531   4.762   7.190 -2.4030 -1.2082  1.5493
  183DOPC    C222444   6.558   4.562   7.285  0.4113  0.7386 -0.1018
  183DOPC    HS22445   6.589   4.605   7.383 -0.7265  0.0919  0.5664
  183DOPC   O2122446   6.641   4.455   7.258  0.3997  0.3057  0.4465
  183DOPC   C2122447   6.758   4.444   7.320 -0.1439 -0.0577  0.6080
  183DOPC   O2222448   6.800   4.517   7.408  0.2544 -0.2271  0.0964
  183DOPC   C2222449   6.829   4.322   7.274  0.1566  0.0195  0.7987
  183DOPC   H2R22450   6.895   4.342   7.187 -0.4670  1.9348  0.7219
  183DOPC   H2S22451   6.754   4.244   7.249  0.8320 -0.2069 -0.6006
  183DOPC    C322452   6.414   4.523   7.303  0.0434 -0.0839 -0.2550
  183DOPC    HX22453   6.371   4.452   7.229  2.4313 -2.5148  0.5138
  183DOPC    HY22454   6.348   4.609   7.280 -2.2578 -2.1517 -1.8856
  183DOPC   O3122455   6.385   4.475   7.438 -0.1916  0.1082 -0.2662
  183DOPC   C3122456   6.424   4.344   7.464 -0.1136  0.2514 -0.1184
  183DOPC   O3222457   6.471   4.268   7.375  0.3025 -0.6002  0.2662
  183DOPC   C3222458   6.409   4.310   7.610 -0.4210  0.3764  0.6017
  183DOPC   H2X22459   6.481   4.372   7.667  0.4945 -0.5916  0.5137
  183DOPC   H2Y22460   6.304   4.339   7.635 -0.7502 -0.1800 -0.0744
  183DOPC   C2322461   6.940   4.266   7.376 -0.2022  0.9437  0.2114
  183DOPC   H3R22462   7.017   4.340   7.405 -0.0362  0.2954  1.5037
  183DOPC   H3S22463   6.992   4.185   7.321 -0.6719  1.3855 -0.9179
  183DOPC   C2422464   6.873   4.203   7.500 -0.2119 -0.4474 -0.5430
  183DOPC   H4R22465   6.774   4.163   7.469 -0.6896  1.2724 -1.3536
  183DOPC   H4S22466   6.860   4.280   7.580  1.6392 -1.5089  0.8684
  183DOPC   C2522467   6.955   4.085   7.555  0.2691  0.1156  0.5661
  183DOPC   H5R22468   7.062   4.112   7.564  0.6904 -1.3701  0.3178
  183DOPC   H5S22469   6.948   4.017   7.468  0.4342  0.9680 -0.1296
  183DOPC   C2622470   6.912   4.001   7.675  0.4838 -0.0202 -0.6176
  183DOPC   H6R22471   6.892   4.067   7.762 -0.1942 -1.1791  0.1302
  183DOPC   H6S22472   6.990   3.929   7.707 -0.8228 -2.2720 -2.1898
  183DOPC   C2722473   6.786   3.925   7.647  0.4474  0.4400  0.9510
  183DOPC   H7R22474   6.786   3.866   7.553 -0.8416  0.3349  1.0086
  183DOPC   H7S22475   6.712   4.007   7.639  0.1850  0.0464 -1.0368
  183DOPC   C2822476   6.737   3.828   7.756  0.7216 -0.1174 -0.6167
  183DOPC   H8R22477   6.730   3.885   7.851  2.2297  0.2271 -0.6935
  183DOPC   H8S22478   6.817   3.751   7.766  2.3946  1.3829 -1.8846
  183DOPC   C2922479   6.609   3.754   7.723  0.7408  0.6163 -0.6213
  183DOPC   H9R22480   6.587   3.732   7.617  1.5188 -2.6412 -0.2044
  183DOPC  C21022481   6.519   3.708   7.810 -0.5999 -0.0925  0.8561
  183DOPC  H10R22482   6.421   3.664   7.783 -2.2865  2.3379  2.6351
  183DOPC  C21122483   6.540   3.712   7.960  0.3899  0.0074 -0.2425
  183DOPC  H11R22484   6.482   3.797   8.003 -1.7555 -0.9647 -1.0906
  183DOPC  H11S22485   6.645   3.737   7.987 -0.0465  0.0399  1.5852
  183DOPC  C21222486   6.485   3.589   8.029  0.8604 -0.0169  0.6505
  183DOPC  H12R22487   6.489   3.503   7.959 -0.0594  0.2822  0.2093
  183DOPC  H12S22488   6.375   3.595   8.046  0.3351  0.7192 -2.3157
  183DOPC  C21322489   6.562   3.577   8.156  0.1212 -0.1143 -0.0737
  183DOPC  H13R22490   6.547   3.671   8.214 -0.1784  0.1673 -0.6017
  183DOPC  H13S22491   6.667   3.574   8.122  0.2555  0.1394  0.3190
  183DOPC  C21422492   6.523   3.451   8.233  0.8049 -0.1778  0.1978
  183DOPC  H14R22493   6.568   3.366   8.177  1.5712  0.1130  0.3557
  183DOPC  H14S22494   6.413   3.444   8.230  0.7176  1.1262 -0.4454
  183DOPC  C21522495   6.567   3.449   8.381 -0.1232  0.1245  0.0832
  183DOPC  H15R22496   6.534   3.362   8.442 -1.9156 -0.6923 -1.8893
  183DOPC  H15S22497   6.527   3.543   8.423  0.6807  1.2071 -1.4650
  183DOPC  C21622498   6.720   3.435   8.395 -1.0492 -0.1324  0.6222
  183DOPC  H16R22499   6.770   3.527   8.359 -1.7157 -0.7558 -2.1199
  183DOPC  H16S22500   6.761   3.357   8.328  0.5714 -0.8327  2.3292
  183DOPC  C21722501   6.766   3.404   8.541 -0.2524 -0.7994  0.4428
  183DOPC  H17R22502   6.708   3.322   8.588 -1.7890  1.8510  3.5843
  183DOPC  H17S22503   6.732   3.492   8.600  0.0321  1.0435 -1.9658
  183DOPC  C21822504   6.917   3.381   8.548  0.3296 -0.6407  0.6388
  183DOPC  H18R22505   6.970   3.466   8.500 -0.7410  0.0589  0.6717
  183DOPC  H18S22506   6.937   3.283   8.501  0.6810  0.0377 -0.6866
  183DOPC  H18T22507   6.951   3.386   8.654 -1.8298  1.1034  1.3310
  183DOPC   C3322508   6.436   4.161   7.649  0.5166 -0.8270 -0.2780
  183DOPC   H3X22509   6.541   4.129   7.630  0.0095 -1.1486 -2.8664
  183DOPC   H3Y22510   6.373   4.102   7.579 -0.6625  1.7257 -1.5153
  183DOPC   C3422511   6.428   4.122   7.800 -0.4719  0.7253 -0.0692
  183DOPC   H4X22512   6.491   4.200   7.849 -0.0099  0.1406  0.2685
  183DOPC   H4Y22513   6.470   4.021   7.820 -0.2932  1.0003  1.0253
  183DOPC   C3522514   6.284   4.137   7.860  0.8057  0.9843  0.0704
  183DOPC   H5X22515   6.228   4.044   7.837  1.7031  0.9930 -2.3916
  183DOPC   H5Y22516   6.237   4.224   7.811 -0.5662  0.1725 -0.0983
  183DOPC   C3622517   6.281   4.143   8.011 -0.2927 -0.1547 -0.4371
  183DOPC   H6X22518   6.337   4.061   8.061 -1.3008  1.3434  3.5428
  183DOPC   H6Y22519   6.338   4.234   8.040 -0.4460  0.2187 -1.2596
  183DOPC   C3722520   6.144   4.137   8.068  0.9243  0.2936  0.1199
  183DOPC   H7X22521   6.082   4.228   8.055  2.6343  1.5886  0.6954
  183DOPC   H7Y22522   6.082   4.061   8.016  0.9058  0.6661 -0.4104
  183DOPC   C3822523   6.141   4.083   8.217  0.7730 -0.0508 -0.1199
  183DOPC   H8X22524   6.195   3.986   8.224  0.3759 -0.1625  1.9023
  183DOPC   H8Y22525   6.038   4.057   8.248 -0.7562  1.4380 -3.4414
  183DOPC   C3922526   6.192   4.179   8.316 -0.3401 -0.1098 -0.3260
  183DOPC   H9X22527   6.270   4.248   8.280  1.0691 -0.9643  0.9964
  183DOPC  C31022528   6.140   4.200   8.439 -0.2913  0.3079 -0.4661
  183DOPC  H10X22529   6.174   4.290   8.492 -0.2471 -0.3295  0.6200
  183DOPC  C31122530   6.023   4.137   8.507 -0.2400  0.1469 -0.6277
  183DOPC  H11X22531   6.047   4.120   8.614 -2.7547 -0.8147 -0.1505
  183DOPC  H11Y22532   5.995   4.040   8.459  0.4761 -1.3379  1.7991
  183DOPC  C31222533   5.893   4.223   8.497 -0.6179  0.7530 -0.0920
  183DOPC  H12X22534   5.906   4.318   8.552 -0.0234  0.3638  0.4643
  183DOPC  H12Y22535   5.813   4.167   8.550  0.0534 -1.3328 -1.1605
  183DOPC  C31322536   5.853   4.246   8.350 -0.7192 -0.0066  0.0264
  183DOPC  H13X22537   5.928   4.309   8.298 -0.1008  0.6420  1.6360
  183DOPC  H13Y22538   5.853   4.155   8.287 -0.4090  0.3776 -0.5385
  183DOPC  C31422539   5.716   4.302   8.337 -0.3142 -0.1398 -0.1640
  183DOPC  H14X22540   5.646   4.237   8.393  0.1413  0.6921  1.4640
  183DOPC  H14Y22541   5.716   4.404   8.383 -2.4484  0.2254 -0.8615
  183DOPC  C31522542   5.675   4.325   8.187 -0.3258 -0.5295  0.1242
  183DOPC  H15X22543   5.668   4.226   8.138  1.1095 -0.6931  0.2093
  183DOPC  H15Y22544   5.766   4.374   8.147 -1.6715  1.4771 -0.6199
  183DOPC  C31622545   5.547   4.404   8.159  0.1537  0.3367  0.4629
  183DOPC  H16X22546   5.531   4.424   8.051 -0.4739 -0.5400  0.3802
  183DOPC  H16Y22547   5.462   4.344   8.197  0.2005 -0.0373 -0.0197
  183DOPC  C31722548   5.536   4.542   8.215 -0.7121  0.3094 -0.2569
  183DOPC  H17X22549   5.427   4.559   8.205 -1.1297 -1.1649  1.4028
  183DOPC  H17Y22550   5.562   4.555   8.322  2.1057  2.1223 -1.0515
  183DOPC  C31822551   5.621   4.637   8.143 -0.3042  0.2822  0.9498
  183DOPC  H18X22552   5.720   4.589   8.129  1.0635  3.1270  0.3692
  183DOPC  H18Y22553   5.587   4.667   8.042 -0.2962 -0.5581  0.6846
  183DOPC  H18Z22554   5.639   4.725   8.208  0.1358  1.8376 -1.1884
  184DOPC     N22555   3.905   7.192   6.651  0.2025 -0.2396 -0.0768
  184DOPC   C1222556   3.839   7.049   6.665  0.6496 -0.2431  0.1081
  184DOPC  H12A22557   3.867   6.996   6.575  2.3134  1.1691 -0.2771
  184DOPC  H12B22558   3.733   7.067   6.659  0.3955 -1.9197 -0.9842
  184DOPC   C1322559   3.891   7.269   6.778  0.0300  0.7990  0.0914
  184DOPC  H13A22560   3.939   7.366   6.770 -0.1931  1.0034  1.1349
  184DOPC  H13B22561   3.791   7.282   6.816  0.4070 -1.1400  1.9057
  184DOPC  H13C22562   3.943   7.213   6.854 -1.3012 -1.9539 -0.9063
  184DOPC   C1422563   3.840   7.264   6.541  0.1940  0.2135 -0.7302
  184DOPC  H14A22564   3.873   7.206   6.456 -1.0174 -1.8136  0.1153
  184DOPC  H14B22565   3.734   7.281   6.549  0.1061  0.5800 -2.2254
  184DOPC  H14C22566   3.882   7.364   6.536  0.2664  0.1314 -2.0828
  184DOPC   C1522567   4.051   7.161   6.614 -0.0879 -0.2950 -0.2689
  184DOPC  H15A22568   4.054   7.112   6.518 -3.6483 -1.3691  0.0199
  184DOPC  H15B22569   4.095   7.096   6.688  0.6004 -0.0056 -0.4104
  184DOPC  H15C22570   4.113   7.249   6.626 -1.7703  1.1200 -1.4584
  184DOPC   C1122571   3.854   6.975   6.796 -0.8095 -0.0673  0.5957
  184DOPC  H11A22572   3.794   7.025   6.875 -0.9035  0.4888  0.1772
  184DOPC  H11B22573   3.802   6.878   6.780 -2.6769  1.1482 -1.1923
  184DOPC     P22574   4.033   6.927   6.989 -0.3709 -0.1301  0.2834
  184DOPC   O1322575   4.177   6.920   6.992 -0.5967  0.1459  0.0088
  184DOPC   O1422576   3.957   6.810   7.024  0.0881  0.1976 -0.1696
  184DOPC   O1222577   3.990   6.960   6.840 -0.3426  0.2484 -0.1334
  184DOPC   O1122578   3.985   7.053   7.064  0.0618  0.4205  0.1307
  184DOPC    C122579   3.863   7.064   7.138  0.2714 -0.6762 -0.0972
  184DOPC    HA22580   3.793   6.979   7.122 -1.7037  1.1449 -1.7685
  184DOPC    HB22581   3.816   7.159   7.103  0.4390  0.3178  2.1986
  184DOPC    C222582   3.896   7.066   7.290  0.2985  0.1682  0.2765
  184DOPC    HS22583   3.963   7.151   7.313 -0.2220  1.0120 -1.2211
  184DOPC   O2122584   3.962   6.943   7.309 -0.0335 -0.0676  0.8671
  184DOPC   C2122585   4.064   6.935   7.390 -0.1027  0.1686 -0.0193
  184DOPC   O2222586   4.116   7.029   7.439 -0.7530 -0.4059 -0.9830
  184DOPC   C2222587   4.123   6.794   7.393  0.7025 -0.0217  0.1232
  184DOPC   H2R22588   4.202   6.786   7.314  1.5225  0.1541  0.9118
  184DOPC   H2S22589   4.051   6.716   7.359  0.2412 -1.2975  3.5824
  184DOPC    C322590   3.778   7.082   7.385  0.3046 -0.8544  0.3036
  184DOPC    HX22591   3.704   7.000   7.377 -1.2290  0.6343 -3.3256
  184DOPC    HY22592   3.719   7.175   7.369  1.1902  0.2037  2.6668
  184DOPC   O3122593   3.823   7.114   7.522  0.0758  0.4544  0.1869
  184DOPC   C3122594   3.821   7.005   7.608 -0.6330  0.0249  0.8607
  184DOPC   O3222595   3.796   6.891   7.573 -0.0841  0.4346  0.0256
  184DOPC   C3222596   3.832   7.042   7.758  0.0946 -0.4101  0.6080
  184DOPC   H2X22597   3.938   7.042   7.789  0.7279  1.7914 -1.2911
  184DOPC   H2Y22598   3.808   7.150   7.751  0.1019 -0.5141 -1.6798
  184DOPC   C2322599   4.148   6.755   7.539  0.6420 -0.4751 -0.1191
  184DOPC   H3R22600   4.159   6.645   7.544  3.0880 -0.2383  1.3713
  184DOPC   H3S22601   4.062   6.787   7.601  1.3499  1.5561 -0.1202
  184DOPC   C2422602   4.283   6.804   7.581  0.2289 -0.0325 -0.4066
  184DOPC   H4R22603   4.300   6.914   7.572 -1.0045  0.1619 -0.4832
  184DOPC   H4S22604   4.364   6.756   7.522  0.9976 -0.1406  0.6991
  184DOPC   C2522605   4.317   6.768   7.730 -0.2004 -0.2871 -0.0130
  184DOPC   H5R22606   4.246   6.828   7.791 -1.3189  0.5148 -1.9897
  184DOPC   H5S22607   4.419   6.801   7.757  0.4211 -1.7705 -0.4453
  184DOPC   C2622608   4.302   6.618   7.756 -0.1136 -0.0565 -0.3945
  184DOPC   H6R22609   4.375   6.553   7.704 -1.5441 -1.8596 -0.2155
  184DOPC   H6S22610   4.201   6.579   7.733 -0.7749  1.8192 -0.8557
  184DOPC   C2722611   4.314   6.589   7.902  0.3353  0.0499  0.3990
  184DOPC   H7R22612   4.256   6.670   7.952 -0.0261  0.0099  0.0523
  184DOPC   H7S22613   4.415   6.609   7.944  0.8396  0.7782 -1.0500
  184DOPC   C2822614   4.254   6.457   7.937  0.0094 -0.0230  0.1007
  184DOPC   H8R22615   4.149   6.440   7.905 -0.4350  0.7497  1.0930
  184DOPC   H8S22616   4.252   6.468   8.047  1.8226 -1.5965  0.3445
  184DOPC   C2922617   4.331   6.338   7.886  0.2611 -0.0201  0.1827
  184DOPC   H9R22618   4.305   6.309   7.783 -0.8180 -0.0322  0.4479
  184DOPC  C21022619   4.415   6.259   7.952 -0.2833  0.4036 -0.3890
  184DOPC  H10R22620   4.451   6.169   7.899 -0.5109  1.6029 -2.7395
  184DOPC  C21122621   4.457   6.280   8.096  0.2302 -0.2414  0.5314
  184DOPC  H11R22622   4.457   6.387   8.126  0.3860 -0.4968  1.4768
  184DOPC  H11S22623   4.556   6.229   8.101  0.7059  0.5040 -0.8529
  184DOPC  C21222624   4.354   6.201   8.183  0.7459 -0.1536  0.0493
  184DOPC  H12R22625   4.357   6.099   8.140  1.0359 -0.8146  1.5493
  184DOPC  H12S22626   4.254   6.248   8.185  0.4239 -0.8255  1.6024
  184DOPC  C21322627   4.391   6.190   8.331 -0.0820 -0.5059  0.1635
  184DOPC  H13R22628   4.417   6.292   8.367  0.6257 -0.8567  0.6616
  184DOPC  H13S22629   4.488   6.137   8.340 -0.0904 -0.5319  0.0982
  184DOPC  C21422630   4.280   6.132   8.413  0.0427 -0.3778 -0.8408
  184DOPC  H14R22631   4.313   6.103   8.515 -1.1876 -0.5746 -0.4855
  184DOPC  H14S22632   4.248   6.043   8.354 -2.5195 -1.5168  1.9889
  184DOPC  C21522633   4.165   6.232   8.415  0.0650 -0.1874  0.0566
  184DOPC  H15R22634   4.115   6.233   8.316 -1.2307 -0.7706  0.6839
  184DOPC  H15S22635   4.197   6.335   8.441  1.5141 -0.5725 -0.1220
  184DOPC  C21622636   4.052   6.203   8.519  0.1660 -0.0285 -0.1916
  184DOPC  H16R22637   3.974   6.281   8.514 -0.6675 -0.7430  1.2098
  184DOPC  H16S22638   4.097   6.201   8.621 -1.5319  3.5110  0.7587
  184DOPC  C21722639   3.977   6.069   8.488 -0.7444 -0.2729  0.5404
  184DOPC  H17R22640   4.065   6.001   8.496  0.3519  1.0950  0.4728
  184DOPC  H17S22641   3.930   6.063   8.388 -0.8178  2.9399  0.2905
  184DOPC  C21822642   3.879   6.040   8.606 -0.3021  0.3946  0.3967
  184DOPC  H18R22643   3.931   6.059   8.703  3.0132 -1.6620 -0.8134
  184DOPC  H18S22644   3.853   5.932   8.609 -0.5539  0.4762  1.6472
  184DOPC  H18T22645   3.784   6.094   8.590  0.1878  1.9366  2.2986
  184DOPC   C3322646   3.743   6.960   7.849  1.2248  0.3916  0.6711
  184DOPC   H3X22647   3.785   6.858   7.841 -2.7746 -1.4226  0.1839
  184DOPC   H3Y22648   3.638   6.945   7.814  0.7489  1.2001  1.6987
  184DOPC   C3422649   3.750   7.001   7.991 -0.3532 -0.7165 -0.1314
  184DOPC   H4X22650   3.676   6.943   8.050  1.3778 -3.5761 -0.5546
  184DOPC   H4Y22651   3.739   7.111   7.984 -0.3808 -0.7774 -1.2205
  184DOPC   C3522652   3.888   6.984   8.065 -0.5832  0.1396  0.1711
  184DOPC   H5X22653   3.974   7.025   8.009  0.6932 -1.7591  0.6476
  184DOPC   H5Y22654   3.907   6.876   8.083  0.4533  0.6296  2.3079
  184DOPC   C3622655   3.888   7.048   8.212  0.2118  0.1155  0.2136
  184DOPC   H6X22656   3.873   7.158   8.217 -1.8565 -0.0079 -1.8472
  184DOPC   H6Y22657   3.805   7.007   8.274  0.4317 -0.6931 -0.0180
  184DOPC   C3722658   4.025   7.029   8.281 -0.0917 -0.6020  0.0341
  184DOPC   H7X22659   4.035   6.921   8.304  0.5314 -0.0132  2.9284
  184DOPC   H7Y22660   4.106   7.063   8.214  0.2839  1.1215  1.2885
  184DOPC   C3822661   4.024   7.120   8.408 -0.6925  0.4732 -0.2359
  184DOPC   H8X22662   4.025   7.224   8.371  2.8140  0.9641  0.9167
  184DOPC   H8Y22663   4.129   7.115   8.445 -0.7309  1.0144 -0.0492
  184DOPC   C3922664   3.923   7.096   8.510  0.1922  0.3819 -0.2862
  184DOPC   H9X22665   3.822   7.082   8.470  0.5249 -0.8174 -0.7516
  184DOPC  C31022666   3.941   7.079   8.644 -1.1197 -0.2117 -0.3713
  184DOPC  H10X22667   3.856   7.038   8.700 -0.2126 -1.2203  0.3121
  184DOPC  C31122668   4.070   7.093   8.729 -0.0117 -0.5937 -0.2611
  184DOPC  H11X22669   4.150   7.042   8.670  0.5944  0.4837 -0.3990
  184DOPC  H11Y22670   4.054   7.040   8.825  0.8084 -0.8756 -0.2711
  184DOPC  C31222671   4.110   7.237   8.759 -0.0159  0.0421 -0.9795
  184DOPC  H12X22672   4.100   7.303   8.670 -2.1908  2.0452  0.6427
  184DOPC  H12Y22673   4.219   7.234   8.780  0.0063 -1.5888 -1.1740
  184DOPC  C31322674   4.035   7.301   8.875 -0.0735 -0.3168 -0.2286
  184DOPC  H13X22675   4.054   7.410   8.863 -1.5013  0.0230  0.4044
  184DOPC  H13Y22676   3.928   7.287   8.849 -0.7704  2.6879  0.5770
  184DOPC  C31422677   4.076   7.249   9.012  0.5347  0.0245  0.0412
  184DOPC  H14X22678   4.016   7.157   9.030  3.0276 -1.7562 -0.1727
  184DOPC  H14Y22679   4.179   7.209   9.000  0.1312 -1.6902  1.7771
  184DOPC  C31522680   4.062   7.344   9.135 -0.2446  0.3079  0.4413
  184DOPC  H15X22681   3.952   7.342   9.151 -0.5756 -0.4104 -1.6075
  184DOPC  H15Y22682   4.100   7.445   9.111 -0.0365  0.3441  0.9178
  184DOPC  C31622683   4.142   7.289   9.255  0.7042  0.3114 -0.0358
  184DOPC  H16X22684   4.111   7.184   9.275  0.2056  0.6550  1.0956
  184DOPC  H16Y22685   4.250   7.275   9.233  0.6955 -0.3848  0.3380
  184DOPC  C31722686   4.129   7.368   9.387 -0.1194  0.3601 -0.5976
  184DOPC  H17X22687   4.034   7.424   9.403  0.9833  1.7303  1.7017
  184DOPC  H17Y22688   4.131   7.291   9.466  0.5812  0.3930 -0.5748
  184DOPC  C31822689   4.246   7.466   9.398 -0.3391 -0.1057  0.5555
  184DOPC  H18X22690   4.235   7.546   9.474  1.5539 -0.3907  1.1849
  184DOPC  H18Y22691   4.347   7.421   9.398 -1.4100 -2.9185 -2.1214
  184DOPC  H18Z22692   4.249   7.533   9.309  2.1304 -2.0215 -0.9224
  185DOPC     N22693   5.537   4.151   6.953 -0.0664  0.3426 -0.2501
  185DOPC   C1222694   5.455   4.281   6.946  0.2331  0.3691  0.4679
  185DOPC  H12A22695   5.392   4.300   7.032  2.2789  1.6168  1.7593
  185DOPC  H12B22696   5.391   4.271   6.859 -2.7663  0.9754  2.4474
  185DOPC   C1322697   5.450   4.033   6.950  0.2528 -0.2628 -0.6617
  185DOPC  H13A22698   5.503   3.940   6.959 -1.6811 -1.2562  1.1731
  185DOPC  H13B22699   5.382   4.030   7.034  1.1248  0.6115  0.1064
  185DOPC  H13C22700   5.399   4.026   6.855  0.2612  1.1990 -0.8057
  185DOPC   C1422701   5.628   4.152   7.076  0.5164  0.8967 -0.3356
  185DOPC  H14A22702   5.688   4.064   7.095  0.8195  1.2286  0.2974
  185DOPC  H14B22703   5.686   4.243   7.075 -1.1386  1.9934 -0.6731
  185DOPC  H14C22704   5.569   4.159   7.166  0.2221 -0.2388 -0.4281
  185DOPC   C1522705   5.629   4.150   6.839 -0.3275  0.5542  0.6062
  185DOPC  H15A22706   5.678   4.246   6.832  0.2816  0.1831 -0.6466
  185DOPC  H15B22707   5.583   4.136   6.742 -1.4480  3.5907  0.6004
  185DOPC  H15C22708   5.703   4.071   6.841 -2.0246 -1.0956  0.4720
  185DOPC   C1122709   5.531   4.421   6.942 -0.2006  0.1468  0.4715
  185DOPC  H11A22710   5.574   4.445   6.843 -2.0551  1.5380 -0.0496
  185DOPC  H11B22711   5.451   4.498   6.954  1.1040  1.9445 -1.5301
  185DOPC     P22712   5.736   4.544   7.056  0.1245  0.2595  0.4333
  185DOPC   O1322713   5.665   4.673   7.088 -0.3828 -0.1502 -0.8682
  185DOPC   O1422714   5.817   4.540   6.931  0.0156 -0.4979 -0.2520
  185DOPC   O1222715   5.633   4.433   7.043  0.1422  0.0495  0.4165
  185DOPC   O1122716   5.828   4.489   7.173 -0.5844 -0.6127  0.4705
  185DOPC    C122717   5.959   4.535   7.185 -0.2939  0.7015 -0.0988
  185DOPC    HA22718   5.966   4.646   7.174  0.2104  0.6940  0.0889
  185DOPC    HB22719   6.027   4.491   7.110 -0.3330 -1.0907  0.8628
  185DOPC    C222720   6.021   4.487   7.327  0.0804 -0.6819  0.3877
  185DOPC    HS22721   6.128   4.514   7.334 -0.0208 -0.5681  2.0433
  185DOPC   O2122722   6.008   4.345   7.345 -0.0144  0.1082  0.0741
  185DOPC   C2122723   6.085   4.271   7.263 -0.4172  0.3057  0.8274
  185DOPC   O2222724   6.188   4.310   7.207 -0.3042 -0.0567 -0.0375
  185DOPC   C2222725   6.021   4.140   7.240 -0.9420  0.2979 -0.3004
  185DOPC   H2R22726   6.042   4.114   7.134 -0.9965 -0.5066 -0.1236
  185DOPC   H2S22727   5.910   4.138   7.235 -0.9562 -0.0252  0.0632
  185DOPC    C322728   5.949   4.565   7.443 -0.8185  0.3229  0.1369
  185DOPC    HX22729   5.842   4.541   7.427 -0.2781 -1.1496 -1.5613
  185DOPC    HY22730   5.961   4.675   7.429  1.1807 -0.2383 -4.3792
  185DOPC   O3122731   6.008   4.526   7.572 -0.0965 -0.4357 -0.4923
  185DOPC   C3122732   5.912   4.461   7.647  0.0762  0.1255 -0.3042
  185DOPC   O3222733   5.796   4.438   7.612 -1.0157  0.1556 -0.4089
  185DOPC   C3222734   5.970   4.425   7.786  0.0865  0.3631 -0.6221
  185DOPC   H2X22735   6.070   4.379   7.770  0.0187 -0.7249  1.7661
  185DOPC   H2Y22736   5.991   4.516   7.847 -1.5238  1.9333 -2.2791
  185DOPC   C2322737   6.069   4.027   7.328  0.7125  0.2380 -0.3238
  185DOPC   H3R22738   6.176   4.005   7.306  0.6240 -0.6353  0.0702
  185DOPC   H3S22739   6.009   3.941   7.291  1.3359 -0.2463 -0.2220
  185DOPC   C2422740   6.032   4.037   7.473 -0.3987 -0.5557 -0.0852
  185DOPC   H4R22741   5.923   4.041   7.495 -0.3679  1.6472 -0.0697
  185DOPC   H4S22742   6.068   4.134   7.513 -3.0356  0.7113 -0.5753
  185DOPC   C2522743   6.104   3.929   7.552 -0.3811 -0.8702 -0.2637
  185DOPC   H5R22744   6.077   3.943   7.659  0.0247  1.4552 -0.4253
  185DOPC   H5S22745   6.213   3.952   7.547 -0.8769  2.9040  2.1629
  185DOPC   C2622746   6.061   3.788   7.519  0.0087  0.4379 -0.3106
  185DOPC   H6R22747   6.053   3.758   7.412 -0.7300 -0.4124 -0.0299
  185DOPC   H6S22748   5.953   3.778   7.546  0.0372  0.4194 -0.2044
  185DOPC   C2722749   6.144   3.676   7.591 -0.1048  0.3955  0.0443
  185DOPC   H7R22750   6.171   3.694   7.697  1.4166  2.2748 -0.6109
  185DOPC   H7S22751   6.244   3.683   7.543 -0.6064 -0.4011 -1.1878
  185DOPC   C2822752   6.077   3.538   7.584  0.2451  0.5333 -0.3623
  185DOPC   H8R22753   6.047   3.533   7.477 -1.1679 -0.5342  0.0603
  185DOPC   H8S22754   5.986   3.538   7.648  0.9418 -1.0626  0.7036
  185DOPC   C2922755   6.167   3.427   7.626 -0.0758 -0.3819 -0.3801
  185DOPC   H9R22756   6.248   3.419   7.553  0.3532  0.8513 -0.0659
  185DOPC  C21022757   6.153   3.351   7.731 -0.1894 -0.5120 -0.3959
  185DOPC  H10R22758   6.232   3.275   7.742  0.0780 -0.4941 -1.9957
  185DOPC  C21122759   6.053   3.360   7.840  0.1539  0.7356  0.2103
  185DOPC  H11R22760   5.995   3.266   7.832  4.1851 -1.9486 -0.3421
  185DOPC  H11S22761   5.991   3.453   7.837  1.7445  1.8314 -1.4136
  185DOPC  C21222762   6.110   3.358   7.978 -1.1582  0.3023  0.7243
  185DOPC  H12R22763   6.166   3.451   8.000  2.1697 -1.8788  2.4782
  185DOPC  H12S22764   6.178   3.270   7.992  2.2065  2.7309  0.9632
  185DOPC  C21322765   5.996   3.337   8.082  0.3944  0.7121  0.0772
  185DOPC  H13R22766   5.941   3.244   8.054 -0.9495  0.9833  1.7102
  185DOPC  H13S22767   5.944   3.434   8.073 -2.2252 -0.6839 -0.9813
  185DOPC  C21422768   6.036   3.315   8.227 -0.3138  0.6801  0.5255
  185DOPC  H14R22769   5.947   3.282   8.285  0.3850 -1.7053  0.3573
  185DOPC  H14S22770   6.059   3.418   8.263  0.5680  0.9479 -0.7281
  185DOPC  C21522771   6.160   3.225   8.255 -0.1518 -0.2826  0.2320
  185DOPC  H15R22772   6.248   3.254   8.193  1.0235 -0.4517  1.7828
  185DOPC  H15S22773   6.122   3.128   8.216 -2.5857  1.1950 -1.3647
  185DOPC  C21622774   6.193   3.216   8.402 -0.5124 -0.7324  0.1435
  185DOPC  H16R22775   6.100   3.194   8.458 -0.2122 -1.1431  0.4900
  185DOPC  H16S22776   6.225   3.319   8.426  0.0241 -1.1957  1.5115
  185DOPC  C21722777   6.312   3.131   8.428  0.1666 -0.3046 -0.3539
  185DOPC  H17R22778   6.340   3.148   8.535 -1.3035 -2.0567  0.3595
  185DOPC  H17S22779   6.401   3.165   8.371 -0.2342 -1.6685 -1.8629
  185DOPC  C21822780   6.288   2.981   8.421  0.0742 -0.0039  0.7130
  185DOPC  H18R22781   6.376   2.931   8.466 -1.6163 -1.9080  2.0966
  185DOPC  H18S22782   6.276   2.947   8.316 -0.7133  0.8529  0.5154
  185DOPC  H18T22783   6.195   2.953   8.476 -0.8330  0.7868 -0.3764
  185DOPC   C3322784   5.874   4.334   7.859  0.3565 -0.1086  0.1710
  185DOPC   H3X22785   5.769   4.372   7.857  0.5142  0.3138 -1.4846
  185DOPC   H3Y22786   5.902   4.326   7.966  0.7927  0.7512  0.1367
  185DOPC   C3422787   5.886   4.195   7.805  0.0716 -0.1804 -0.4138
  185DOPC   H4X22788   5.992   4.161   7.804  0.2010  0.0624  1.1658
  185DOPC   H4Y22789   5.837   4.185   7.707  1.3699  1.4481 -1.2848
  185DOPC   C3522790   5.819   4.100   7.903  0.2925 -0.1348  0.4212
  185DOPC   H5X22791   5.715   4.137   7.896 -0.0684 -1.1609  0.1748
  185DOPC   H5Y22792   5.855   4.121   8.006  0.5339  1.8641 -0.0317
  185DOPC   C3622793   5.810   3.954   7.870  1.0661  0.4633  0.1337
  185DOPC   H6X22794   5.750   3.931   7.780 -0.1731  1.2672  0.7237
  185DOPC   H6Y22795   5.911   3.913   7.849  1.2463  1.6245 -1.4323
  185DOPC   C3722796   5.741   3.872   7.976 -0.4620  0.0563 -0.1656
  185DOPC   H7X22797   5.638   3.908   7.998  0.1975  1.7015  0.3714
  185DOPC   H7Y22798   5.709   3.771   7.943 -4.0755  0.3085  1.9813
  185DOPC   C3822799   5.820   3.867   8.109  0.6730 -0.0010 -0.8620
  185DOPC   H8X22800   5.800   3.961   8.165  3.0114 -0.5271  1.0704
  185DOPC   H8Y22801   5.928   3.858   8.085  0.8526  0.9196 -0.4448
  185DOPC   C3922802   5.769   3.752   8.191  0.0860 -0.1072  0.6044
  185DOPC   H9X22803   5.669   3.710   8.175 -0.3596  1.2151 -0.2276
  185DOPC  C31022804   5.845   3.702   8.290  0.5032 -0.3787  0.3332
  185DOPC  H10X22805   5.801   3.639   8.368  1.0793  0.9515  1.7903
  185DOPC  C31122806   5.983   3.755   8.322 -0.1463  0.0970 -0.6167
  185DOPC  H11X22807   6.001   3.862   8.298 -3.1825  1.0555  0.8674
  185DOPC  H11Y22808   6.055   3.695   8.263 -0.2831  0.9373 -1.6902
  185DOPC  C31222809   6.015   3.735   8.471  0.0198 -0.2903  0.2230
  185DOPC  H12X22810   5.998   3.629   8.501 -0.8625 -0.0626  0.5558
  185DOPC  H12Y22811   5.954   3.793   8.543  0.5288  0.5260  0.0104
  185DOPC  C31322812   6.166   3.764   8.488  0.3460 -0.1029 -0.2891
  185DOPC  H13X22813   6.220   3.680   8.441  0.2431 -1.0542  1.2002
  185DOPC  H13Y22814   6.195   3.862   8.446 -1.0476  0.0614 -0.9343
  185DOPC  C31422815   6.218   3.778   8.633 -0.0329 -0.2893 -0.0433
  185DOPC  H14X22816   6.164   3.842   8.706  1.4594 -1.0303  1.8009
  185DOPC  H14Y22817   6.231   3.679   8.681 -0.4680 -0.6823 -0.7262
  185DOPC  C31522818   6.362   3.839   8.646 -0.3141  0.3665  0.1416
  185DOPC  H15X22819   6.409   3.830   8.746 -1.9369  2.0837  1.1461
  185DOPC  H15Y22820   6.359   3.948   8.624 -0.5230  0.3385  0.0219
  185DOPC  C31622821   6.473   3.789   8.547 -0.1178 -0.5780  0.5661
  185DOPC  H16X22822   6.487   3.682   8.573  1.5261 -0.1446  1.6236
  185DOPC  H16Y22823   6.430   3.781   8.445 -1.1445  1.3212  0.8064
  185DOPC  C31722824   6.604   3.871   8.533 -0.0171 -0.2624  0.1728
  185DOPC  H17X22825   6.585   3.980   8.520  0.6808 -0.2633 -1.1279
  185DOPC  H17Y22826   6.661   3.857   8.627  1.9069 -0.6018 -0.9705
  185DOPC  C31822827   6.685   3.828   8.414  0.6429 -0.3807 -0.6342
  185DOPC  H18X22828   6.762   3.900   8.379  1.0247 -1.7007 -2.6605
  185DOPC  H18Y22829   6.731   3.727   8.419  0.1427 -0.5550  1.6260
  185DOPC  H18Z22830   6.610   3.827   8.332 -0.8724  0.7889  0.6694
  186DOPC     N22831   6.823   1.956   6.854  0.4676  0.2952 -0.8591
  186DOPC   C1222832   6.764   2.022   6.988 -0.1201  1.0802  0.1546
  186DOPC  H12A22833   6.658   2.003   6.984  0.2005 -0.8187 -0.6473
  186DOPC  H12B22834   6.803   2.122   6.988  3.5806 -0.1831 -1.3158
  186DOPC   C1322835   6.970   1.932   6.867  0.2263 -0.1216 -0.9038
  186DOPC  H13A22836   6.990   1.852   6.938 -0.3608  1.5864  1.3003
  186DOPC  H13B22837   7.013   1.909   6.771 -0.0341  2.2082 -1.6423
  186DOPC  H13C22838   7.030   2.007   6.916  0.5464  0.5467 -2.2881
  186DOPC   C1422839   6.795   2.047   6.748 -0.3632 -0.1115  0.1577
  186DOPC  H14A22840   6.809   2.006   6.649 -2.9122  0.4056 -0.4776
  186DOPC  H14B22841   6.696   2.088   6.760 -0.9038 -0.8866 -1.4110
  186DOPC  H14C22842   6.867   2.128   6.750  1.0732 -1.1104 -3.1577
  186DOPC   C1522843   6.756   1.823   6.831  0.2362  0.2386  0.4967
  186DOPC  H15A22844   6.652   1.835   6.807  0.3130 -1.1747 -0.7062
  186DOPC  H15B22845   6.760   1.765   6.922 -1.7427 -0.2296  0.3199
  186DOPC  H15C22846   6.810   1.770   6.754  2.4226  1.0676  1.3693
  186DOPC   C1122847   6.802   1.964   7.135  0.5356 -0.0249  0.0537
  186DOPC  H11A22848   6.905   1.996   7.161 -0.4934  0.8881  3.4337
  186DOPC  H11B22849   6.739   2.020   7.207  2.3382 -0.6307  2.2030
  186DOPC     P22850   6.896   1.735   7.199 -0.3536 -0.0913 -0.1303
  186DOPC   O1322851   7.019   1.749   7.115  0.1726  0.0353 -0.2252
  186DOPC   O1422852   6.852   1.600   7.244  0.0731  0.4062 -0.3233
  186DOPC   O1222853   6.783   1.823   7.144  0.1696 -0.0945  0.1037
  186DOPC   O1122854   6.934   1.819   7.333  0.0027  0.3775  0.1821
  186DOPC    C122855   6.849   1.809   7.443  0.6142  0.7308 -0.1070
  186DOPC    HA22856   6.845   1.705   7.482 -0.6490  1.0125  0.5427
  186DOPC    HB22857   6.745   1.842   7.422  0.4225  1.1287  1.3599
  186DOPC    C222858   6.892   1.905   7.554  0.4656 -0.2300  0.1852
  186DOPC    HS22859   6.806   1.910   7.623 -0.3037  1.2142 -0.8189
  186DOPC   O2122860   6.921   2.038   7.500  0.1002 -0.4406 -0.7739
  186DOPC   C2122861   6.819   2.110   7.470 -0.1945  0.3074 -1.0186
  186DOPC   O2222862   6.700   2.082   7.491 -0.0016 -0.4045  0.0883
  186DOPC   C2222863   6.877   2.245   7.429  0.6885  0.6159 -0.5213
  186DOPC   H2R22864   6.849   2.255   7.322  0.3728 -1.0975 -0.6300
  186DOPC   H2S22865   6.987   2.251   7.444  0.2183  2.9236  2.8578
  186DOPC    C322866   7.011   1.850   7.638  0.2956 -0.9136  0.5743
  186DOPC    HX22867   7.105   1.847   7.579  0.7465  1.5920  1.0532
  186DOPC    HY22868   6.978   1.749   7.670 -0.1800 -1.0009 -0.1674
  186DOPC   O3122869   7.029   1.925   7.753 -0.7885 -0.0810  0.0388
  186DOPC   C3122870   7.117   2.019   7.753 -0.3003  0.8075 -0.9130
  186DOPC   O3222871   7.188   2.050   7.662 -0.1582  0.0352 -0.1158
  186DOPC   C3222872   7.136   2.076   7.899  0.8114  0.2790  0.2804
  186DOPC   H2X22873   7.043   2.123   7.940  0.2625 -1.6931  1.4115
  186DOPC   H2Y22874   7.161   1.997   7.973  0.0894 -1.1113 -0.9122
  186DOPC   C2322875   6.793   2.359   7.501 -0.1170  0.4503  0.3421
  186DOPC   H3R22876   6.686   2.354   7.472 -0.3315  3.7163  0.2722
  186DOPC   H3S22877   6.827   2.458   7.465  2.2471 -0.1636  0.7031
  186DOPC   C2422878   6.793   2.356   7.656  0.3782 -0.5141 -0.0861
  186DOPC   H4R22879   6.731   2.274   7.699 -0.9562  1.0383  1.0858
  186DOPC   H4S22880   6.736   2.445   7.690 -1.3837 -1.6548  0.1287
  186DOPC   C2522881   6.938   2.374   7.713 -0.1081 -0.4410  0.0083
  186DOPC   H5R22882   6.979   2.468   7.672  3.5171 -0.6666  2.6451
  186DOPC   H5S22883   7.003   2.290   7.679  0.3456  1.4351 -4.4268
  186DOPC   C2622884   6.947   2.378   7.867  0.5482 -0.2288  0.6049
  186DOPC   H6R22885   7.055   2.372   7.894  0.8758 -0.1090 -0.6040
  186DOPC   H6S22886   6.897   2.284   7.901 -0.1070 -1.1723 -2.6378
  186DOPC   C2722887   6.871   2.498   7.932 -0.6762  0.0326 -0.7620
  186DOPC   H7R22888   6.769   2.505   7.888 -0.9299  0.3625 -0.1332
  186DOPC   H7S22889   6.920   2.591   7.898  0.0442  0.7829  2.0394
  186DOPC   C2822890   6.887   2.491   8.079  0.2080 -0.4413 -0.3550
  186DOPC   H8R22891   6.861   2.388   8.114  1.6538 -1.3776 -1.8954
  186DOPC   H8S22892   6.815   2.558   8.130  3.0286  1.9004  0.7996
  186DOPC   C2922893   7.023   2.541   8.123  0.1753  0.7257  0.2498
  186DOPC   H9R22894   7.096   2.546   8.041 -0.4173  0.0959 -0.3237
  186DOPC  C21022895   7.071   2.584   8.244 -0.4943  0.3213 -0.2592
  186DOPC  H10R22896   7.180   2.602   8.252 -0.4825  0.3418 -0.4512
  186DOPC  C21122897   6.987   2.594   8.367 -0.0009 -0.7767  0.1570
  186DOPC  H11R22898   6.882   2.563   8.344  0.1564 -0.2619 -1.3578
  186DOPC  H11S22899   6.963   2.700   8.392 -0.9864 -0.0372 -3.4009
  186DOPC  C21222900   7.044   2.516   8.488  0.5489  0.4136 -0.3892
  186DOPC  H12R22901   7.137   2.565   8.524  1.6802 -1.3831 -0.7355
  186DOPC  H12S22902   7.069   2.413   8.454 -1.7360  0.6411 -3.1943
  186DOPC  C21322903   6.959   2.508   8.615 -0.0506  0.1704  0.6726
  186DOPC  H13R22904   6.867   2.451   8.591  0.0689  0.3686 -0.2729
  186DOPC  H13S22905   6.937   2.611   8.651  0.5206  1.0765 -1.4478
  186DOPC  C21422906   7.028   2.438   8.729  0.4052  0.6879 -0.2075
  186DOPC  H14R22907   7.114   2.498   8.765  0.4599 -0.0338  0.8923
  186DOPC  H14S22908   7.072   2.344   8.688 -0.9873  0.6865 -1.8042
  186DOPC  C21522909   6.944   2.395   8.850  0.7213  0.1340 -0.6456
  186DOPC  H15R22910   6.878   2.312   8.817 -3.7227  3.1851 -0.3094
  186DOPC  H15S22911   6.863   2.467   8.876  0.3230 -0.0078 -1.4902
  186DOPC  C21622912   7.041   2.361   8.963  0.2566 -0.2777  0.6114
  186DOPC  H16R22913   7.076   2.458   9.004 -2.5100  0.7874  0.6261
  186DOPC  H16S22914   7.130   2.307   8.923 -0.8625 -1.2503 -0.6450
  186DOPC  C21722915   6.986   2.279   9.084  0.7481 -0.9478 -1.4599
  186DOPC  H17R22916   6.901   2.339   9.122  1.9185  1.1945 -2.0100
  186DOPC  H17S22917   7.063   2.280   9.164  0.2836 -0.8139 -1.0076
  186DOPC  C21822918   6.940   2.136   9.053  0.0034  0.3319 -0.2193
  186DOPC  H18R22919   7.013   2.090   8.983 -2.4509 -2.3234 -1.2400
  186DOPC  H18S22920   6.849   2.137   8.989 -0.7238  0.7259  0.7798
  186DOPC  H18T22921   6.926   2.076   9.146  0.0932  2.3682  1.1703
  186DOPC   C3322922   7.245   2.182   7.901  0.6557 -0.3416  0.8964
  186DOPC   H3X22923   7.217   2.255   7.822 -0.2215  0.8113  2.2251
  186DOPC   H3Y22924   7.340   2.137   7.865 -0.3301 -0.8728 -1.1851
  186DOPC   C3422925   7.277   2.241   8.036  0.0220 -0.1536 -0.4718
  186DOPC   H4X22926   7.302   2.159   8.106 -0.7685 -0.5986 -0.6980
  186DOPC   H4Y22927   7.191   2.303   8.073 -0.8770 -1.5180 -0.2025
  186DOPC   C3522928   7.408   2.320   8.041  0.3665  0.8765  0.6203
  186DOPC   H5X22929   7.411   2.371   7.942  0.5841  0.0998  0.2182
  186DOPC   H5Y22930   7.491   2.246   8.042 -0.3419  0.0608  0.8508
  186DOPC   C3622931   7.420   2.434   8.146 -0.6026  0.2281  0.0476
  186DOPC   H6X22932   7.522   2.480   8.141 -0.5018  0.0184  0.1435
  186DOPC   H6Y22933   7.351   2.519   8.131 -1.4300  0.0949  2.5538
  186DOPC   C3722934   7.393   2.377   8.286  0.3664 -0.0833 -0.4851
  186DOPC   H7X22935   7.288   2.341   8.288  0.1813  0.3047  2.8416
  186DOPC   H7Y22936   7.455   2.288   8.309  1.6490  1.3831  2.2738
  186DOPC   C3822937   7.422   2.483   8.398 -0.1994  0.0277 -0.0226
  186DOPC   H8X22938   7.370   2.454   8.492 -0.7090  1.0245  0.0077
  186DOPC   H8Y22939   7.381   2.583   8.374  1.5918  0.7708 -0.0991
  186DOPC   C3922940   7.564   2.514   8.427 -0.4128 -0.1187 -0.4422
  186DOPC   H9X22941   7.629   2.495   8.341 -1.6906 -2.1165 -1.0284
  186DOPC  C31022942   7.617   2.540   8.550  0.0718  0.2667 -0.2740
  186DOPC  H10X22943   7.724   2.564   8.550  0.6336 -1.9584  0.5154
  186DOPC  C31122944   7.552   2.537   8.687 -0.7848  0.4784  0.1488
  186DOPC  H11X22945   7.613   2.463   8.743  0.9987  1.8320  0.0886
  186DOPC  H11Y22946   7.444   2.510   8.689 -0.2924 -1.6759 -0.2630
  186DOPC  C31222947   7.566   2.665   8.765  0.2216 -1.0083 -0.1189
  186DOPC  H12X22948   7.515   2.755   8.726 -0.6905 -0.5564  1.9964
  186DOPC  H12Y22949   7.673   2.690   8.781 -0.5205  3.2008 -0.8013
  186DOPC  C31322950   7.519   2.656   8.914 -0.0673  0.3391  0.3730
  186DOPC  H13X22951   7.414   2.621   8.919  0.1385 -0.4184 -0.3970
  186DOPC  H13Y22952   7.574   2.569   8.956  1.4883  0.0087 -2.1380
  186DOPC  C31422953   7.547   2.774   9.000  0.0921 -0.2278 -0.3645
  186DOPC  H14X22954   7.529   2.751   9.107  0.2173 -0.0232 -0.2997
  186DOPC  H14Y22955   7.650   2.812   8.981  0.3412  0.0455  1.4125
  186DOPC  C31522956   7.429   2.873   8.987 -0.1226  0.4263  0.3219
  186DOPC  H15X22957   7.332   2.823   9.003 -1.6202  3.2905  0.8115
  186DOPC  H15Y22958   7.436   2.916   8.885 -1.0822 -1.7273 -0.7029
  186DOPC  C31622959   7.450   2.993   9.085  0.1534 -0.6772 -0.4483
  186DOPC  H16X22960   7.452   2.958   9.191  0.8605 -0.9443 -0.5390
  186DOPC  H16Y22961   7.550   3.031   9.055  0.8933 -2.3592 -0.2751
  186DOPC  C31722962   7.344   3.104   9.088 -0.2690  0.3112  0.1948
  186DOPC  H17X22963   7.322   3.147   8.988 -2.1385  0.6457  0.6968
  186DOPC  H17Y22964   7.247   3.059   9.119 -0.9376  1.0601 -0.7297
  186DOPC  C31822965   7.390   3.205   9.181 -0.9532 -0.4548  0.5975
  186DOPC  H18X22966   7.386   3.184   9.290 -2.1483  1.4959  0.9676
  186DOPC  H18Y22967   7.486   3.244   9.143 -1.6654  0.1949 -0.6060
  186DOPC  H18Z22968   7.317   3.288   9.174 -0.3082  0.0522 -0.3843
  187DOPC     N22969   5.129   0.614   6.952  0.9925 -0.1359 -0.9217
  187DOPC   C1222970   5.272   0.584   6.931 -0.2947  0.0247  0.8163
  187DOPC  H12A22971   5.287   0.578   6.824  1.0444  0.7739  0.9395
  187DOPC  H12B22972   5.292   0.486   6.974 -1.3679  0.0331  1.3776
  187DOPC   C1322973   5.096   0.747   6.884 -0.4294 -0.3870 -0.1955
  187DOPC  H13A22974   4.994   0.776   6.904 -0.4533  0.5886 -1.6075
  187DOPC  H13B22975   5.169   0.816   6.925 -0.5330  0.2938 -1.1228
  187DOPC  H13C22976   5.115   0.736   6.778  2.2567  0.1604  0.1529
  187DOPC   C1422977   5.092   0.627   7.100 -0.6155 -0.1764 -0.1439
  187DOPC  H14A22978   5.155   0.693   7.157 -0.9746 -1.2725  1.6004
  187DOPC  H14B22979   4.991   0.661   7.117 -0.1108  0.9045  0.7760
  187DOPC  H14C22980   5.098   0.528   7.144  0.1593 -0.6416 -1.2679
  187DOPC   C1522981   5.038   0.510   6.895 -0.3228  0.5257 -0.0794
  187DOPC  H15A22982   4.933   0.518   6.918 -0.1890  0.0739  0.7280
  187DOPC  H15B22983   5.063   0.411   6.932  2.2103  0.7637 -0.9543
  187DOPC  H15C22984   5.045   0.497   6.788  1.4004 -0.5151  0.1221
  187DOPC   C1122985   5.378   0.675   6.997  0.3193 -0.0086  0.0016
  187DOPC  H11A22986   5.477   0.636   6.965  2.0575  1.9454  2.6050
  187DOPC  H11B22987   5.375   0.777   6.953 -0.6642  0.0108  0.0949
  187DOPC     P22988   5.445   0.773   7.216 -0.1168 -0.2861  0.2203
  187DOPC   O1322989   5.348   0.886   7.227  0.6336  0.3399 -0.2141
  187DOPC   O1422990   5.576   0.810   7.155 -0.6053  0.2525  0.3282
  187DOPC   O1222991   5.367   0.664   7.137 -0.3293  0.0339 -0.3258
  187DOPC   O1122992   5.466   0.710   7.358 -0.0855  0.0586  0.5648
  187DOPC    C122993   5.592   0.723   7.427 -0.2509 -0.0838  0.1751
  187DOPC    HA22994   5.664   0.791   7.378  0.1084  1.1598  2.3151
  187DOPC    HB22995   5.632   0.621   7.444 -1.8584 -0.8979 -0.5987
  187DOPC    C222996   5.572   0.781   7.566 -0.5047  0.4587  0.3313
  187DOPC    HS22997   5.660   0.746   7.624  1.4216  1.5745 -1.7977
  187DOPC   O2122998   5.454   0.735   7.636 -0.4992  0.4587  0.5264
  187DOPC   C2122999   5.456   0.610   7.685  1.0361  0.8071 -0.0965
  187DOPC   O2223000   5.553   0.535   7.696  0.3834 -0.4585 -0.0803
  187DOPC   C2223001   5.325   0.596   7.758  0.3652 -0.9563 -0.0257
  187DOPC   H2R23002   5.242   0.619   7.689 -0.8207 -1.5405  1.1583
  187DOPC   H2S23003   5.343   0.681   7.828  1.4332 -1.3690  0.2321
  187DOPC    C323004   5.561   0.935   7.548 -0.3235  0.2411 -0.0270
  187DOPC    HX23005   5.475   0.963   7.483 -1.3061 -0.6261  0.8551
  187DOPC    HY23006   5.656   0.958   7.495  0.1049  2.2225  1.4613
  187DOPC   O3123007   5.558   1.005   7.679 -0.3306 -0.0671 -0.0335
  187DOPC   C3123008   5.441   1.062   7.714 -0.1924 -0.3790  0.0365
  187DOPC   O3223009   5.350   1.072   7.637  0.5765 -0.7235  0.0139
  187DOPC   C3223010   5.435   1.122   7.851 -0.4116  0.6125  0.3512
  187DOPC   H2X23011   5.360   1.063   7.908 -2.3642  3.0177  0.4286
  187DOPC   H2Y23012   5.539   1.120   7.892 -0.8322 -1.5360  1.4587
  187DOPC   C2323013   5.290   0.474   7.837  0.2490 -0.0038 -1.0015
  187DOPC   H3R23014   5.370   0.400   7.811  3.4149  3.5005 -2.1974
  187DOPC   H3S23015   5.189   0.434   7.813  0.5118 -0.6624 -1.0649
  187DOPC   C2423016   5.294   0.484   7.992 -0.2929 -0.5883  0.6935
  187DOPC   H4R23017   5.238   0.575   8.021  1.3751  1.3230 -1.7220
  187DOPC   H4S23018   5.400   0.501   8.020 -1.1274 -0.3470  4.0566
  187DOPC   C2523019   5.245   0.355   8.061 -0.0118  0.4337  0.4164
  187DOPC   H5R23020   5.313   0.273   8.032 -0.2643  0.2618  0.3089
  187DOPC   H5S23021   5.156   0.315   8.009  0.0954 -0.3734  0.8502
  187DOPC   C2623022   5.237   0.378   8.213 -0.2006  0.0011 -0.4643
  187DOPC   H6R23023   5.315   0.451   8.244 -2.0796  2.6801 -1.6213
  187DOPC   H6S23024   5.256   0.277   8.255 -1.3954 -0.1744 -0.3003
  187DOPC   C2723025   5.102   0.414   8.267  0.4610 -0.2652 -0.4507
  187DOPC   H7R23026   5.029   0.334   8.243  0.2079  0.0223 -0.6541
  187DOPC   H7S23027   5.065   0.511   8.227  1.8741  0.1761 -0.7401
  187DOPC   C2823028   5.110   0.420   8.425  0.2533 -0.2864  0.5461
  187DOPC   H8R23029   5.192   0.484   8.464  0.5995 -0.0205 -0.5848
  187DOPC   H8S23030   5.135   0.319   8.462  2.3192  0.4998  1.4883
  187DOPC   C2923031   4.984   0.491   8.481  0.6634  0.0692 -0.3360
  187DOPC   H9R23032   4.965   0.596   8.456  0.5577 -0.0960 -0.9888
  187DOPC  C21023033   4.877   0.421   8.526  0.0382  0.4438  0.1902
  187DOPC  H10R23034   4.797   0.484   8.568 -1.1989  0.2159 -1.7099
  187DOPC  C21123035   4.853   0.276   8.563  0.7328  0.0512 -0.1090
  187DOPC  H11R23036   4.832   0.266   8.672  0.9549 -2.2172 -0.2192
  187DOPC  H11S23037   4.945   0.215   8.546  2.1603  2.5898 -2.3133
  187DOPC  C21223038   4.733   0.223   8.487 -0.5364  0.3642 -0.0664
  187DOPC  H12R23039   4.640   0.265   8.530 -0.7153 -0.0210 -0.0685
  187DOPC  H12S23040   4.728   0.114   8.511 -1.7152  0.3674 -0.2628
  187DOPC  C21323041   4.744   0.229   8.335 -1.1766  0.3339  0.8729
  187DOPC  H13R23042   4.819   0.161   8.289 -1.0999 -0.0116  1.4947
  187DOPC  H13S23043   4.772   0.333   8.307 -0.8379 -0.3691 -1.6841
  187DOPC  C21423044   4.616   0.188   8.265  0.2948  0.0126  0.0853
  187DOPC  H14R23045   4.541   0.263   8.298 -1.3250 -2.7075  3.1082
  187DOPC  H14S23046   4.595   0.093   8.318  0.3345  0.8395  1.6257
  187DOPC  C21523047   4.628   0.190   8.113  0.2396  0.1353 -0.1711
  187DOPC  H15R23048   4.729   0.158   8.078  0.5410  2.2010 -1.3607
  187DOPC  H15S23049   4.624   0.299   8.089  0.6214  0.5851  1.6656
  187DOPC  C21623050   4.513   0.105   8.055  0.3370 -0.4974 -0.3784
  187DOPC  H16R23051   4.418   0.157   8.082  0.9280  0.0071  0.7706
  187DOPC  H16S23052   4.515   0.002   8.097 -2.3225  0.4705  2.4878
  187DOPC  C21723053   4.519   0.096   7.901  0.2058  0.3521 -0.4514
  187DOPC  H17R23054   4.621   0.062   7.871  0.6049 -0.1878  1.3657
  187DOPC  H17S23055   4.503   0.197   7.857 -0.6461  0.2039 -0.4966
  187DOPC  C21823056   4.417  -0.008   7.860 -0.0844  0.4725  0.1748
  187DOPC  H18R23057   4.316   0.031   7.886 -0.4905  0.4120 -1.2262
  187DOPC  H18S23058   4.427  -0.109   7.905  0.8900  0.1547 -0.7104
  187DOPC  H18T23059   4.410  -0.015   7.749  0.4539  0.6546  0.1290
  187DOPC   C3323060   5.382   1.267   7.854 -0.1052 -0.7476 -0.3044
  187DOPC   H3X23061   5.272   1.261   7.839 -0.1472 -1.2646  0.1580
  187DOPC   H3Y23062   5.423   1.332   7.774 -0.2446  2.0306  1.7352
  187DOPC   C3423063   5.423   1.333   7.988  0.1751  0.7567 -0.0923
  187DOPC   H4X23064   5.356   1.421   8.000  0.7799  1.1358  0.5563
  187DOPC   H4Y23065   5.530   1.360   7.982 -0.0256  1.8264  0.7791
  187DOPC   C3523066   5.406   1.252   8.116  0.7226  0.4065 -0.1418
  187DOPC   H5X23067   5.477   1.169   8.133  0.9966  0.6142 -0.2710
  187DOPC   H5Y23068   5.303   1.211   8.108 -0.8877  3.6943  1.6781
  187DOPC   C3623069   5.392   1.320   8.255 -0.3950  0.0590  0.5233
  187DOPC   H6X23070   5.305   1.387   8.240  0.2889  0.3089 -3.1244
  187DOPC   H6Y23071   5.364   1.240   8.327  0.1581 -1.9601 -1.3658
  187DOPC   C3723072   5.520   1.387   8.293  0.1976  0.1505 -1.0817
  187DOPC   H7X23073   5.602   1.314   8.280  0.7725  0.2078  1.5694
  187DOPC   H7Y23074   5.531   1.467   8.216 -1.8613  0.4089 -1.1696
  187DOPC   C3823075   5.531   1.431   8.440 -0.1389  0.0803 -0.7065
  187DOPC   H8X23076   5.640   1.439   8.457  0.1163 -0.6519 -1.8837
  187DOPC   H8Y23077   5.504   1.345   8.505  2.7636  0.0035  0.5231
  187DOPC   C3923078   5.453   1.555   8.473  0.4310  0.4954 -0.0004
  187DOPC   H9X23079   5.443   1.625   8.388  1.0329 -0.4841 -0.8989
  187DOPC  C31023080   5.386   1.586   8.589 -0.6400  0.0049  0.6205
  187DOPC  H10X23081   5.317   1.672   8.591 -0.2782  0.2868  2.1279
  187DOPC  C31123082   5.361   1.493   8.707 -0.4938  0.1739 -0.0282
  187DOPC  H11X23083   5.418   1.398   8.713 -0.2740  0.3489  0.8068
  187DOPC  H11Y23084   5.251   1.479   8.711 -0.1739 -3.5451 -0.8633
  187DOPC  C31223085   5.406   1.558   8.845  0.3981  0.4915  0.4115
  187DOPC  H12X23086   5.343   1.515   8.926 -1.4915  1.6951 -0.3455
  187DOPC  H12Y23087   5.354   1.656   8.845 -1.7029 -0.5265 -2.0445
  187DOPC  C31323088   5.555   1.562   8.863  0.2839 -0.1448  0.3937
  187DOPC  H13X23089   5.593   1.458   8.855 -0.2484 -0.5060  2.1480
  187DOPC  H13Y23090   5.596   1.610   8.772 -0.9350  2.3302  1.0507
  187DOPC  C31423091   5.610   1.619   8.988  0.0808  0.8088 -0.0561
  187DOPC  H14X23092   5.565   1.718   9.011 -0.9641  0.0783  1.1991
  187DOPC  H14Y23093   5.596   1.562   9.082 -0.3171  0.5556 -0.2621
  187DOPC  C31523094   5.763   1.636   8.964  0.4419 -0.2410  0.1340
  187DOPC  H15X23095   5.781   1.712   8.886 -0.9877 -0.1776 -0.1701
  187DOPC  H15Y23096   5.799   1.538   8.927 -2.0185 -0.9606 -0.6065
  187DOPC  C31623097   5.836   1.674   9.100 -0.6120 -0.4544 -0.2146
  187DOPC  H16X23098   5.817   1.591   9.171 -1.2611 -0.1524 -0.0302
  187DOPC  H16Y23099   5.946   1.683   9.087 -0.8293 -0.3236 -2.2787
  187DOPC  C31723100   5.794   1.803   9.164 -0.6742 -0.3827 -0.2934
  187DOPC  H17X23101   5.813   1.884   9.091  1.4506  0.0245  0.6307
  187DOPC  H17Y23102   5.684   1.811   9.174 -0.5593 -0.2161  1.0166
  187DOPC  C31823103   5.864   1.852   9.293  0.2685  0.0507 -0.0047
  187DOPC  H18X23104   5.841   1.778   9.372  0.6321 -1.2542 -1.0789
  187DOPC  H18Y23105   5.972   1.873   9.281 -0.0190  2.2752  0.6950
  187DOPC  H18Z23106   5.816   1.945   9.331  1.6658  0.6849  0.2562
  188DOPC     N23107   0.515   7.330   7.165  0.6032  0.2957  0.1647
  188DOPC   C1223108   0.543   7.346   7.317  0.3995 -0.3939 -0.0808
  188DOPC  H12A23109   0.634   7.292   7.337  1.0297  0.3549 -0.8295
  188DOPC  H12B23110   0.462   7.303   7.374 -0.3704  1.0324 -0.0705
  188DOPC   C1323111   0.497   7.180   7.145 -0.1791 -0.0053  0.2748
  188DOPC  H13A23112   0.419   7.144   7.210  0.2849  1.4893  1.7446
  188DOPC  H13B23113   0.479   7.154   7.042  0.8663  1.4024 -0.2986
  188DOPC  H13C23114   0.589   7.133   7.173  0.0100  1.0655  1.5795
  188DOPC   C1423115   0.634   7.369   7.084  0.1124 -0.0864 -1.4179
  188DOPC  H14A23116   0.714   7.300   7.109  0.4419  0.7992  0.1524
  188DOPC  H14B23117   0.624   7.373   6.977  0.6036  1.2547 -1.4369
  188DOPC  H14C23118   0.670   7.466   7.115  0.4173 -0.7507  0.4610
  188DOPC   C1523119   0.393   7.403   7.113  0.4970  0.3160 -0.7526
  188DOPC  H15A23120   0.397   7.511   7.115  1.5284  0.3313  2.2781
  188DOPC  H15B23121   0.307   7.372   7.170  0.6399  0.1016 -0.6485
  188DOPC  H15C23122   0.372   7.363   7.015  0.7389  2.2353 -1.6139
  188DOPC   C1123123   0.563   7.488   7.380  0.0109  0.3165  0.8543
  188DOPC  H11A23124   0.469   7.546   7.376  0.5833  1.2439  0.6499
  188DOPC  H11B23125   0.598   7.483   7.486  2.4935 -1.8620  0.0600
  188DOPC     P23126   0.819   7.541   7.318  0.2695 -0.0998 -0.2643
  188DOPC   O1323127   0.873   7.564   7.183  0.2394  0.6300  0.0550
  188DOPC   O1423128   0.833   7.406   7.373 -0.2926 -0.9439  0.0666
  188DOPC   O1223129   0.663   7.570   7.308  0.2299 -0.3742 -0.0595
  188DOPC   O1123130   0.863   7.646   7.419 -0.3141 -0.3491  0.0943
  188DOPC    C123131   0.969   7.641   7.518  0.5068  0.4706 -0.2783
  188DOPC    HA23132   1.018   7.739   7.539  2.8090 -0.4413 -1.0615
  188DOPC    HB23133   1.050   7.577   7.477 -0.8605 -0.6517 -1.3361
  188DOPC    C223134   0.916   7.580   7.648  0.1112 -0.0700 -0.6083
  188DOPC    HS23135   0.916   7.469   7.643  1.0218 -0.0764 -0.5672
  188DOPC   O2123136   0.784   7.629   7.683  0.3214  0.3608  0.2410
  188DOPC   C2123137   0.695   7.554   7.730  0.3497  0.2963 -0.6846
  188DOPC   O2223138   0.702   7.434   7.740 -0.8355 -0.1918 -0.1950
  188DOPC   C2223139   0.572   7.639   7.756 -0.0011 -0.1781  0.3978
  188DOPC   H2R23140   0.520   7.629   7.659 -3.4791 -3.4443  2.3315
  188DOPC   H2S23141   0.599   7.744   7.779 -1.9675  0.3496  0.5129
  188DOPC    C323142   1.016   7.615   7.758 -1.2035  0.6761  0.0922
  188DOPC    HX23143   0.990   7.720   7.784  1.1753  1.1307  0.9565
  188DOPC    HY23144   1.119   7.614   7.717 -0.4777  3.2566  1.5609
  188DOPC   O3123145   1.014   7.529   7.873  0.2705 -0.1059 -0.7092
  188DOPC   C3123146   1.054   7.403   7.857  0.2190 -0.0107 -0.0694
  188DOPC   O3223147   1.110   7.361   7.755 -0.3110 -0.2488 -0.4917
  188DOPC   C3223148   1.002   7.312   7.958 -0.5071  0.2865 -0.2831
  188DOPC   H2X23149   1.055   7.340   8.052  1.0644 -1.9425 -0.4328
  188DOPC   H2Y23150   0.896   7.339   7.975 -0.6373 -0.3270 -0.0921
  188DOPC   C2323151   0.483   7.579   7.868  0.2061  0.4663 -0.1358
  188DOPC   H3R23152   0.452   7.476   7.841 -0.5243  0.9962 -1.4530
  188DOPC   H3S23153   0.395   7.646   7.878  0.2799  0.6964 -0.8888
  188DOPC   C2423154   0.539   7.574   8.015 -0.2294  0.5258 -0.1764
  188DOPC   H4R23155   0.622   7.500   8.026  0.4389  1.3691  0.6528
  188DOPC   H4S23156   0.462   7.536   8.085 -0.9676  3.9957  1.0990
  188DOPC   C2523157   0.598   7.707   8.059  0.4855  0.1520  0.4449
  188DOPC   H5R23158   0.522   7.788   8.051  1.1470  0.6915 -0.7535
  188DOPC   H5S23159   0.684   7.739   7.995  0.8848 -1.9621 -0.1364
  188DOPC   C2623160   0.648   7.717   8.205  0.6320  0.9976 -0.1133
  188DOPC   H6R23161   0.759   7.712   8.207  0.5891  0.0605  0.7090
  188DOPC   H6S23162   0.609   7.624   8.251 -0.4494  0.8008 -1.4037
  188DOPC   C2723163   0.611   7.847   8.280  0.5855 -0.2759  0.3364
  188DOPC   H7R23164   0.502   7.842   8.303  0.6287 -0.5764  0.4857
  188DOPC   H7S23165   0.621   7.931   8.208  0.4872 -0.1526  0.4655
  188DOPC   C2823166   0.680   7.870   8.414 -0.3294 -0.5920  0.2833
  188DOPC   H8R23167   0.666   7.785   8.485  2.0685 -1.8622 -0.6494
  188DOPC   H8S23168   0.643   7.962   8.465  1.3112 -0.7422  1.8141
  188DOPC   C2923169   0.827   7.897   8.405 -0.2482  0.3304  0.2143
  188DOPC   H9R23170   0.873   7.874   8.308 -0.7620  2.7196 -0.6717
  188DOPC  C21023171   0.906   7.976   8.483 -0.5728  0.6010 -0.5522
  188DOPC  H10R23172   1.009   7.998   8.449 -0.8164  1.3478 -0.8330
  188DOPC  C21123173   0.872   8.048   8.611  0.1982  0.7083  0.0309
  188DOPC  H11R23174   0.765   8.078   8.614  0.4123  1.5382 -0.2953
  188DOPC  H11S23175   0.926   8.139   8.646  0.3577  0.3552  0.7286
  188DOPC  C21223176   0.889   7.945   8.723  0.0532  0.6954  0.1229
  188DOPC  H12R23177   0.838   7.848   8.700  0.7571  0.4177 -0.2880
  188DOPC  H12S23178   0.846   7.979   8.819 -0.8988 -0.7792  0.2648
  188DOPC  C21323179   1.033   7.911   8.766 -1.0450 -0.0694  0.2770
  188DOPC  H13R23180   1.083   8.007   8.792  2.2722 -1.9084  1.2370
  188DOPC  H13S23181   1.082   7.873   8.673 -1.5789  2.6326 -1.2298
  188DOPC  C21423182   1.060   7.810   8.880  0.1064 -0.9912 -0.0019
  188DOPC  H14R23183   1.169   7.800   8.901  0.2036 -0.4077 -0.2137
  188DOPC  H14S23184   1.033   7.708   8.844 -1.9306  0.3028 -2.5059
  188DOPC  C21523185   0.979   7.831   9.006  0.0128  0.0669  1.0023
  188DOPC  H15R23186   0.996   7.740   9.068  0.5945  0.7368  1.8447
  188DOPC  H15S23187   0.871   7.831   8.980  0.3368  0.1630 -0.4209
  188DOPC  C21623188   1.009   7.961   9.090  0.4457  0.0758  0.6182
  188DOPC  H16R23189   1.021   8.051   9.026  0.0459 -0.6192 -0.4656
  188DOPC  H16S23190   1.103   7.942   9.146  1.0544  0.1865 -0.3436
  188DOPC  C21723191   0.889   7.994   9.181 -0.0920  0.6998 -0.7879
  188DOPC  H17R23192   0.792   7.993   9.127  0.0590 -0.9441 -1.1037
  188DOPC  H17S23193   0.908   8.092   9.229  1.7580 -0.2038  0.4461
  188DOPC  C21823194   0.879   7.890   9.297  0.1167 -0.2569  0.1585
  188DOPC  H18R23195   0.977   7.857   9.335 -1.9821 -6.0478  1.6499
  188DOPC  H18S23196   0.825   7.797   9.270 -3.0645  1.6086 -0.5226
  188DOPC  H18T23197   0.827   7.940   9.381 -2.2417 -0.6342 -0.9604
  188DOPC   C3323198   1.023   7.157   7.924  0.7279  0.3861  0.4918
  188DOPC   H3X23199   1.128   7.137   7.894  1.1681  1.9295  0.8905
  188DOPC   H3Y23200   0.950   7.116   7.851  1.6615 -1.1642  0.3763
  188DOPC   C3423201   0.998   7.076   8.055 -1.3322  0.1346 -1.5562
  188DOPC   H4X23202   0.889   7.089   8.073 -1.1968  0.4553 -0.9482
  188DOPC   H4Y23203   1.059   7.124   8.134 -3.7158  1.0610 -0.1559
  188DOPC   C3523204   1.044   6.925   8.050  0.2939 -0.6793 -0.0985
  188DOPC   H5X23205   1.155   6.930   8.051  0.3111 -0.7391 -0.9212
  188DOPC   H5Y23206   1.010   6.885   7.952 -0.6151 -2.3386  0.8513
  188DOPC   C3623207   0.977   6.830   8.156 -0.1230 -0.2505  0.2742
  188DOPC   H6X23208   1.031   6.839   8.252  0.4469  0.2832 -0.0871
  188DOPC   H6Y23209   0.874   6.865   8.180 -0.2332  0.0244 -0.5484
  188DOPC   C3723210   0.965   6.680   8.119 -0.5002 -0.4540 -0.4625
  188DOPC   H7X23211   0.902   6.616   8.185 -0.9566  1.4724  1.0647
  188DOPC   H7Y23212   0.934   6.673   8.013 -2.1732 -1.6341  0.0544
  188DOPC   C3823213   1.107   6.617   8.146 -0.0274  0.0814  0.8101
  188DOPC   H8X23214   1.129   6.626   8.254  1.1614 -0.4176  0.6287
  188DOPC   H8Y23215   1.180   6.684   8.094 -0.2873 -1.0391 -1.1102
  188DOPC   C3923216   1.122   6.475   8.091  0.2778 -1.0622 -0.2497
  188DOPC   H9X23217   1.062   6.469   7.999  1.2671  1.9780 -1.2118
  188DOPC  C31023218   1.198   6.378   8.129  0.1484  0.0894  0.2326
  188DOPC  H10X23219   1.190   6.287   8.067 -0.1523  0.0521  0.3227
  188DOPC  C31123220   1.294   6.380   8.241 -0.1323  0.0547 -0.0329
  188DOPC  H11X23221   1.329   6.483   8.259  0.5995  0.1121 -1.5556
  188DOPC  H11Y23222   1.378   6.309   8.222 -1.5671 -1.8081  0.3098
  188DOPC  C31223223   1.235   6.332   8.373 -0.6495  0.2175  0.2142
  188DOPC  H12X23224   1.170   6.243   8.359  0.0202 -0.0997 -1.1010
  188DOPC  H12Y23225   1.173   6.415   8.412 -0.3499  0.7330 -0.3836
  188DOPC  C31323226   1.355   6.314   8.466 -0.3450 -0.6978 -0.2711
  188DOPC  H13X23227   1.422   6.234   8.427 -0.9003 -2.1555  1.5883
  188DOPC  H13Y23228   1.413   6.409   8.465 -0.6674 -0.5022 -0.9009
  188DOPC  C31423229   1.315   6.292   8.611  0.8637  0.3004 -0.4504
  188DOPC  H14X23230   1.403   6.293   8.678  0.4516 -3.7020  0.4467
  188DOPC  H14Y23231   1.249   6.371   8.654  1.4025  0.0192  0.9543
  188DOPC  C31523232   1.240   6.157   8.625  0.5028 -0.5490 -0.2344
  188DOPC  H15X23233   1.320   6.081   8.606  0.1029 -0.8805 -0.6285
  188DOPC  H15Y23234   1.163   6.153   8.545  0.0091 -0.6182  0.2390
  188DOPC  C31623235   1.179   6.134   8.758 -0.2570  0.3216  0.2092
  188DOPC  H16X23236   1.174   6.023   8.753 -1.1425  0.3988 -2.5446
  188DOPC  H16Y23237   1.241   6.168   8.844  1.6335 -0.4655 -0.7714
  188DOPC  C31723238   1.035   6.173   8.749  0.4468  1.0244  0.8810
  188DOPC  H17X23239   1.025   6.264   8.686  2.9127  0.6135 -0.2200
  188DOPC  H17Y23240   0.982   6.093   8.693  1.2517  0.8948  0.2882
  188DOPC  C31823241   0.960   6.193   8.879 -0.3960 -0.4651  0.0150
  188DOPC  H18X23242   0.850   6.204   8.872 -0.5075 -1.8632 -0.7066
  188DOPC  H18Y23243   0.983   6.102   8.937 -3.9394 -2.2179 -1.0731
  188DOPC  H18Z23244   1.001   6.283   8.930 -1.9007 -0.8967  2.1401
  189DOPC     N23245   3.835   6.196   6.693 -0.0963  0.2108  0.6553
  189DOPC   C1223246   3.911   6.210   6.824  0.5577  0.2890 -0.5322
  189DOPC  H12A23247   3.905   6.310   6.863 -0.7603 -0.9429  2.8305
  189DOPC  H12B23248   4.017   6.197   6.808  0.5619  0.6722 -0.8379
  189DOPC   C1323249   3.867   6.306   6.598  0.1000 -0.7406 -0.0776
  189DOPC  H13A23250   3.973   6.311   6.575  0.4965 -0.0436  1.6854
  189DOPC  H13B23251   3.815   6.301   6.504 -2.4258  1.5427  1.0558
  189DOPC  H13C23252   3.832   6.398   6.641 -0.3248 -0.2986 -1.3286
  189DOPC   C1423253   3.681   6.202   6.713  0.6404  0.3900  0.3498
  189DOPC  H14A23254   3.646   6.299   6.744 -3.6687 -0.8653  0.0923
  189DOPC  H14B23255   3.618   6.167   6.632  0.3097  0.7311  0.4533
  189DOPC  H14C23256   3.665   6.143   6.801 -2.9499  1.2364  0.4210
  189DOPC   C1523257   3.863   6.061   6.633 -0.2480  0.6016 -0.7184
  189DOPC  H15A23258   3.969   6.049   6.622  0.0174  1.5512  0.4885
  189DOPC  H15B23259   3.826   6.053   6.532  1.0608  1.5878 -1.2973
  189DOPC  H15C23260   3.841   5.977   6.698  0.4013 -0.2929 -1.6245
  189DOPC   C1123261   3.874   6.115   6.945 -0.0596 -0.8215 -0.6853
  189DOPC  H11A23262   3.941   6.133   7.032 -0.1402  0.8686 -0.9492
  189DOPC  H11B23263   3.773   6.143   6.983  0.6472 -2.2864  2.6185
  189DOPC     P23264   3.792   5.862   6.983 -0.1159  0.2272  0.0448
  189DOPC   O1323265   3.831   5.727   6.942 -0.0892 -0.2597 -0.2173
  189DOPC   O1423266   3.647   5.886   6.955  0.2997 -0.1011  0.3615
  189DOPC   O1223267   3.877   5.976   6.910  0.4078 -0.2985 -0.0672
  189DOPC   O1123268   3.818   5.879   7.144  0.0407 -0.6471  0.0785
  189DOPC    C123269   3.929   5.810   7.199  0.3734  0.0952  0.2175
  189DOPC    HA23270   4.018   5.814   7.133 -0.5626  0.6076 -1.0580
  189DOPC    HB23271   3.899   5.704   7.217  0.4227 -0.0621 -0.5982
  189DOPC    C223272   3.979   5.867   7.338  0.3182 -0.4694  0.3896
  189DOPC    HS23273   4.039   5.786   7.384  0.6927 -1.0140 -1.0248
  189DOPC   O2123274   3.858   5.897   7.409 -0.4310 -0.2939 -0.2243
  189DOPC   C2123275   3.788   5.786   7.449  0.4403  0.3144  0.6032
  189DOPC   O2223276   3.830   5.673   7.453 -0.3396 -0.4341 -0.1931
  189DOPC   C2223277   3.651   5.832   7.501  0.1126 -0.3250  0.0343
  189DOPC   H2R23278   3.579   5.814   7.418  0.9834  0.0851 -0.8233
  189DOPC   H2S23279   3.659   5.939   7.530 -0.2351 -0.0318 -0.8984
  189DOPC    C323280   4.083   5.983   7.340 -0.7256  0.5819 -0.0220
  189DOPC    HX23281   4.036   6.073   7.294  0.2131  1.0757 -0.0483
  189DOPC    HY23282   4.178   5.960   7.287 -0.3610 -0.5845  1.1031
  189DOPC   O3123283   4.125   6.012   7.473 -0.1250 -0.0080 -0.6705
  189DOPC   C3123284   4.056   6.091   7.552  0.1636 -0.1624 -0.0277
  189DOPC   O3223285   3.963   6.158   7.521  0.4103  0.4666  0.1472
  189DOPC   C3223286   4.112   6.092   7.694  0.2154 -0.2375 -0.3796
  189DOPC   H2X23287   4.223   6.093   7.684  0.3593 -3.1733  0.1617
  189DOPC   H2Y23288   4.064   6.179   7.743 -1.6158 -1.1700 -0.4578
  189DOPC   C2323289   3.609   5.758   7.632 -0.0962  0.0484  0.5261
  189DOPC   H3R23290   3.654   5.656   7.629 -1.3732 -0.5607  0.9988
  189DOPC   H3S23291   3.499   5.740   7.635 -0.2334  0.9086  0.7876
  189DOPC   C2423292   3.668   5.818   7.762  0.4108 -0.2323  0.4643
  189DOPC   H4R23293   3.778   5.817   7.772  0.4382  1.4967  0.5584
  189DOPC   H4S23294   3.644   5.746   7.843 -0.5717 -1.2868 -0.7111
  189DOPC   C2523295   3.604   5.958   7.810 -0.8048 -0.1699 -0.7116
  189DOPC   H5R23296   3.494   5.963   7.826 -0.2771  1.9915  3.9124
  189DOPC   H5S23297   3.639   6.041   7.745 -0.9661  0.3542 -0.1337
  189DOPC   C2623298   3.675   5.986   7.946 -0.3479 -1.3197 -0.4363
  189DOPC   H6R23299   3.784   5.982   7.924  0.5763 -0.6303  3.2134
  189DOPC   H6S23300   3.653   5.900   8.013  0.0642 -1.2046 -0.1465
  189DOPC   C2723301   3.629   6.113   8.029 -0.3496 -0.2628  0.0045
  189DOPC   H7R23302   3.688   6.113   8.123 -0.2298 -2.3768 -0.0056
  189DOPC   H7S23303   3.529   6.076   8.059 -0.4166 -1.6439 -1.6905
  189DOPC   C2823304   3.635   6.248   7.946 -0.3215 -0.1712 -0.5128
  189DOPC   H8R23305   3.604   6.322   8.023  0.2855 -1.3873  0.9741
  189DOPC   H8S23306   3.560   6.234   7.866  0.0165  1.2553 -1.1098
  189DOPC   C2923307   3.769   6.279   7.885 -0.3241 -0.1713  0.2467
  189DOPC   H9R23308   3.794   6.217   7.798 -1.1370 -0.3358  0.1246
  189DOPC  C21023309   3.863   6.365   7.935  0.2779  0.1843  0.5232
  189DOPC  H10R23310   3.961   6.356   7.886  2.0726 -0.3939  3.8992
  189DOPC  C21123311   3.844   6.451   8.053  0.0307  0.0855 -0.4616
  189DOPC  H11R23312   3.741   6.494   8.048 -0.2118 -0.5204 -0.7705
  189DOPC  H11S23313   3.917   6.534   8.058  0.3164 -0.1074 -1.2603
  189DOPC  C21223314   3.856   6.368   8.183  0.0666  0.4547  0.2295
  189DOPC  H12R23315   3.959   6.325   8.180  0.3411  1.0347  1.0774
  189DOPC  H12S23316   3.789   6.280   8.178  0.4164  0.2106 -0.2553
  189DOPC  C21323317   3.833   6.445   8.315 -0.3344 -0.1076  0.5822
  189DOPC  H13R23318   3.826   6.363   8.390 -0.9830 -0.8758 -0.2798
  189DOPC  H13S23319   3.733   6.493   8.306  0.6345  2.1270  1.2798
  189DOPC  C21423320   3.949   6.542   8.339  0.0432 -0.4336  0.2787
  189DOPC  H14R23321   3.951   6.625   8.265 -1.2351 -0.6820 -0.0619
  189DOPC  H14S23322   4.047   6.490   8.338  0.0602 -0.4142  0.6797
  189DOPC  C21523323   3.955   6.595   8.485  0.0749 -0.2036 -0.3054
  189DOPC  H15R23324   4.054   6.645   8.496  0.5374 -1.2692  0.5041
  189DOPC  H15S23325   3.955   6.508   8.554  0.0512 -0.8846 -1.1467
  189DOPC  C21623326   3.847   6.692   8.521  0.6127 -0.3251 -0.5761
  189DOPC  H16R23327   3.749   6.642   8.508  0.9898 -1.2879  0.1960
  189DOPC  H16S23328   3.842   6.789   8.466 -0.2360  1.1624  1.9350
  189DOPC  C21723329   3.859   6.743   8.676  0.7557  0.2213  0.0804
  189DOPC  H17R23330   3.803   6.839   8.680 -0.1465 -0.3240  1.3818
  189DOPC  H17S23331   3.965   6.764   8.700  0.6077  1.6689 -0.4623
  189DOPC  C21823332   3.804   6.637   8.774  0.3755 -0.6430  0.3865
  189DOPC  H18R23333   3.712   6.590   8.735  1.1731 -1.2155 -0.8870
  189DOPC  H18S23334   3.780   6.680   8.873 -1.3317 -1.6119  0.4246
  189DOPC  H18T23335   3.872   6.550   8.783  0.8573 -0.2714  0.4372
  189DOPC   C3323336   4.081   5.960   7.772 -0.5580  0.5116 -0.0467
  189DOPC   H3X23337   4.144   5.874   7.739 -0.3650  0.0463  1.4566
  189DOPC   H3Y23338   3.979   5.922   7.749  0.3689 -1.4838 -1.1912
  189DOPC   C3423339   4.089   5.984   7.923 -0.9676  0.0220 -0.0581
  189DOPC   H4X23340   4.015   6.060   7.955 -0.5405  0.2640  0.3811
  189DOPC   H4Y23341   4.190   6.020   7.952 -0.2112 -2.1498  0.1930
  189DOPC   C3523342   4.062   5.864   8.008  0.3017 -0.7684  0.6922
  189DOPC   H5X23343   4.156   5.804   8.004 -0.5977 -2.1736 -0.0607
  189DOPC   H5Y23344   3.976   5.808   7.965  0.7666  0.6814 -2.4257
  189DOPC   C3623345   4.020   5.890   8.155 -0.0709  0.2477 -0.1694
  189DOPC   H6X23346   4.107   5.932   8.209  0.1464 -0.5521  0.1054
  189DOPC   H6Y23347   3.939   5.967   8.151 -1.8545 -1.3628  2.2788
  189DOPC   C3723348   3.964   5.772   8.240 -0.1216 -0.6400  0.0563
  189DOPC   H7X23349   4.008   5.680   8.196 -1.1768 -0.7660 -0.7655
  189DOPC   H7Y23350   4.008   5.786   8.341  0.1269 -1.0403  0.0103
  189DOPC   C3823351   3.815   5.753   8.224 -0.6010 -0.5878  0.3005
  189DOPC   H8X23352   3.796   5.718   8.121  2.0522 -1.7445  0.1226
  189DOPC   H8Y23353   3.765   5.853   8.227 -0.5436 -0.5524  0.0738
  189DOPC   C3923354   3.764   5.660   8.332 -0.3791 -0.1805 -0.5837
  189DOPC   H9X23355   3.827   5.575   8.361  0.9985  0.9112 -0.2154
  189DOPC  C31023356   3.646   5.682   8.396  0.1639  0.7188  0.1606
  189DOPC  H10X23357   3.608   5.600   8.459  0.8930 -1.7230 -2.3443
  189DOPC  C31123358   3.537   5.787   8.385 -0.3964  0.2940 -0.1910
  189DOPC  H11X23359   3.498   5.799   8.281 -0.6113 -0.7734 -0.2464
  189DOPC  H11Y23360   3.590   5.882   8.404 -2.6049  1.7867 -1.1086
  189DOPC  C31223361   3.415   5.759   8.475 -0.2872  0.3640  0.0549
  189DOPC  H12X23362   3.443   5.744   8.582 -0.1183  0.0735 -0.0310
  189DOPC  H12Y23363   3.368   5.669   8.432  0.3796  0.4582 -0.9035
  189DOPC  C31323364   3.314   5.872   8.480 -0.0571 -0.6668  0.4848
  189DOPC  H13X23365   3.366   5.961   8.521  0.5692 -0.9910  0.4085
  189DOPC  H13Y23366   3.296   5.907   8.376  0.4358 -0.1434  0.5743
  189DOPC  C31423367   3.179   5.832   8.543  0.4101  0.6472 -0.1327
  189DOPC  H14X23368   3.139   5.754   8.476 -1.8247  1.3385  0.3183
  189DOPC  H14Y23369   3.201   5.788   8.643  0.1643  0.7580 -0.0298
  189DOPC  C31523370   3.080   5.945   8.539 -0.6117 -0.8575 -0.8959
  189DOPC  H15X23371   2.982   5.894   8.527 -1.5723  1.0046 -1.3303
  189DOPC  H15Y23372   3.088   6.008   8.447  0.3256  2.1667  1.1151
  189DOPC  C31623373   3.098   6.037   8.661  0.1462  0.2335  0.3966
  189DOPC  H16X23374   3.122   5.982   8.754  1.2724  1.5418  0.9060
  189DOPC  H16Y23375   3.187   6.103   8.646  1.2846 -1.1493  0.8068
  189DOPC  C31723376   2.971   6.118   8.693  0.1274  0.3170  0.7023
  189DOPC  H17X23377   2.952   6.185   8.607 -0.1031 -0.0046  0.4982
  189DOPC  H17Y23378   2.889   6.044   8.690  0.6828 -0.2971  0.1900
  189DOPC  C31823379   2.982   6.186   8.836  0.5018 -0.1744 -0.4589
  189DOPC  H18X23380   3.060   6.265   8.836  0.9357 -0.5832 -1.4362
  189DOPC  H18Y23381   2.882   6.231   8.855  0.2052 -1.1726  0.4506
  189DOPC  H18Z23382   2.996   6.101   8.906 -3.6173 -1.5782 -1.0406
  190DOPC     N23383   1.778   6.791   6.718 -0.9089  0.5282  0.4071
  190DOPC   C1223384   1.878   6.804   6.832 -0.3925 -0.1843  0.9273
  190DOPC  H12A23385   1.833   6.873   6.901  0.1035 -0.2942  1.3619
  190DOPC  H12B23386   1.969   6.845   6.793 -1.3083 -0.7395 -2.1037
  190DOPC   C1323387   1.825   6.701   6.612  0.2333 -0.4207  0.6878
  190DOPC  H13A23388   1.753   6.697   6.531 -1.5694  0.1163  2.1772
  190DOPC  H13B23389   1.924   6.725   6.578 -0.4591  2.6199  0.5557
  190DOPC  H13C23390   1.840   6.600   6.646  1.6822 -0.1131  1.0208
  190DOPC   C1423391   1.768   6.926   6.656 -0.4714 -0.1056 -0.1634
  190DOPC  H14A23392   1.858   6.967   6.612 -2.0293  2.8423 -0.8431
  190DOPC  H14B23393   1.697   6.927   6.575  0.8115 -0.8992 -1.3381
  190DOPC  H14C23394   1.734   6.994   6.732  1.8780  0.6838  0.2700
  190DOPC   C1523395   1.639   6.741   6.755 -0.1812  1.1942  0.1975
  190DOPC  H15A23396   1.578   6.711   6.670 -1.6653  2.1266  0.8928
  190DOPC  H15B23397   1.580   6.812   6.811 -0.9467  0.2876  0.5807
  190DOPC  H15C23398   1.649   6.653   6.817  3.9320  0.4412 -1.2321
  190DOPC   C1123399   1.907   6.682   6.918  0.3115  0.4923  0.2389
  190DOPC  H11A23400   1.939   6.595   6.857 -2.2323  0.0957 -0.6515
  190DOPC  H11B23401   1.991   6.706   6.987 -1.9331 -0.0397  3.4158
  190DOPC     P23402   1.756   6.743   7.120 -0.0273  0.1023  0.0269
  190DOPC   O1323403   1.623   6.711   7.170  0.0890 -0.0468  0.9646
  190DOPC   O1423404   1.760   6.882   7.072  0.0171  0.0562  0.0764
  190DOPC   O1223405   1.786   6.646   6.994 -0.3118 -0.3369  0.1701
  190DOPC   O1123406   1.877   6.715   7.226 -0.4628  0.3094  0.8964
  190DOPC    C123407   1.904   6.576   7.252 -0.0844  0.4908  0.4116
  190DOPC    HA23408   2.008   6.544   7.228  0.2019  1.2549  0.6208
  190DOPC    HB23409   1.829   6.505   7.210  1.0956  0.2604 -1.4152
  190DOPC    C223410   1.899   6.560   7.408 -0.4298 -0.5183 -0.2633
  190DOPC    HS23411   1.831   6.641   7.443 -1.1839 -0.7536 -1.1550
  190DOPC   O2123412   2.030   6.584   7.453 -0.5331  0.8743  0.1011
  190DOPC   C2123413   2.053   6.655   7.557  0.2255  0.0709  0.3143
  190DOPC   O2223414   1.966   6.713   7.621  0.4890  0.9443  0.6971
  190DOPC   C2223415   2.201   6.667   7.579  0.4961  0.3008 -0.5297
  190DOPC   H2R23416   2.209   6.777   7.588  0.7074  0.1401  2.3727
  190DOPC   H2S23417   2.259   6.630   7.492  4.0791  0.7042  1.4980
  190DOPC    C323418   1.831   6.426   7.446  0.5240 -0.3841 -0.4249
  190DOPC    HX23419   1.866   6.361   7.362 -3.0944  0.1152 -2.5293
  190DOPC    HY23420   1.721   6.420   7.438  0.4489 -0.1153  0.3156
  190DOPC   O3123421   1.884   6.369   7.565 -0.4387 -0.3012 -0.0800
  190DOPC   C3123422   1.822   6.404   7.675  0.1638 -0.1304  0.1860
  190DOPC   O3223423   1.749   6.505   7.693 -0.3147  0.1377 -0.6875
  190DOPC   C3223424   1.858   6.310   7.784  0.3589  0.7454  0.3077
  190DOPC   H2X23425   1.850   6.206   7.746 -2.9015 -0.0716  2.7756
  190DOPC   H2Y23426   1.963   6.337   7.813  0.5085  1.0241 -0.4749
  190DOPC   C2323427   2.251   6.610   7.714 -0.4357 -0.3848 -0.1075
  190DOPC   H3R23428   2.205   6.656   7.804 -1.3568 -1.7897  0.1740
  190DOPC   H3S23429   2.359   6.634   7.716 -0.1839 -1.4163 -0.6542
  190DOPC   C2423430   2.222   6.455   7.719  0.0694  0.6145  0.4818
  190DOPC   H4R23431   2.257   6.419   7.620  1.0488 -1.7552  1.6024
  190DOPC   H4S23432   2.114   6.438   7.734 -0.0699  0.8507 -0.2065
  190DOPC   C2523433   2.303   6.372   7.813  0.1545  0.4090 -0.1886
  190DOPC   H5R23434   2.411   6.372   7.785  0.2590  0.7688  0.2059
  190DOPC   H5S23435   2.272   6.265   7.811  0.6134  0.2848 -1.7504
  190DOPC   C2623436   2.306   6.424   7.960  0.1420  0.3908  0.7492
  190DOPC   H6R23437   2.327   6.533   7.964 -1.6304  0.8381 -1.0165
  190DOPC   H6S23438   2.375   6.365   8.025 -0.3332  0.1856  1.0717
  190DOPC   C2723439   2.162   6.409   8.021  0.2319  0.3549 -0.4867
  190DOPC   H7R23440   2.136   6.305   7.991 -0.6873  1.1721 -2.7443
  190DOPC   H7S23441   2.096   6.478   7.966  0.6653  1.4598  0.3510
  190DOPC   C2823442   2.157   6.442   8.171  0.4270 -0.4488  0.0495
  190DOPC   H8R23443   2.054   6.481   8.186  0.5584  1.1692 -2.5671
  190DOPC   H8S23444   2.225   6.531   8.178 -2.1816  1.9667 -2.4106
  190DOPC   C2923445   2.192   6.325   8.252  0.4190 -0.0413  0.2696
  190DOPC   H9R23446   2.155   6.227   8.218 -0.0730 -1.0087  3.2463
  190DOPC  C21023447   2.280   6.325   8.354 -0.5308 -0.2843 -0.1496
  190DOPC  H10R23448   2.306   6.232   8.406  0.0290  0.3916  0.8114
  190DOPC  C21123449   2.345   6.445   8.418 -0.8690 -0.2242 -0.3057
  190DOPC  H11R23450   2.281   6.532   8.444  1.0779  1.4635 -0.8726
  190DOPC  H11S23451   2.423   6.489   8.352 -1.8656  1.7054 -0.2760
  190DOPC  C21223452   2.415   6.416   8.558  0.0867 -0.1137  0.1961
  190DOPC  H12R23453   2.500   6.347   8.538  0.9146  0.8209  0.4300
  190DOPC  H12S23454   2.343   6.370   8.630  2.2951 -2.2281  1.1919
  190DOPC  C21323455   2.476   6.542   8.620 -0.3611  0.2298  0.0984
  190DOPC  H13R23456   2.397   6.615   8.646 -0.7677  0.0073 -0.4677
  190DOPC  H13S23457   2.556   6.588   8.559 -2.6201  1.1698 -2.3911
  190DOPC  C21423458   2.552   6.506   8.749 -0.0198 -0.1845  0.0257
  190DOPC  H14R23459   2.634   6.437   8.721  0.0051  0.1782 -0.8363
  190DOPC  H14S23460   2.480   6.468   8.824 -0.3759  1.1314  0.3805
  190DOPC  C21523461   2.607   6.635   8.809 -0.0698 -0.1066 -0.9182
  190DOPC  H15R23462   2.526   6.704   8.841 -1.2424 -2.6330  2.1081
  190DOPC  H15S23463   2.672   6.686   8.735 -0.3912 -1.6120 -2.2843
  190DOPC  C21623464   2.678   6.606   8.937  0.2690 -0.2012 -0.1115
  190DOPC  H16R23465   2.757   6.533   8.909  0.5720 -0.2483  0.8103
  190DOPC  H16S23466   2.615   6.543   9.004 -0.7056 -0.8484 -1.5863
  190DOPC  C21723467   2.751   6.723   9.007  0.2257  0.2879  0.7455
  190DOPC  H17R23468   2.787   6.783   8.920 -0.0017 -1.5368 -0.6613
  190DOPC  H17S23469   2.835   6.675   9.061  0.7011 -1.8452 -1.6703
  190DOPC  C21823470   2.660   6.799   9.101 -0.1460 -0.1654 -0.3892
  190DOPC  H18R23471   2.627   6.738   9.188  0.7596  0.3745  0.3589
  190DOPC  H18S23472   2.575   6.858   9.061 -1.1453 -2.3299 -1.6450
  190DOPC  H18T23473   2.731   6.876   9.138 -0.8267  0.6607 -0.7694
  190DOPC   C3323474   1.774   6.337   7.909  0.4106  0.6451  0.1216
  190DOPC   H3X23475   1.669   6.307   7.888  0.3339 -0.1379  1.4942
  190DOPC   H3Y23476   1.775   6.443   7.940  0.8954  1.8162 -3.4415
  190DOPC   C3423477   1.817   6.249   8.031  0.0971 -0.0097 -0.2582
  190DOPC   H4X23478   1.925   6.246   8.055 -0.3525  1.2951  2.2704
  190DOPC   H4Y23479   1.784   6.144   8.012  3.0392 -1.1855  0.6360
  190DOPC   C3523480   1.745   6.302   8.161 -0.7043 -0.7811  0.3558
  190DOPC   H5X23481   1.634   6.297   8.171 -0.7370  0.4951  0.8066
  190DOPC   H5Y23482   1.750   6.413   8.164 -1.3683 -0.6252 -1.9398
  190DOPC   C3623483   1.812   6.252   8.292  0.0934  0.1490  0.7880
  190DOPC   H6X23484   1.801   6.142   8.292  3.7645 -0.3551 -0.3399
  190DOPC   H6Y23485   1.920   6.275   8.288  0.6009 -2.1996 -1.0794
  190DOPC   C3723486   1.749   6.325   8.412  0.0271 -0.0319  0.0750
  190DOPC   H7X23487   1.756   6.436   8.401  2.3059 -0.0600  0.6090
  190DOPC   H7Y23488   1.640   6.303   8.416 -0.3000  1.1805 -1.2182
  190DOPC   C3823489   1.829   6.287   8.541  0.3405 -0.0949  0.0099
  190DOPC   H8X23490   1.921   6.346   8.520 -0.3873  1.3662  0.7221
  190DOPC   H8Y23491   1.843   6.177   8.536 -1.3507 -0.3017 -0.7560
  190DOPC   C3923492   1.757   6.332   8.665  0.0171  0.2604 -0.2691
  190DOPC   H9X23493   1.661   6.286   8.692  0.0562  0.5361  0.3664
  190DOPC  C31023494   1.804   6.433   8.740  1.1123  0.6986  0.2504
  190DOPC  H10X23495   1.746   6.451   8.831  0.8606  0.5936  0.1127
  190DOPC  C31123496   1.938   6.492   8.725 -0.4049 -1.1718 -0.7595
  190DOPC  H11X23497   1.927   6.565   8.642 -3.0494 -1.8342 -1.0715
  190DOPC  H11Y23498   2.015   6.421   8.688  2.1632  0.5715  0.8621
  190DOPC  C31223499   1.994   6.577   8.850  0.2660  0.5376  0.2638
  190DOPC  H12X23500   1.982   6.513   8.940  2.8226 -1.2152 -0.5315
  190DOPC  H12Y23501   1.938   6.671   8.871  0.6737  0.6728  0.7762
  190DOPC  C31323502   2.140   6.626   8.838 -0.5195  0.0468  0.0425
  190DOPC  H13X23503   2.193   6.539   8.793 -0.9803  0.3924 -1.2124
  190DOPC  H13Y23504   2.144   6.711   8.766 -0.8268 -1.3205 -1.6552
  190DOPC  C31423505   2.212   6.649   8.965  0.4086  0.1626 -0.7057
  190DOPC  H14X23506   2.308   6.704   8.951  0.5398  0.8063  2.2166
  190DOPC  H14Y23507   2.145   6.708   9.031  0.7234  2.2868 -2.1666
  190DOPC  C31523508   2.238   6.520   9.046  0.0601 -1.3746 -0.5782
  190DOPC  H15X23509   2.287   6.453   8.972 -0.1987  0.3695 -2.4276
  190DOPC  H15Y23510   2.137   6.482   9.073 -2.3446  3.6127 -1.4340
  190DOPC  C31623511   2.326   6.562   9.155 -0.3690 -1.0588 -0.0306
  190DOPC  H16X23512   2.410   6.620   9.112 -1.4422 -0.6055 -1.6222
  190DOPC  H16Y23513   2.266   6.626   9.224 -0.8471 -1.0851 -0.4137
  190DOPC  C31723514   2.387   6.439   9.221  0.1720 -0.2198 -0.1623
  190DOPC  H17X23515   2.303   6.373   9.250 -0.5008  0.9180  0.5831
  190DOPC  H17Y23516   2.450   6.383   9.149  0.4699  1.3361 -1.1491
  190DOPC  C31823517   2.476   6.470   9.346  0.4185  0.2118  0.3327
  190DOPC  H18X23518   2.564   6.525   9.306  1.3803 -1.0415  0.6847
  190DOPC  H18Y23519   2.429   6.541   9.417  0.3148  0.3036  0.1751
  190DOPC  H18Z23520   2.509   6.384   9.408  3.8840  0.0635 -1.4568
  191DOPC     N23521   4.648   6.142   6.860 -0.3832 -0.0655  0.2175
  191DOPC   C1223522   4.638   6.242   6.746  0.0394 -0.7339  0.6251
  191DOPC  H12A23523   4.618   6.188   6.655 -0.3036 -2.2080  1.5352
  191DOPC  H12B23524   4.735   6.287   6.730 -0.7638  0.4160 -1.3701
  191DOPC   C1323525   4.761   6.051   6.823 -0.4876  0.0576 -0.5573
  191DOPC  H13A23526   4.733   5.998   6.734  0.1386  2.2918 -2.1795
  191DOPC  H13B23527   4.845   6.113   6.794 -1.7387  1.6447 -0.8916
  191DOPC  H13C23528   4.793   5.997   6.911 -3.1017 -1.1155 -0.2465
  191DOPC   C1423529   4.512   6.079   6.880  0.2532 -0.4489 -0.0548
  191DOPC  H14A23530   4.443   6.157   6.909  1.1209 -0.1751  1.3890
  191DOPC  H14B23531   4.477   6.038   6.786  0.1631  0.4810 -0.4332
  191DOPC  H14C23532   4.511   5.995   6.949 -1.1022  0.2530  0.8360
  191DOPC   C1523533   4.681   6.221   6.981 -0.0481  0.0492  0.2053
  191DOPC  H15A23534   4.608   6.299   6.999  1.4825  1.5029  0.2840
  191DOPC  H15B23535   4.780   6.262   6.978 -0.7411  2.2194  2.9014
  191DOPC  H15C23536   4.674   6.155   7.066 -0.6273 -0.1186  0.0343
  191DOPC   C1123537   4.542   6.365   6.760  0.0747 -0.2000  0.7355
  191DOPC  H11A23538   4.592   6.460   6.789 -0.7509  0.5930 -0.3212
  191DOPC  H11B23539   4.524   6.390   6.653 -0.9984  3.0930  1.5558
  191DOPC     P23540   4.363   6.453   6.922  0.5465  0.0611 -0.3928
  191DOPC   O1323541   4.214   6.434   6.921 -0.2717  0.1194  0.2146
  191DOPC   O1423542   4.426   6.583   6.903  0.4749 -0.2943  0.5291
  191DOPC   O1223543   4.419   6.344   6.820 -0.1807  0.4724  0.6049
  191DOPC   O1123544   4.417   6.396   7.063 -0.2614  0.3804 -0.2291
  191DOPC    C123545   4.420   6.488   7.167 -0.0644 -1.1710 -0.4813
  191DOPC    HA23546   4.317   6.508   7.203  0.9911 -1.8521  3.3086
  191DOPC    HB23547   4.476   6.582   7.146 -0.4105  0.1248  3.5435
  191DOPC    C223548   4.502   6.435   7.287 -0.5850  0.5207  0.3129
  191DOPC    HS23549   4.607   6.418   7.255 -0.8089 -1.9855  0.7170
  191DOPC   O2123550   4.440   6.316   7.339 -0.2367 -0.2781  0.0107
  191DOPC   C2123551   4.508   6.202   7.336 -0.0991  0.0405  0.9516
  191DOPC   O2223552   4.616   6.185   7.279 -0.1407  0.0016  0.6675
  191DOPC   C2223553   4.444   6.104   7.422  0.2213 -0.1924 -0.1675
  191DOPC   H2R23554   4.431   6.004   7.375 -0.3892 -0.4271  0.4764
  191DOPC   H2S23555   4.341   6.141   7.442  2.1151  5.0436  1.6877
  191DOPC    C323556   4.508   6.542   7.400 -0.3588  0.0177 -0.3501
  191DOPC    HX23557   4.408   6.589   7.409 -0.2005  0.2984 -0.0199
  191DOPC    HY23558   4.576   6.624   7.369  1.3278 -0.3558  2.0741
  191DOPC   O3123559   4.557   6.484   7.520 -0.2496 -0.7862  0.0260
  191DOPC   C3123560   4.669   6.533   7.567 -0.7204  0.4518 -0.2644
  191DOPC   O3223561   4.752   6.608   7.513 -0.4760  0.0343 -0.2761
  191DOPC   C3223562   4.687   6.472   7.701 -0.3231 -0.8087 -0.8465
  191DOPC   H2X23563   4.595   6.413   7.722  0.3042 -1.4787  0.1095
  191DOPC   H2Y23564   4.771   6.400   7.695 -0.5429 -0.9606 -2.9675
  191DOPC   C2323565   4.519   6.086   7.558 -0.3632 -0.7931  0.3631
  191DOPC   H3R23566   4.465   6.006   7.614 -0.8264 -0.2896  0.6449
  191DOPC   H3S23567   4.511   6.183   7.612  1.6576 -0.4758  0.1636
  191DOPC   C2423568   4.663   6.034   7.548 -0.2749  0.0727  0.9047
  191DOPC   H4R23569   4.720   6.092   7.473  2.2319 -2.4582  0.6599
  191DOPC   H4S23570   4.657   5.929   7.512 -1.2797  1.1735 -2.4589
  191DOPC   C2523571   4.739   6.032   7.680 -0.4250  0.0349  0.2672
  191DOPC   H5R23572   4.686   5.965   7.752  1.7674 -1.4643  0.5950
  191DOPC   H5S23573   4.737   6.135   7.722 -0.3451  0.1598 -0.0387
  191DOPC   C2623574   4.881   5.985   7.670  0.8061  0.0455  0.1016
  191DOPC   H6R23575   4.928   6.075   7.626 -0.3501  0.6824  0.1306
  191DOPC   H6S23576   4.882   5.898   7.601 -0.8961  0.3432 -0.3264
  191DOPC   C2723577   4.968   5.962   7.798 -0.7617 -0.7504  0.2952
  191DOPC   H7R23578   4.930   5.875   7.855  1.6951 -1.7071  0.6267
  191DOPC   H7S23579   4.962   6.054   7.860  0.6665  1.7447 -2.9589
  191DOPC   C2823580   5.117   5.936   7.772 -0.7132 -0.2825 -0.6995
  191DOPC   H8R23581   5.128   5.877   7.679  1.3936 -2.6131  0.9170
  191DOPC   H8S23582   5.158   5.876   7.855 -1.5854 -0.8299 -0.6517
  191DOPC   C2923583   5.195   6.065   7.746 -0.1457 -0.3288 -0.1643
  191DOPC   H9R23584   5.201   6.093   7.639  0.1959 -0.5241 -0.1985
  191DOPC  C21023585   5.249   6.150   7.837  0.1798 -0.0834 -0.5454
  191DOPC  H10R23586   5.316   6.230   7.803  1.7580 -1.1874 -0.1655
  191DOPC  C21123587   5.239   6.120   7.988  0.5587  0.4536 -0.3039
  191DOPC  H11R23588   5.152   6.056   8.013  0.0837  1.3317  0.3350
  191DOPC  H11S23589   5.225   6.214   8.045 -3.5297 -0.2925  0.2043
  191DOPC  C21223590   5.366   6.037   8.031 -0.0351  0.0393 -0.0606
  191DOPC  H12R23591   5.458   6.096   8.014  0.8790 -0.4694  2.5707
  191DOPC  H12S23592   5.372   5.941   7.975  0.2825 -1.9972  3.1421
  191DOPC  C21323593   5.370   6.003   8.181 -0.0875 -0.4800 -0.4244
  191DOPC  H13R23594   5.454   5.931   8.193  1.9695  1.9361  0.6069
  191DOPC  H13S23595   5.281   5.944   8.210  0.0405 -0.0825  0.8306
  191DOPC  C21423596   5.411   6.133   8.261 -0.2771  0.4445  0.2146
  191DOPC  H14R23597   5.361   6.216   8.206 -0.3507 -1.7726 -3.3834
  191DOPC  H14S23598   5.521   6.148   8.261  0.0305 -1.3971  1.8824
  191DOPC  C21523599   5.350   6.133   8.400 -0.6433 -0.0929 -0.4926
  191DOPC  H15R23600   5.401   6.045   8.444  3.5068  1.5425 -1.5066
  191DOPC  H15S23601   5.239   6.136   8.403 -0.7698  1.1046  5.1477
  191DOPC  C21623602   5.400   6.255   8.478 -0.1846  0.0203 -0.5802
  191DOPC  H16R23603   5.351   6.342   8.430  0.1263  0.4383 -0.1429
  191DOPC  H16S23604   5.508   6.276   8.468  0.5167 -2.3777  0.9907
  191DOPC  C21723605   5.378   6.264   8.629  0.4881 -0.8651  0.2764
  191DOPC  H17R23606   5.408   6.366   8.662 -1.9228  0.1716 -0.4812
  191DOPC  H17S23607   5.438   6.186   8.680  1.3158  0.0644  0.7487
  191DOPC  C21823608   5.236   6.232   8.686  0.1415 -0.0075  0.2988
  191DOPC  H18R23609   5.204   6.135   8.642  0.0663  0.7201 -1.3310
  191DOPC  H18S23610   5.161   6.302   8.643 -0.0969 -0.5273 -0.1467
  191DOPC  H18T23611   5.233   6.243   8.796 -0.6024  1.5958  0.1509
  191DOPC   C3323612   4.730   6.569   7.817 -0.1847  0.0453 -0.0940
  191DOPC   H3X23613   4.648   6.640   7.842  0.2757  0.7475 -0.5422
  191DOPC   H3Y23614   4.821   6.618   7.778  0.1745  0.4457  1.2078
  191DOPC   C3423615   4.770   6.500   7.952  0.0007  0.4436  0.4101
  191DOPC   H4X23616   4.856   6.435   7.928 -0.8363  0.3100 -2.6973
  191DOPC   H4Y23617   4.684   6.445   7.998 -1.8260  1.8268 -1.1586
  191DOPC   C3523618   4.819   6.598   8.059  0.0144  0.4208 -0.0232
  191DOPC   H5X23619   4.770   6.696   8.041  0.2208  0.1996 -2.0633
  191DOPC   H5Y23620   4.923   6.621   8.030 -0.0740 -0.4341 -1.0677
  191DOPC   C3623621   4.808   6.555   8.201 -0.1457  0.4583 -0.5144
  191DOPC   H6X23622   4.841   6.630   8.275 -0.7607 -0.9174  1.2452
  191DOPC   H6Y23623   4.699   6.547   8.223 -0.1474 -2.0179 -1.0682
  191DOPC   C3723624   4.863   6.410   8.226  0.0048  0.3221  0.1240
  191DOPC   H7X23625   4.823   6.341   8.150  0.4906  2.0053 -1.7319
  191DOPC   H7Y23626   4.974   6.407   8.217 -0.0786 -1.1683 -0.6651
  191DOPC   C3823627   4.824   6.359   8.369 -0.3048 -0.5529  0.1176
  191DOPC   H8X23628   4.713   6.360   8.384 -0.4884  0.4913 -1.1722
  191DOPC   H8Y23629   4.855   6.437   8.442 -0.5251 -0.9896  0.6896
  191DOPC   C3923630   4.862   6.221   8.400  0.4537 -0.2713 -0.0694
  191DOPC   H9X23631   4.850   6.153   8.315  0.4452  1.4716 -1.5315
  191DOPC  C31023632   4.895   6.174   8.520 -0.4787 -0.3845  0.5420
  191DOPC  H10X23633   4.961   6.087   8.523  1.6291  1.1099  0.1352
  191DOPC  C31123634   4.896   6.259   8.648  0.0876  0.9258 -0.1316
  191DOPC  H11X23635   4.788   6.288   8.648 -0.3694 -0.6876 -0.4899
  191DOPC  H11Y23636   4.961   6.348   8.634  2.1939 -0.6623 -0.9554
  191DOPC  C31223637   4.916   6.186   8.783 -0.8790  0.4372  0.2040
  191DOPC  H12X23638   4.981   6.096   8.778 -0.2036  0.8790  0.8293
  191DOPC  H12Y23639   4.817   6.137   8.794 -1.8803  2.3716  0.2488
  191DOPC  C31323640   4.970   6.273   8.895 -0.6474 -0.3040 -0.0307
  191DOPC  H13X23641   5.063   6.330   8.871  0.1425 -0.1313  3.0300
  191DOPC  H13Y23642   4.903   6.362   8.901  0.4865  0.4688  2.8665
  191DOPC  C31423643   4.961   6.214   9.028 -0.5054  0.4435 -0.5275
  191DOPC  H14X23644   4.862   6.167   9.047 -0.5838  1.5827  2.3490
  191DOPC  H14Y23645   5.042   6.138   9.037  0.4870  1.5736  0.5534
  191DOPC  C31523646   4.967   6.313   9.144 -0.0334  0.3915  0.1539
  191DOPC  H15X23647   4.908   6.405   9.124 -2.9631 -1.3761  0.0918
  191DOPC  H15Y23648   5.070   6.344   9.172 -0.5851  1.0230  1.6055
  191DOPC  C31623649   4.910   6.249   9.277  0.2010  0.0047  0.2545
  191DOPC  H16X23650   4.799   6.242   9.281  0.2258 -0.0334  1.9333
  191DOPC  H16Y23651   4.943   6.145   9.297  0.7110  0.4633  2.0385
  191DOPC  C31723652   4.952   6.328   9.410  0.7427  0.0620  0.5273
  191DOPC  H17X23653   4.921   6.433   9.389 -0.7582 -0.8216 -2.1785
  191DOPC  H17Y23654   4.896   6.288   9.497  1.2331  1.2086  1.3932
  191DOPC  C31823655   5.099   6.324   9.455  0.0902  0.3834 -0.1776
  191DOPC  H18X23656   5.173   6.337   9.372  1.7977  0.0906  1.2307
  191DOPC  H18Y23657   5.114   6.411   9.523  0.7365 -0.3490  0.6397
  191DOPC  H18Z23658   5.137   6.231   9.502  3.2823  1.1418 -0.9575
  192DOPC     N23659   0.044   3.647   6.542 -0.0945  0.0130  0.4495
  192DOPC   C1223660   0.144   3.602   6.642 -1.2547 -0.3788 -0.6902
  192DOPC  H12A23661   0.180   3.503   6.619  2.5299  0.2623  1.6402
  192DOPC  H12B23662   0.087   3.582   6.731  0.4082  1.8971  1.0034
  192DOPC   C1323663   0.100   3.658   6.405 -0.2460  0.0187  0.0285
  192DOPC  H13A23664   0.129   3.567   6.355  1.4641  1.4755 -1.8034
  192DOPC  H13B23665   0.024   3.713   6.352 -0.4018  0.3069  0.5467
  192DOPC  H13C23666   0.183   3.727   6.400 -2.0334  2.2545 -0.4062
  192DOPC   C1423667  -0.013   3.779   6.582 -0.3344 -0.0366 -0.1947
  192DOPC  H14A23668   0.064   3.854   6.595  1.8137 -2.5343  3.3294
  192DOPC  H14B23669  -0.088   3.825   6.519 -1.9393  0.4032  1.9002
  192DOPC  H14C23670  -0.048   3.769   6.684  2.1088  0.2495  0.7489
  192DOPC   C1523671  -0.080   3.551   6.531 -0.3528  0.7199  0.0273
  192DOPC  H15A23672  -0.051   3.454   6.492 -0.3021  0.7605 -0.0346
  192DOPC  H15B23673  -0.156   3.595   6.469  0.1338  0.2720 -0.8990
  192DOPC  H15C23674  -0.128   3.536   6.627  0.9867 -1.6694  0.4175
  192DOPC   C1123675   0.263   3.706   6.678 -0.2532  0.0798 -0.4745
  192DOPC  H11A23676   0.335   3.641   6.732 -1.6357 -0.4124  0.8215
  192DOPC  H11B23677   0.309   3.756   6.589 -1.1216  1.4817 -0.1627
  192DOPC     P23678   0.155   3.779   6.905 -0.1075  0.2434 -0.0027
  192DOPC   O1323679   0.237   3.669   6.964 -0.1215 -0.3145 -0.0801
  192DOPC   O1423680   0.007   3.769   6.904 -0.4800  0.0530 -0.0189
  192DOPC   O1223681   0.208   3.810   6.761 -0.4395 -0.3111  1.0419
  192DOPC   O1123682   0.199   3.913   6.974  0.4400  0.2737 -0.5610
  192DOPC    C123683   0.282   3.908   7.090 -0.5875  0.1027 -0.0057
  192DOPC    HA23684   0.328   4.005   7.119 -0.3585 -0.3578  1.2516
  192DOPC    HB23685   0.367   3.837   7.081 -1.4267 -0.8160 -0.9593
  192DOPC    C223686   0.196   3.867   7.210 -0.0535 -0.3729 -0.4378
  192DOPC    HS23687   0.146   3.771   7.184 -2.7788  0.5007  1.1496
  192DOPC   O2123688   0.094   3.974   7.230 -0.4985 -0.6992 -0.2927
  192DOPC   C2123689  -0.030   3.931   7.257 -0.3361  0.4646  0.2127
  192DOPC   O2223690  -0.059   3.815   7.265 -0.1169  0.5271 -0.0566
  192DOPC   C2223691  -0.130   4.045   7.272  0.0248 -0.8051  0.3571
  192DOPC   H2R23692  -0.225   3.992   7.292 -1.2263  0.7374 -1.1600
  192DOPC   H2S23693  -0.139   4.093   7.172 -0.2043 -1.9709 -0.1870
  192DOPC    C323694   0.279   3.862   7.338  0.8983  0.0853  0.1000
  192DOPC    HX23695   0.322   3.964   7.354  0.7214  0.5997 -2.2942
  192DOPC    HY23696   0.361   3.790   7.315  1.0570  0.3483 -0.1717
  192DOPC   O3123697   0.200   3.827   7.455 -0.4090 -0.2473  0.2729
  192DOPC   C3123698   0.270   3.846   7.578  0.2801  0.6000  0.0860
  192DOPC   O3223699   0.382   3.890   7.582  0.5203  0.4737 -0.1905
  192DOPC   C3223700   0.193   3.806   7.699 -0.6917 -0.5273  0.2068
  192DOPC   H2X23701   0.094   3.856   7.696 -0.9074 -0.9071  0.8125
  192DOPC   H2Y23702   0.189   3.695   7.693  0.4362 -0.5149 -1.5056
  192DOPC   C2323703  -0.106   4.137   7.396 -0.8859  0.4995 -0.6243
  192DOPC   H3R23704   0.001   4.145   7.424 -0.7214 -0.3078 -0.9751
  192DOPC   H3S23705  -0.166   4.104   7.484 -0.0148 -0.3613 -0.3355
  192DOPC   C2423706  -0.150   4.280   7.367 -0.4564  0.0254  0.3565
  192DOPC   H4R23707  -0.252   4.289   7.325  0.2771  0.7251 -1.3745
  192DOPC   H4S23708  -0.083   4.334   7.297 -0.5136  0.6732  0.7980
  192DOPC   C2523709  -0.167   4.361   7.497 -0.6270 -0.2127  0.0032
  192DOPC   H5R23710  -0.160   4.468   7.468  1.9325  0.4965  2.8343
  192DOPC   H5S23711  -0.078   4.349   7.562  0.2097 -0.7644 -1.2114
  192DOPC   C2623712  -0.290   4.316   7.578  0.2608  0.0597 -0.2181
  192DOPC   H6R23713  -0.263   4.232   7.646 -0.7335 -0.7180 -0.7662
  192DOPC   H6S23714  -0.358   4.264   7.508  0.2354 -1.9776  1.2091
  192DOPC   C2723715  -0.355   4.423   7.664  0.1565  0.0056 -0.1554
  192DOPC   H7R23716  -0.404   4.484   7.585 -1.5697 -1.6706 -0.4671
  192DOPC   H7S23717  -0.275   4.476   7.718  2.6914 -1.3469 -2.3465
  192DOPC   C2823718  -0.459   4.364   7.761  0.0472 -0.1279 -0.5363
  192DOPC   H8R23719  -0.411   4.371   7.861  0.9866  1.9983 -1.0648
  192DOPC   H8S23720  -0.480   4.258   7.736 -0.5968 -0.0892 -0.1892
  192DOPC   C2923721  -0.595   4.434   7.755  0.1252 -0.0962  0.3431
  192DOPC   H9R23722  -0.621   4.489   7.663 -2.2877 -3.3164 -1.0783
  192DOPC  C21023723  -0.700   4.410   7.841 -0.2380  0.3120 -0.3452
  192DOPC  H10R23724  -0.799   4.456   7.827 -0.3119  0.9904  2.0357
  192DOPC  C21123725  -0.688   4.322   7.965  0.4208 -0.6191  1.3040
  192DOPC  H11R23726  -0.581   4.318   7.993  1.0911  3.5208 -0.0175
  192DOPC  H11S23727  -0.714   4.220   7.928 -0.4102  0.4437 -1.2976
  192DOPC  C21223728  -0.764   4.374   8.094  0.0837 -0.2153 -0.2543
  192DOPC  H12R23729  -0.850   4.433   8.055 -0.5007  0.1219  1.4514
  192DOPC  H12S23730  -0.699   4.443   8.152 -0.8689 -0.7382  1.4885
  192DOPC  C21323731  -0.845   4.266   8.176  0.2645  0.3824 -0.4532
  192DOPC  H13R23732  -0.780   4.197   8.235  0.0590  1.0896  0.6464
  192DOPC  H13S23733  -0.905   4.206   8.105 -0.2751 -0.7052  0.8620
  192DOPC  C21423734  -0.953   4.332   8.268 -0.2649  0.5461  0.5054
  192DOPC  H14R23735  -1.018   4.390   8.200 -0.7857  1.6157  1.8642
  192DOPC  H14S23736  -0.909   4.390   8.352  1.0296 -0.8710  0.8496
  192DOPC  C21523737  -1.037   4.224   8.336  0.1048 -0.3428  0.1739
  192DOPC  H15R23738  -0.964   4.147   8.368  1.7357  0.6616 -0.9603
  192DOPC  H15S23739  -1.103   4.176   8.261 -1.4755  2.8277 -0.6714
  192DOPC  C21623740  -1.132   4.297   8.435  0.9542 -0.8061  0.4384
  192DOPC  H16R23741  -1.210   4.227   8.471 -0.2585  0.5406  0.5012
  192DOPC  H16S23742  -1.191   4.373   8.380 -1.3022 -1.8956  1.2136
  192DOPC  C21723743  -1.074   4.368   8.556 -0.1733  0.2854  0.0064
  192DOPC  H17R23744  -0.974   4.416   8.542 -0.3336  1.5866  2.6217
  192DOPC  H17S23745  -1.045   4.296   8.636  1.4012  1.7799  0.8410
  192DOPC  C21823746  -1.179   4.470   8.608 -0.0567 -0.3025  0.7474
  192DOPC  H18R23747  -1.271   4.415   8.638 -0.2960  0.2723  1.0719
  192DOPC  H18S23748  -1.205   4.551   8.538  1.7675 -0.1038  0.2739
  192DOPC  H18T23749  -1.145   4.509   8.707 -1.8080 -0.0096  1.2710
  192DOPC   C3323750   0.276   3.835   7.825 -0.3142  0.4934 -0.2447
  192DOPC   H3X23751   0.320   3.937   7.835 -0.3285  0.3141  2.0965
  192DOPC   H3Y23752   0.365   3.768   7.822 -2.1204 -2.0031 -0.7070
  192DOPC   C3423753   0.197   3.802   7.951 -0.2999  0.2617  0.5241
  192DOPC   H4X23754   0.169   3.695   7.942  0.4231  0.2055 -1.4757
  192DOPC   H4Y23755   0.108   3.868   7.963 -0.6446  0.2006 -1.3167
  192DOPC   C3523756   0.282   3.819   8.077  0.8435 -0.3864 -0.7347
  192DOPC   H5X23757   0.282   3.927   8.100  2.1470 -0.4272 -0.4462
  192DOPC   H5Y23758   0.389   3.792   8.060  1.1795  0.6417 -0.3197
  192DOPC   C3623759   0.228   3.741   8.200  0.0701 -0.5935  0.5815
  192DOPC   H6X23760   0.176   3.653   8.155 -0.3630  0.2803 -0.6819
  192DOPC   H6Y23761   0.314   3.712   8.263  0.1664 -1.2052  0.1853
  192DOPC   C3723762   0.118   3.822   8.271  0.6063  0.5045 -0.3693
  192DOPC   H7X23763   0.057   3.871   8.193  0.8482 -2.0522 -2.3016
  192DOPC   H7Y23764   0.062   3.743   8.326  2.2454  0.1966  0.9407
  192DOPC   C3823765   0.177   3.927   8.371  0.1018  0.1989 -0.4843
  192DOPC   H8X23766   0.089   3.989   8.397 -0.8895 -2.2426  2.5274
  192DOPC   H8Y23767   0.238   3.996   8.307  1.7782 -1.0308 -0.2853
  192DOPC   C3923768   0.258   3.882   8.493 -0.1227 -0.5952  0.0784
  192DOPC   H9X23769   0.367   3.888   8.477  0.6992  1.0525  4.6192
  192DOPC  C31023770   0.217   3.853   8.620 -0.9422 -0.4247  0.3256
  192DOPC  H10X23771   0.294   3.819   8.691  1.7182  2.8047 -0.7737
  192DOPC  C31123772   0.073   3.856   8.673  0.5377 -0.4603 -0.3474
  192DOPC  H11X23773  -0.002   3.891   8.599  0.3553 -0.1770 -0.0377
  192DOPC  H11Y23774   0.051   3.924   8.758 -2.0665  0.0308 -1.3261
  192DOPC  C31223775   0.018   3.717   8.707 -0.2414 -0.1401  0.4618
  192DOPC  H12X23776   0.083   3.676   8.788  1.4324  2.0195  0.2957
  192DOPC  H12Y23777   0.040   3.649   8.622 -1.9948 -0.9679  0.6259
  192DOPC  C31323778  -0.132   3.716   8.740 -0.0303  0.2471 -0.1792
  192DOPC  H13X23779  -0.160   3.611   8.762  2.5497 -0.8989 -1.7934
  192DOPC  H13Y23780  -0.159   3.770   8.833 -0.1266  1.3181 -0.8097
  192DOPC  C31423781  -0.215   3.770   8.624  0.8616 -0.1566 -0.1108
  192DOPC  H14X23782  -0.213   3.880   8.615 -1.0309 -0.2452 -2.3834
  192DOPC  H14Y23783  -0.172   3.732   8.529 -0.2392 -0.1127 -0.6332
  192DOPC  C31523784  -0.369   3.731   8.633 -0.4441 -0.3743  0.3939
  192DOPC  H15X23785  -0.414   3.779   8.722 -1.4147 -0.1799 -0.1824
  192DOPC  H15Y23786  -0.375   3.620   8.637  0.8711 -0.4408  0.7423
  192DOPC  C31623787  -0.440   3.783   8.509  0.2924  0.4479  0.3446
  192DOPC  H16X23788  -0.408   3.886   8.482  1.0441  1.0010  3.0039
  192DOPC  H16Y23789  -0.400   3.715   8.431  0.0888 -0.1580  0.7646
  192DOPC  C31723790  -0.598   3.775   8.513  0.1582 -0.1346  0.6983
  192DOPC  H17X23791  -0.627   3.769   8.406 -0.6444  0.2231  0.8859
  192DOPC  H17Y23792  -0.626   3.682   8.567 -0.3326 -0.3721  0.0408
  192DOPC  C31823793  -0.668   3.891   8.588  0.0105 -0.2163 -0.0356
  192DOPC  H18X23794  -0.622   3.903   8.689  1.2926  3.0042 -0.8655
  192DOPC  H18Y23795  -0.647   3.989   8.541 -0.9350 -1.0054 -2.2139
  192DOPC  H18Z23796  -0.778   3.885   8.603 -0.0621  1.0521  0.0345
  193DOPC     N23797   5.903   7.609   7.112 -0.4420  0.4027  0.7839
  193DOPC   C1223798   5.868   7.671   7.243  0.2332 -0.6012 -0.4594
  193DOPC  H12A23799   5.811   7.607   7.309  2.5479 -1.5397  0.7561
  193DOPC  H12B23800   5.803   7.757   7.234  2.6876  1.3624 -0.4397
  193DOPC   C1323801   6.005   7.496   7.128  0.1109  0.2006  0.0269
  193DOPC  H13A23802   5.966   7.422   7.197  0.9071  0.3703  0.6739
  193DOPC  H13B23803   6.019   7.455   7.029  0.1746  0.7713 -0.2062
  193DOPC  H13C23804   6.097   7.521   7.179  0.7000 -2.5310  0.4608
  193DOPC   C1423805   5.947   7.715   7.016  0.2009  0.0425 -0.7226
  193DOPC  H14A23806   5.970   7.672   6.920  2.5647 -1.3208  0.3742
  193DOPC  H14B23807   5.870   7.791   7.012 -0.9846 -1.1492 -1.6487
  193DOPC  H14C23808   6.031   7.771   7.054 -0.0975  0.4759 -0.6926
  193DOPC   C1523809   5.787   7.531   7.060  0.0017 -0.9415 -0.2494
  193DOPC  H15A23810   5.701   7.595   7.043 -1.0203 -2.7842 -2.7961
  193DOPC  H15B23811   5.757   7.478   7.149  3.8947  0.9756  2.4852
  193DOPC  H15C23812   5.808   7.471   6.972 -0.0174  1.6139 -2.1286
  193DOPC   C1123813   5.993   7.722   7.335  0.4135  0.2818  1.0047
  193DOPC  H11A23814   5.960   7.739   7.440  0.5546 -1.6588  1.4021
  193DOPC  H11B23815   6.065   7.638   7.347 -0.0642 -0.0482  1.6319
  193DOPC     P23816   5.971   7.984   7.285 -0.1229  0.2619  0.2131
  193DOPC   O1323817   5.856   7.975   7.192 -0.1896 -0.3708  0.0703
  193DOPC   O1423818   6.050   8.101   7.248 -0.0674  0.0465 -0.3803
  193DOPC   O1223819   6.054   7.839   7.272  0.5504 -0.1770 -0.2746
  193DOPC   O1123820   5.925   7.993   7.438  0.2146  0.2950 -0.4127
  193DOPC    C123821   6.012   8.078   7.522  0.3494 -0.6749  0.5882
  193DOPC    HA23822   5.963   8.083   7.622 -1.9872 -0.2124 -0.5095
  193DOPC    HB23823   6.025   8.179   7.478 -1.5220 -0.9495 -0.6795
  193DOPC    C223824   6.157   8.026   7.553  0.0789 -0.8382  0.2987
  193DOPC    HS23825   6.215   8.037   7.459 -0.5550  0.8940  0.0805
  193DOPC   O2123826   6.148   7.890   7.599 -0.2216  0.1943 -0.5964
  193DOPC   C2123827   6.248   7.809   7.566 -0.0696 -0.2606 -0.4524
  193DOPC   O2223828   6.320   7.823   7.470  0.4052 -0.2990  0.3095
  193DOPC   C2223829   6.251   7.681   7.651  0.6725 -0.2134 -0.1598
  193DOPC   H2R23830   6.204   7.609   7.581  0.6040 -0.4976  0.1790
  193DOPC   H2S23831   6.195   7.690   7.746  1.3710 -0.2446  0.2643
  193DOPC    C323832   6.227   8.103   7.665  0.2279  0.0833  0.7570
  193DOPC    HX23833   6.237   8.208   7.631  0.8449 -0.1339  0.2441
  193DOPC    HY23834   6.329   8.060   7.671 -0.5821 -1.9540  0.8929
  193DOPC   O3123835   6.166   8.086   7.794 -0.0383  0.2790 -0.0014
  193DOPC   C3123836   6.245   8.089   7.899  0.1307  0.4585 -0.5769
  193DOPC   O3223837   6.366   8.106   7.902  0.7634 -0.4108  0.0328
  193DOPC   C3223838   6.160   8.052   8.027 -0.8214 -0.1542  0.6497
  193DOPC   H2X23839   6.073   8.122   8.021 -1.0196 -0.4530 -0.0808
  193DOPC   H2Y23840   6.132   7.945   8.020  0.7798 -0.5380 -0.4212
  193DOPC   C2323841   6.393   7.629   7.684  0.0683  0.2743  0.5254
  193DOPC   H3R23842   6.451   7.636   7.590 -1.1552  1.2686 -0.1706
  193DOPC   H3S23843   6.389   7.521   7.710 -0.0737 -0.1682 -1.2268
  193DOPC   C2423844   6.470   7.716   7.785 -0.2211  0.0065 -0.4348
  193DOPC   H4R23845   6.479   7.819   7.744 -0.6797  0.5477  0.7498
  193DOPC   H4S23846   6.572   7.676   7.804 -0.5129 -1.4474 -1.7536
  193DOPC   C2523847   6.394   7.717   7.920  0.4808 -0.5373 -0.0656
  193DOPC   H5R23848   6.320   7.799   7.922  2.5208  1.5530  4.2670
  193DOPC   H5S23849   6.468   7.761   7.991  1.1902  0.3024 -1.2945
  193DOPC   C2623850   6.332   7.588   7.976  0.1140 -0.5969  0.1108
  193DOPC   H6R23851   6.241   7.564   7.915  0.4328  1.1663 -1.1178
  193DOPC   H6S23852   6.285   7.613   8.074  0.0796  0.1752 -0.0984
  193DOPC   C2723853   6.419   7.469   7.997 -0.3283 -0.3981 -0.1429
  193DOPC   H7R23854   6.508   7.500   8.056 -0.6982 -0.2705  0.3617
  193DOPC   H7S23855   6.443   7.441   7.893  1.3210  1.2500 -0.2359
  193DOPC   C2823856   6.353   7.350   8.074 -0.3448  0.2768  0.2087
  193DOPC   H8R23857   6.315   7.391   8.170  0.3548  0.6309  0.3445
  193DOPC   H8S23858   6.432   7.274   8.094  2.0033  2.5985  0.2576
  193DOPC   C2923859   6.235   7.289   8.001  0.5551  0.0182  0.0417
  193DOPC   H9R23860   6.260   7.259   7.899 -1.0467  0.3212 -0.4592
  193DOPC  C21023861   6.109   7.279   8.049 -0.1621 -0.2887  0.6518
  193DOPC  H10R23862   6.042   7.213   7.992  0.5782 -1.3245  0.9336
  193DOPC  C21123863   6.050   7.342   8.174  0.4705  1.6034  0.0910
  193DOPC  H11R23864   5.941   7.361   8.169 -0.3111 -1.8736  1.2214
  193DOPC  H11S23865   6.105   7.437   8.193  1.4048  0.9999  0.4973
  193DOPC  C21223866   6.049   7.258   8.304 -0.3056  0.3599  0.2369
  193DOPC  H12R23867   6.156   7.234   8.321 -0.3803 -0.2245 -0.0946
  193DOPC  H12S23868   5.999   7.159   8.299  0.8197 -0.2391  0.5104
  193DOPC  C21323869   5.999   7.342   8.428  0.3516 -0.6962  0.2621
  193DOPC  H13R23870   5.889   7.345   8.414  0.3169 -0.6162  0.5512
  193DOPC  H13S23871   6.038   7.445   8.419 -1.8416  0.1715  0.1496
  193DOPC  C21423872   6.031   7.280   8.560 -0.2866  0.3183 -0.1048
  193DOPC  H14R23873   6.141   7.262   8.563 -0.2209  0.7455  0.1171
  193DOPC  H14S23874   6.003   7.173   8.555  0.4659  0.1473 -0.9968
  193DOPC  C21523875   5.963   7.345   8.674  0.0102 -0.2571 -0.0824
  193DOPC  H15R23876   5.959   7.281   8.765 -2.5818 -0.4352 -0.2326
  193DOPC  H15S23877   5.853   7.359   8.670 -0.1971 -0.9232  1.9413
  193DOPC  C21623878   6.026   7.483   8.716 -0.1840  0.5122 -0.5583
  193DOPC  H16R23879   5.980   7.547   8.638 -2.5347 -0.8187 -0.3792
  193DOPC  H16S23880   6.136   7.486   8.706 -0.0172  0.9608  1.1671
  193DOPC  C21723881   5.993   7.529   8.859  0.7007  0.0852  0.2583
  193DOPC  H17R23882   6.047   7.622   8.887  1.9526 -0.9095  1.2938
  193DOPC  H17S23883   6.032   7.453   8.930  0.1394 -0.4443  0.0003
  193DOPC  C21823884   5.836   7.550   8.880 -0.0420  0.1301 -0.2406
  193DOPC  H18R23885   5.786   7.452   8.867 -1.1035  0.8487 -1.9540
  193DOPC  H18S23886   5.806   7.622   8.801  0.7420  2.0611  1.1368
  193DOPC  H18T23887   5.823   7.596   8.980 -0.3275  0.9181 -0.6265
  193DOPC   C3323888   6.238   8.091   8.157  0.3794 -0.6444  0.4958
  193DOPC   H3X23889   6.230   8.200   8.175  2.5732 -0.2177 -0.7332
  193DOPC   H3Y23890   6.345   8.082   8.130  0.0211 -0.5012 -1.0946
  193DOPC   C3423891   6.193   8.011   8.278  0.0489  0.2461  0.6069
  193DOPC   H4X23892   6.284   7.958   8.313  1.9079  2.2856 -0.8523
  193DOPC   H4Y23893   6.112   7.939   8.254  0.5521 -0.6692  1.5454
  193DOPC   C3523894   6.121   8.087   8.394 -0.0950  0.4462  0.3115
  193DOPC   H5X23895   6.030   8.135   8.352 -0.9722 -1.5002 -0.1086
  193DOPC   H5Y23896   6.185   8.170   8.430 -0.4319  1.2496 -0.8832
  193DOPC   C3623897   6.093   7.998   8.515  0.2287 -0.1311 -1.1583
  193DOPC   H6X23898   6.008   7.927   8.504  0.1568 -0.1102 -0.7273
  193DOPC   H6Y23899   6.178   7.928   8.531  0.9188  1.1304  0.9456
  193DOPC   C3723900   6.064   8.077   8.645 -0.1486  0.6986  0.0708
  193DOPC   H7X23901   6.140   8.156   8.661  0.0748  1.0196 -2.2094
  193DOPC   H7Y23902   5.972   8.139   8.646 -1.9855 -1.7661  3.5383
  193DOPC   C3823903   6.042   7.995   8.770  0.3482 -0.4919 -0.6839
  193DOPC   H8X23904   6.054   8.054   8.864 -1.8641 -1.6384  0.4107
  193DOPC   H8Y23905   6.128   7.925   8.772  0.3838 -0.4558  0.8918
  193DOPC   C3923906   5.910   7.918   8.768  0.2070 -0.1527 -0.4564
  193DOPC   H9X23907   5.903   7.850   8.681  0.7312  0.2070 -0.7858
  193DOPC  C31023908   5.806   7.933   8.849  0.1658 -0.2081 -0.4100
  193DOPC  H10X23909   5.716   7.870   8.838 -0.8548  1.2237 -0.5950
  193DOPC  C31123910   5.798   8.026   8.969  0.6115  0.5187  0.1312
  193DOPC  H11X23911   5.693   8.058   8.987  0.7103  1.3376 -0.6725
  193DOPC  H11Y23912   5.847   8.124   8.952  2.2765 -0.1625  0.7797
  193DOPC  C31223913   5.862   7.971   9.094 -0.1168  0.4245 -0.3620
  193DOPC  H12X23914   5.963   7.931   9.076  0.7966  0.5289  3.6904
  193DOPC  H12Y23915   5.807   7.888   9.143  0.2941  0.8529  0.8628
  193DOPC  C31323916   5.885   8.079   9.202  0.5752  0.2870 -0.5833
  193DOPC  H13X23917   5.951   8.161   9.166  0.2248 -0.0792 -2.1537
  193DOPC  H13Y23918   5.787   8.123   9.230  0.1502 -1.4005  0.7707
  193DOPC  C31423919   5.936   8.016   9.329 -0.6282  0.2154 -0.3760
  193DOPC  H14X23920   5.862   7.949   9.379 -1.0146 -0.6427 -2.0262
  193DOPC  H14Y23921   6.026   7.955   9.309  0.6646  2.6882 -2.7180
  193DOPC  C31523922   5.986   8.120   9.432  0.8313  0.6812 -0.5801
  193DOPC  H15X23923   5.909   8.198   9.446  1.5946  1.2230  0.9044
  193DOPC  H15Y23924   6.078   8.180   9.413  1.9350 -0.5990  0.4828
  193DOPC  C31623925   6.006   8.047   9.566 -0.6149  0.2590 -0.0004
  193DOPC  H16X23926   5.913   8.011   9.615 -1.4556  2.0296 -0.2304
  193DOPC  H16Y23927   6.077   7.966   9.541  0.3712  0.6883  1.2895
  193DOPC  C31723928   6.070   8.139   9.681 -0.5201  0.4693  0.4981
  193DOPC  H17X23929   6.095   8.070   9.764 -3.2779 -1.4784 -0.1307
  193DOPC  H17Y23930   6.153   8.199   9.638 -0.4635 -0.6363 -1.0280
  193DOPC  C31823931   5.969   8.243   9.731  0.1511 -0.9963  0.2904
  193DOPC  H18X23932   5.937   8.315   9.653  2.6082 -1.3862 -1.1744
  193DOPC  H18Y23933   5.875   8.190   9.758 -0.6859 -0.6831 -1.7970
  193DOPC  H18Z23934   6.007   8.300   9.818 -2.7223 -0.2915  1.2192
  194DOPC     N23935   1.694   6.990   7.433 -0.0345  0.4132  0.4378
  194DOPC   C1223936   1.832   6.925   7.446 -0.2557  1.2675 -0.4554
  194DOPC  H12A23937   1.852   6.855   7.367  0.5457 -1.6942  2.1520
  194DOPC  H12B23938   1.832   6.869   7.538 -2.1432  2.2121  0.1605
  194DOPC   C1323939   1.592   6.888   7.440 -0.5028  0.4706  1.6131
  194DOPC  H13A23940   1.604   6.832   7.532 -0.0582  0.7836  1.7461
  194DOPC  H13B23941   1.495   6.935   7.437 -0.7207  0.0398 -0.9928
  194DOPC  H13C23942   1.593   6.812   7.363 -2.0231  1.6272  0.3752
  194DOPC   C1423943   1.688   7.059   7.301 -0.5081  0.1386 -0.0594
  194DOPC  H14A23944   1.591   7.106   7.297 -1.1820 -0.9249  2.3362
  194DOPC  H14B23945   1.762   7.139   7.300  2.0915 -2.1310 -0.2429
  194DOPC  H14C23946   1.716   6.993   7.221 -0.2612  0.4164 -0.2059
  194DOPC   C1523947   1.668   7.088   7.537 -0.4833 -0.0071  0.0192
  194DOPC  H15A23948   1.758   7.144   7.557  0.1260 -0.3391 -1.6025
  194DOPC  H15B23949   1.629   7.038   7.624  0.0122 -0.6982 -0.1424
  194DOPC  H15C23950   1.594   7.160   7.504  0.8237  1.1270 -0.5481
  194DOPC   C1123951   1.951   7.023   7.470 -0.0114 -0.3217  1.1072
  194DOPC  H11A23952   2.041   6.962   7.452 -0.9763 -1.9844  1.6882
  194DOPC  H11B23953   1.938   7.097   7.387 -0.5090 -0.1524  1.3259
  194DOPC     P23954   2.031   7.211   7.617 -0.6208  0.4097 -0.3425
  194DOPC   O1323955   1.930   7.315   7.608  0.1557 -0.3462  0.4203
  194DOPC   O1423956   2.152   7.217   7.533  0.2074 -0.3059  0.4158
  194DOPC   O1223957   1.955   7.079   7.602  0.1648  0.6121  0.2106
  194DOPC   O1123958   2.087   7.227   7.767 -0.2026 -0.1184  0.1766
  194DOPC    C123959   2.159   7.108   7.819 -0.7171  0.6010 -0.9358
  194DOPC    HA23960   2.234   7.136   7.896 -1.3883 -1.7349  0.6312
  194DOPC    HB23961   2.221   7.066   7.737  1.2836  2.9086 -0.7447
  194DOPC    C223962   2.059   7.008   7.876 -1.2087  0.3533  0.2623
  194DOPC    HS23963   2.015   6.978   7.779  2.2535 -1.3283 -0.9423
  194DOPC   O2123964   1.965   7.080   7.964  0.3224 -0.0031  0.0818
  194DOPC   C2123965   1.850   7.022   7.985 -0.0559  0.1884 -0.2600
  194DOPC   O2223966   1.811   6.924   7.920 -0.4987  0.0387 -0.1302
  194DOPC   C2223967   1.781   7.089   8.097  0.4251  0.1826 -0.6717
  194DOPC   H2R23968   1.817   7.194   8.096  1.4780 -0.0487  2.2887
  194DOPC   H2S23969   1.814   7.035   8.189 -2.8625 -1.6861 -0.4093
  194DOPC    C323970   2.128   6.882   7.938  0.6245 -0.7273  0.5249
  194DOPC    HX23971   2.221   6.861   7.880 -0.0386  1.5490 -1.5366
  194DOPC    HY23972   2.063   6.795   7.918 -0.9275 -0.0340  2.2430
  194DOPC   O3123973   2.164   6.907   8.074  0.1664  0.6317 -0.3340
  194DOPC   C3123974   2.079   6.849   8.163 -0.3926  0.4521  0.2847
  194DOPC   O3223975   1.970   6.805   8.137  0.2136  0.2630 -0.3734
  194DOPC   C3223976   2.159   6.832   8.295 -0.4630 -0.2536  0.6710
  194DOPC   H2X23977   2.225   6.745   8.275 -2.2199 -1.4051 -0.3863
  194DOPC   H2Y23978   2.224   6.920   8.318  1.1571 -0.9835 -0.8617
  194DOPC   C2323979   1.625   7.091   8.086  0.5481 -0.0609 -0.6071
  194DOPC   H3R23980   1.599   6.983   8.094  0.9605 -0.1686 -0.7025
  194DOPC   H3S23981   1.595   7.128   7.986 -0.6727 -0.6982 -0.4945
  194DOPC   C2423982   1.556   7.175   8.192  0.6656  0.4300  0.0968
  194DOPC   H4R23983   1.450   7.142   8.198  1.3580 -1.8774  0.8844
  194DOPC   H4S23984   1.552   7.283   8.166 -0.6403  0.6395  1.0494
  194DOPC   C2523985   1.619   7.164   8.329  0.6462  0.0179 -0.5092
  194DOPC   H5R23986   1.715   7.220   8.328  0.9575 -0.4342  1.1168
  194DOPC   H5S23987   1.626   7.056   8.356 -0.8786  0.4974  2.0430
  194DOPC   C2623988   1.540   7.229   8.445  0.0393  0.9056  0.3505
  194DOPC   H6R23989   1.441   7.178   8.446  1.1146 -1.3505  1.9617
  194DOPC   H6S23990   1.528   7.335   8.413 -1.5519  0.7263  0.2924
  194DOPC   C2723991   1.613   7.211   8.580 -0.6060 -0.0848 -0.1357
  194DOPC   H7R23992   1.720   7.241   8.573 -0.3756 -0.3673  1.6141
  194DOPC   H7S23993   1.610   7.100   8.592 -3.0350 -0.2699 -1.6699
  194DOPC   C2823994   1.546   7.289   8.696 -0.2162  0.4846  0.4761
  194DOPC   H8R23995   1.601   7.255   8.786 -0.3911  0.8797  0.7342
  194DOPC   H8S23996   1.447   7.239   8.701  0.1151 -0.7488 -2.5631
  194DOPC   C2923997   1.553   7.441   8.687 -0.2200  0.2668 -0.2991
  194DOPC   H9R23998   1.547   7.478   8.584  2.0620  1.8748  0.0610
  194DOPC  C21023999   1.581   7.520   8.783 -0.4479 -0.1999  0.3507
  194DOPC  H10R24000   1.594   7.627   8.762  1.8719 -0.3377  0.8441
  194DOPC  C21124001   1.597   7.480   8.929 -0.3536 -0.0293  0.0418
  194DOPC  H11R24002   1.614   7.576   8.983 -2.8506  0.6791 -0.2828
  194DOPC  H11S24003   1.686   7.420   8.956  0.2487  2.3652  4.3450
  194DOPC  C21224004   1.468   7.417   8.983  0.1651  0.8053 -0.6376
  194DOPC  H12R24005   1.490   7.391   9.089  1.2131  0.3634 -0.9564
  194DOPC  H12S24006   1.436   7.324   8.931 -1.0499  1.4677 -1.1264
  194DOPC  C21324007   1.353   7.514   8.982  0.2687  0.0240 -0.0210
  194DOPC  H13R24008   1.338   7.547   8.877  0.7094 -0.8393 -0.3670
  194DOPC  H13S24009   1.376   7.604   9.044 -2.0752  1.3782 -0.9695
  194DOPC  C21424010   1.230   7.448   9.045  0.0072 -0.4093 -0.1372
  194DOPC  H14R24011   1.234   7.339   9.025  0.2561 -0.2959 -0.7481
  194DOPC  H14S24012   1.143   7.498   8.997 -0.5108  3.7925  4.3747
  194DOPC  C21524013   1.222   7.490   9.194 -0.3339 -0.5767 -0.2574
  194DOPC  H15R24014   1.225   7.601   9.197  1.0709 -0.5979  0.0899
  194DOPC  H15S24015   1.312   7.451   9.247 -1.0717  0.8934  2.2246
  194DOPC  C21624016   1.096   7.450   9.268  0.2546  0.6732 -0.8217
  194DOPC  H16R24017   1.091   7.339   9.275 -1.8714  0.8670  3.5657
  194DOPC  H16S24018   1.004   7.482   9.215 -0.0308 -0.2505 -0.8935
  194DOPC  C21724019   1.093   7.516   9.407  0.2325 -0.4389 -0.3404
  194DOPC  H17R24020   1.088   7.625   9.387 -1.1256 -0.5381 -0.6414
  194DOPC  H17S24021   1.189   7.498   9.460  0.5789 -1.2882 -1.2125
  194DOPC  C21824022   0.975   7.476   9.491  0.1728  0.0419  0.5707
  194DOPC  H18R24023   0.975   7.366   9.505 -0.9442  0.1833  1.9034
  194DOPC  H18S24024   0.880   7.487   9.433  0.7504 -1.7287 -0.8205
  194DOPC  H18T24025   0.961   7.532   9.586 -1.0715  1.7634 -0.5496
  194DOPC   C3324026   2.060   6.810   8.423  0.2189  0.0802  0.2556
  194DOPC   H3X24027   2.120   6.765   8.505  0.9207 -0.5333 -0.5824
  194DOPC   H3Y24028   1.975   6.742   8.399  0.3236 -0.3004  0.9207
  194DOPC   C3424029   2.011   6.946   8.477  0.0746 -0.1159 -1.4466
  194DOPC   H4X24030   1.945   6.988   8.398 -2.1855  1.4109  1.0755
  194DOPC   H4Y24031   2.097   7.016   8.485 -1.2606  1.4179  0.2632
  194DOPC   C3524032   1.936   6.931   8.610 -0.1915 -0.1815  0.7079
  194DOPC   H5X24033   1.939   7.023   8.672 -0.8990  1.4617 -1.5709
  194DOPC   H5Y24034   1.986   6.850   8.668 -0.1188 -0.8446 -0.2503
  194DOPC   C3624035   1.791   6.887   8.581  0.4218 -0.4961  0.0323
  194DOPC   H6X24036   1.736   6.965   8.524 -1.2928 -0.7087  1.3189
  194DOPC   H6Y24037   1.800   6.803   8.508 -3.3036  0.0234 -1.2199
  194DOPC   C3724038   1.700   6.831   8.691 -0.8326  0.5078  0.7936
  194DOPC   H7X24039   1.762   6.785   8.771 -3.7222 -1.7851  1.8769
  194DOPC   H7Y24040   1.648   6.912   8.748  0.9158  1.3779  1.2271
  194DOPC   C3824041   1.595   6.726   8.648  0.0358 -1.1891 -0.1119
  194DOPC   H8X24042   1.513   6.710   8.721 -0.9318 -3.1636 -1.5270
  194DOPC   H8Y24043   1.652   6.631   8.649  1.6506 -0.2419  0.2723
  194DOPC   C3924044   1.534   6.730   8.506  0.0564 -0.1505 -0.6441
  194DOPC   H9X24045   1.588   6.695   8.417 -2.1911 -2.6050 -1.1582
  194DOPC  C31024046   1.414   6.781   8.477 -0.3876 -0.4201  0.1059
  194DOPC  H10X24047   1.388   6.772   8.371  0.7899 -3.8873 -0.0365
  194DOPC  C31124048   1.303   6.823   8.574 -0.6596  1.1189  0.0425
  194DOPC  H11X24049   1.258   6.919   8.543 -0.5358  0.9867 -0.5525
  194DOPC  H11Y24050   1.347   6.821   8.676  0.8572 -0.4587 -0.5790
  194DOPC  C31224051   1.197   6.712   8.584 -0.1076 -0.4483  0.0724
  194DOPC  H12X24052   1.232   6.623   8.641 -0.8599 -0.3338  0.7382
  194DOPC  H12Y24053   1.147   6.677   8.492 -0.4955 -0.8763  0.4384
  194DOPC  C31324054   1.077   6.747   8.670  0.6234  0.0054 -0.2815
  194DOPC  H13X24055   1.112   6.764   8.774 -1.8549  1.6916  0.3506
  194DOPC  H13Y24056   1.010   6.830   8.641  2.2304  1.4944  0.0572
  194DOPC  C31424057   0.985   6.625   8.677  1.2305  0.2383 -0.0319
  194DOPC  H14X24058   0.905   6.640   8.601 -1.1130 -0.2451  2.2153
  194DOPC  H14Y24059   1.028   6.524   8.656 -1.3317 -0.8194 -0.5709
  194DOPC  C31524060   0.913   6.623   8.812 -0.3727 -0.4494 -0.4170
  194DOPC  H15X24061   0.876   6.727   8.829  1.6067  0.4230 -1.0694
  194DOPC  H15Y24062   0.987   6.621   8.894 -2.7011  2.4633  1.9771
  194DOPC  C31624063   0.807   6.513   8.813 -0.0878  0.3794  0.7076
  194DOPC  H16X24064   0.740   6.529   8.726  1.4697 -0.3819 -0.7131
  194DOPC  H16Y24065   0.868   6.427   8.776 -0.6903  0.0021  0.5873
  194DOPC  C31724066   0.736   6.491   8.948  0.0894 -0.0323 -0.0457
  194DOPC  H17X24067   0.663   6.407   8.937 -1.2007  0.6266  2.6020
  194DOPC  H17Y24068   0.819   6.463   9.016 -1.4521 -0.6221  1.6633
  194DOPC  C31824069   0.664   6.626   8.995  0.0358  0.3147 -0.0279
  194DOPC  H18X24070   0.742   6.703   9.005 -0.2101  1.0163 -2.6550
  194DOPC  H18Y24071   0.587   6.648   8.917  1.0860  0.6311 -0.9932
  194DOPC  H18Z24072   0.615   6.612   9.094  0.8343  0.9613  0.4615
  195DOPC     N24073   4.758   6.799   6.819  0.3084 -0.1005  0.2439
  195DOPC   C1224074   4.727   6.651   6.860 -0.1796 -0.5707 -0.3376
  195DOPC  H12A24075   4.761   6.588   6.779  0.2076 -2.1566  0.9999
  195DOPC  H12B24076   4.622   6.644   6.881 -0.2054 -0.6600 -0.4955
  195DOPC   C1324077   4.719   6.903   6.924  0.8148  0.1800 -0.3392
  195DOPC  H13A24078   4.753   6.882   7.024  2.6557  1.2691 -0.6969
  195DOPC  H13B24079   4.752   7.002   6.896  0.5722  0.1147 -0.8632
  195DOPC  H13C24080   4.611   6.908   6.924  0.7124 -1.5709  0.0037
  195DOPC   C1424081   4.685   6.835   6.695 -0.3340 -1.0796 -0.3688
  195DOPC  H14A24082   4.716   6.929   6.652 -1.6890 -0.3427  0.2080
  195DOPC  H14B24083   4.679   6.762   6.615  1.2638 -0.4580 -1.0948
  195DOPC  H14C24084   4.585   6.857   6.729 -0.1597 -0.5687 -0.1795
  195DOPC   C1524085   4.907   6.821   6.791  0.8550  0.3720  0.5614
  195DOPC  H15A24086   4.937   6.767   6.703 -1.8372 -0.4560  0.0549
  195DOPC  H15B24087   4.962   6.782   6.875  1.1083  0.1992  0.3150
  195DOPC  H15C24088   4.923   6.926   6.769  1.4188  0.2264  0.2488
  195DOPC   C1124089   4.788   6.595   6.994  1.1920  0.0686  0.0393
  195DOPC  H11A24090   4.739   6.650   7.078 -0.1084 -1.0782  0.0495
  195DOPC  H11B24091   4.742   6.495   7.004  0.4948  0.2766 -0.9951
  195DOPC     P24092   5.003   6.475   6.940 -0.2459 -0.1516  0.2720
  195DOPC   O1324093   5.148   6.480   6.963  0.0097  0.1588 -0.1298
  195DOPC   O1424094   4.959   6.463   6.802 -0.5608  0.5628  0.8040
  195DOPC   O1224095   4.927   6.600   7.011  0.2123  0.4535  0.4492
  195DOPC   O1124096   4.946   6.354   7.023  0.2744 -0.3582 -0.9871
  195DOPC    C124097   5.029   6.269   7.098 -0.0797 -0.0923  0.3445
  195DOPC    HA24098   5.117   6.242   7.036 -0.3835  0.4452 -0.3239
  195DOPC    HB24099   4.970   6.176   7.114 -2.3011  1.5084  2.1131
  195DOPC    C224100   5.074   6.323   7.236 -0.5772  0.1703 -0.1575
  195DOPC    HS24101   5.125   6.421   7.223  0.3630 -0.3620 -0.5691
  195DOPC   O2124102   5.160   6.233   7.310  0.3550 -0.6438 -0.1036
  195DOPC   C2124103   5.291   6.248   7.288 -0.1734 -0.1713 -0.5664
  195DOPC   O2224104   5.341   6.333   7.210  0.5266 -0.1331  0.4546
  195DOPC   C2224105   5.374   6.160   7.385  0.5813 -0.3527  0.2162
  195DOPC   H2R24106   5.354   6.055   7.356  1.3033  0.1212 -2.1389
  195DOPC   H2S24107   5.332   6.166   7.488 -3.6015  0.9449 -1.3572
  195DOPC    C324108   4.951   6.353   7.332  0.0492  0.1037  0.7117
  195DOPC    HX24109   4.880   6.268   7.341  1.4888 -1.6828 -2.7701
  195DOPC    HY24110   4.901   6.438   7.280  0.5371 -0.7493 -1.2569
  195DOPC   O3124111   4.993   6.396   7.466  0.3241 -0.0518 -0.3214
  195DOPC   C3124112   5.039   6.517   7.473 -1.0465 -0.6921 -0.4782
  195DOPC   O3224113   5.052   6.600   7.385 -0.0247  0.5542 -0.2364
  195DOPC   C3224114   5.082   6.543   7.619  0.1088  0.1742  0.5510
  195DOPC   H2X24115   5.047   6.645   7.644  0.8279  0.9154 -1.3204
  195DOPC   H2Y24116   5.025   6.479   7.690  2.7202 -1.1379  1.5681
  195DOPC   C2324117   5.521   6.198   7.372  0.1286 -0.0546  0.1997
  195DOPC   H3R24118   5.556   6.216   7.269  0.9947 -0.0125  0.4903
  195DOPC   H3S24119   5.575   6.104   7.396 -1.1331 -0.5538  1.2380
  195DOPC   C2424120   5.585   6.318   7.444 -0.4178 -0.0492  0.2462
  195DOPC   H4R24121   5.548   6.414   7.400 -0.2709  0.6843  1.6599
  195DOPC   H4S24122   5.690   6.325   7.408 -0.7818  0.3361 -0.7877
  195DOPC   C2524123   5.566   6.333   7.590  0.1469  0.1517  1.0486
  195DOPC   H5R24124   5.561   6.229   7.628  2.4474 -0.1794  0.6258
  195DOPC   H5S24125   5.474   6.383   7.627  0.1223 -0.4724  1.8516
  195DOPC   C2624126   5.676   6.399   7.669  0.0115  0.5917 -0.6857
  195DOPC   H6R24127   5.697   6.504   7.637  2.2051  1.0713  2.0256
  195DOPC   H6S24128   5.763   6.335   7.644 -1.5023 -3.0693  2.5259
  195DOPC   C2724129   5.648   6.391   7.822  0.0002  0.1106 -0.2969
  195DOPC   H7R24130   5.586   6.298   7.827 -2.3545  1.6444  0.7362
  195DOPC   H7S24131   5.572   6.463   7.859  0.0970 -0.6856  1.5714
  195DOPC   C2824132   5.761   6.382   7.920 -0.1096 -0.7359  0.3105
  195DOPC   H8R24133   5.824   6.296   7.891  0.1275 -0.1501 -0.9533
  195DOPC   H8S24134   5.721   6.368   8.023 -0.7669 -2.5053 -0.1520
  195DOPC   C2924135   5.852   6.508   7.908  0.2447  0.1357  0.5960
  195DOPC   H9R24136   5.924   6.509   7.824 -0.5205  1.3880 -0.0674
  195DOPC  C21024137   5.844   6.610   7.990 -0.3811  0.1028 -0.2874
  195DOPC  H10R24138   5.909   6.698   7.975 -0.9983  0.4196 -1.1688
  195DOPC  C21124139   5.751   6.613   8.107  0.2635 -0.4268  0.5813
  195DOPC  H11R24140   5.662   6.549   8.090  1.1581 -1.4103 -0.5965
  195DOPC  H11S24141   5.719   6.718   8.124 -3.6490 -1.3048 -0.4711
  195DOPC  C21224142   5.822   6.543   8.228 -0.2608  0.6149 -0.0791
  195DOPC  H12R24143   5.918   6.587   8.262  1.0940 -1.6795 -0.6643
  195DOPC  H12S24144   5.846   6.436   8.205 -0.9296  0.1953  1.0983
  195DOPC  C21324145   5.727   6.545   8.344 -0.5782  0.0837  0.3587
  195DOPC  H13R24146   5.651   6.466   8.325 -0.1723 -0.8096  2.1713
  195DOPC  H13S24147   5.671   6.640   8.335 -0.0988  0.6846  2.9256
  195DOPC  C21424148   5.810   6.517   8.469  0.0039  0.7546 -0.4184
  195DOPC  H14R24149   5.872   6.603   8.500  0.8379  0.3889 -1.0386
  195DOPC  H14S24150   5.890   6.441   8.455  2.0507  2.6770  0.2201
  195DOPC  C21524151   5.714   6.480   8.582  0.4948 -0.4637 -0.1684
  195DOPC  H15R24152   5.657   6.389   8.551 -0.6754  0.3703 -0.5550
  195DOPC  H15S24153   5.640   6.560   8.602  1.0689  0.2856 -0.9901
  195DOPC  C21624154   5.783   6.451   8.716 -0.1542  0.1947  0.2340
  195DOPC  H16R24155   5.812   6.542   8.772  0.2967  1.8153 -2.4234
  195DOPC  H16S24156   5.870   6.387   8.688 -1.2756 -2.1009  1.7117
  195DOPC  C21724157   5.700   6.353   8.796  0.1128  0.3117 -0.2280
  195DOPC  H17R24158   5.645   6.286   8.726 -2.2377  0.0594  1.7448
  195DOPC  H17S24159   5.617   6.402   8.851  1.5592 -1.1153  3.5437
  195DOPC  C21824160   5.782   6.252   8.882 -0.4071  0.2042  0.1206
  195DOPC  H18R24161   5.721   6.180   8.941  0.4140  1.0835  2.1393
  195DOPC  H18S24162   5.852   6.296   8.956  2.0729 -1.9300 -0.8196
  195DOPC  H18T24163   5.847   6.192   8.816  1.4000  1.1370  0.9700
  195DOPC   C3324164   5.229   6.524   7.649 -0.3536 -0.1594  0.5492
  195DOPC   H3X24165   5.279   6.567   7.559 -2.0571 -0.2036 -0.4517
  195DOPC   H3Y24166   5.246   6.414   7.656  0.8334  0.0103  0.6241
  195DOPC   C3424167   5.284   6.605   7.758  0.1620 -0.0158  0.0946
  195DOPC   H4X24168   5.236   6.706   7.757 -1.7143 -0.8701 -0.2163
  195DOPC   H4Y24169   5.394   6.605   7.743  0.1262  1.0621 -0.2912
  195DOPC   C3524170   5.261   6.533   7.881 -0.0761  0.2857 -0.1153
  195DOPC   H5X24171   5.315   6.435   7.886 -0.2534  0.0468 -2.0925
  195DOPC   H5Y24172   5.155   6.513   7.904  0.0858  1.5888  2.0152
  195DOPC   C3624173   5.307   6.603   8.011 -0.6068 -0.0977  0.4200
  195DOPC   H6X24174   5.411   6.636   7.992 -0.1050 -1.5037  0.6397
  195DOPC   H6Y24175   5.247   6.695   8.030 -0.1689  0.4893 -0.9107
  195DOPC   C3724176   5.313   6.516   8.136 -0.0817 -0.0710  0.3038
  195DOPC   H7X24177   5.218   6.459   8.150 -0.6948  0.9892  0.6367
  195DOPC   H7Y24178   5.377   6.430   8.109 -1.1663 -0.0484 -2.8334
  195DOPC   C3824179   5.367   6.593   8.261 -0.0517  0.1680  0.2446
  195DOPC   H8X24180   5.438   6.668   8.221 -0.0114  1.7357  3.0081
  195DOPC   H8Y24181   5.428   6.519   8.316 -1.3349  0.2723  1.8822
  195DOPC   C3924182   5.251   6.652   8.332  0.3570  0.3452  0.2829
  195DOPC   H9X24183   5.187   6.711   8.264  2.6210  2.4078 -0.1790
  195DOPC  C31024184   5.219   6.652   8.462 -0.4352  0.0511 -0.0281
  195DOPC  H10X24185   5.116   6.675   8.492  0.3428  1.2405  1.8912
  195DOPC  C31124186   5.300   6.604   8.583 -0.3950 -0.1869  0.0811
  195DOPC  H11X24187   5.398   6.566   8.546 -0.1690  2.4599 -2.4009
  195DOPC  H11Y24188   5.248   6.516   8.627  0.3832 -0.8438 -0.2778
  195DOPC  C31224189   5.323   6.718   8.682 -0.6200  0.0812  1.0102
  195DOPC  H12X24190   5.225   6.771   8.683 -2.3005 -2.7986  1.8857
  195DOPC  H12Y24191   5.408   6.780   8.648 -1.2885  0.4166 -0.1235
  195DOPC  C31324192   5.355   6.690   8.837  0.4375 -0.6777 -0.2692
  195DOPC  H13X24193   5.453   6.637   8.843  0.7760 -0.0687 -0.4039
  195DOPC  H13Y24194   5.351   6.787   8.891 -0.4687  0.5297 -2.3911
  195DOPC  C31424195   5.259   6.591   8.901 -0.5851 -0.1670 -0.0107
  195DOPC  H14X24196   5.156   6.627   8.883  0.4633  2.2075 -1.8737
  195DOPC  H14Y24197   5.279   6.490   8.860  0.5095  0.0952 -0.1651
  195DOPC  C31524198   5.276   6.562   9.052 -0.4480  0.2799  0.0952
  195DOPC  H15X24199   5.185   6.513   9.093 -0.2630  0.6510  0.9564
  195DOPC  H15Y24200   5.290   6.655   9.110 -1.7470  0.5798 -0.0508
  195DOPC  C31624201   5.396   6.475   9.093 -0.1161  0.0305 -0.6256
  195DOPC  H16X24202   5.478   6.533   9.046 -2.8566  3.5486 -1.5512
  195DOPC  H16Y24203   5.405   6.476   9.203  0.8312 -0.2009 -0.6927
  195DOPC  C31724204   5.392   6.329   9.049  0.7351 -0.1957 -0.0916
  195DOPC  H17X24205   5.295   6.286   9.084  0.5022  0.3031 -0.1214
  195DOPC  H17Y24206   5.382   6.323   8.939 -0.0657  1.1963 -0.1179
  195DOPC  C31824207   5.500   6.236   9.090 -0.0625  0.4734 -0.1862
  195DOPC  H18X24208   5.506   6.142   9.030  0.1031 -2.6059  4.1560
  195DOPC  H18Y24209   5.593   6.296   9.079  1.3575 -1.0156  2.5635
  195DOPC  H18Z24210   5.486   6.196   9.193 -3.0509 -0.0760 -0.7086
  196DOPC     N24211   0.166   0.039   6.856 -0.4611  0.0702 -0.0139
  196DOPC   C1224212   0.231   0.076   6.991  0.1465 -0.2691 -0.2010
  196DOPC  H12A24213   0.271   0.176   6.986  0.0268 -0.1860  0.3779
  196DOPC  H12B24214   0.318   0.015   7.008  0.0665 -0.5681 -0.8478
  196DOPC   C1324215   0.032   0.102   6.845 -0.2122 -0.1274 -0.6749
  196DOPC  H13A24216  -0.014   0.079   6.750 -0.7972  0.0630 -0.4444
  196DOPC  H13B24217  -0.034   0.059   6.919  1.6780 -0.5787  0.8335
  196DOPC  H13C24218   0.031   0.207   6.872 -0.8218 -0.6570  1.5107
  196DOPC   C1424219   0.148  -0.112   6.852 -0.2033  0.7864  0.1032
  196DOPC  H14A24220   0.242  -0.164   6.860  0.1642  1.5582  0.9372
  196DOPC  H14B24221   0.083  -0.144   6.932  0.7250 -0.8003  0.2610
  196DOPC  H14C24222   0.112  -0.151   6.758 -1.3387 -2.1688  1.6350
  196DOPC   C1524223   0.259   0.086   6.749  0.0427  0.0063 -0.2292
  196DOPC  H15A24224   0.363   0.057   6.759  0.1056  0.8463  2.1310
  196DOPC  H15B24225   0.263   0.194   6.743  0.4240 -0.0867 -2.4415
  196DOPC  H15C24226   0.226   0.044   6.655  2.9889 -1.3785 -0.7622
  196DOPC   C1124227   0.142   0.072   7.118  0.2744 -0.2751 -0.1874
  196DOPC  H11A24228   0.200   0.121   7.200 -0.3418 -0.7365  0.5355
  196DOPC  H11B24229   0.056   0.139   7.101 -0.3975 -0.9641  0.4489
  196DOPC     P24230  -0.042  -0.104   7.196 -0.6861 -0.0704 -0.3515
  196DOPC   O1324231  -0.038  -0.247   7.212 -0.5077 -0.1262 -0.1973
  196DOPC   O1424232  -0.140  -0.043   7.105  0.2689  0.0242 -0.3380
  196DOPC   O1224233   0.098  -0.063   7.151 -0.2110  0.0208  0.0123
  196DOPC   O1124234  -0.063  -0.036   7.337 -0.1498 -0.2722 -0.6781
  196DOPC    C124235   0.029  -0.023   7.447  0.5305 -0.0720 -0.1288
  196DOPC    HA24236   0.035   0.085   7.474 -1.3456  0.4245 -1.4725
  196DOPC    HB24237   0.137  -0.035   7.421  0.5865 -1.9484  0.8665
  196DOPC    C224238  -0.014  -0.108   7.574 -0.6577  0.1617  0.5388
  196DOPC    HS24239  -0.009  -0.209   7.526 -0.1244  0.3631  0.1603
  196DOPC   O2124240  -0.149  -0.074   7.615 -0.3935  0.1869  0.0678
  196DOPC   C2124241  -0.215  -0.164   7.680 -0.0703  0.9228  0.7521
  196DOPC   O2224242  -0.175  -0.278   7.692  0.5073  0.3336  0.5412
  196DOPC   C2224243  -0.360  -0.118   7.710  0.4924  0.2356  0.6875
  196DOPC   H2R24244  -0.420  -0.147   7.621  0.6437  0.5681  0.4766
  196DOPC   H2S24245  -0.359  -0.008   7.721  0.3917  0.5488 -1.8651
  196DOPC    C324246   0.087  -0.090   7.699  0.3842 -0.1359  0.4422
  196DOPC    HX24247   0.079   0.016   7.730  1.5252  0.0150  0.2671
  196DOPC    HY24248   0.189  -0.118   7.666 -0.5760 -1.3857 -1.6747
  196DOPC   O3124249   0.051  -0.167   7.811  0.0127  0.1800  0.2633
  196DOPC   C3124250   0.108  -0.287   7.827  0.2087 -0.0635  1.3139
  196DOPC   O3224251   0.193  -0.335   7.753 -0.4192  0.4892 -0.1556
  196DOPC   C3224252   0.035  -0.344   7.950 -0.6181 -0.2276  0.7301
  196DOPC   H2X24253   0.093  -0.321   8.042  2.4138 -0.7408 -0.9211
  196DOPC   H2Y24254  -0.063  -0.293   7.965  0.4775  2.5989 -0.9639
  196DOPC   C2324255  -0.424  -0.190   7.828 -0.0929 -0.2157 -0.2995
  196DOPC   H3R24256  -0.428  -0.295   7.792 -1.1392 -0.2658 -0.0615
  196DOPC   H3S24257  -0.530  -0.162   7.846 -0.8650 -1.5266 -2.3830
  196DOPC   C2424258  -0.335  -0.179   7.955 -0.4252  0.0946  0.0068
  196DOPC   H4R24259  -0.347  -0.075   7.992 -0.6084  0.0032  0.2042
  196DOPC   H4S24260  -0.229  -0.207   7.938 -0.5224 -0.9155  0.9752
  196DOPC   C2524261  -0.379  -0.264   8.074  0.4578  0.0157  0.3697
  196DOPC   H5R24262  -0.292  -0.274   8.142 -0.1062 -1.0306  0.9607
  196DOPC   H5S24263  -0.415  -0.365   8.046  0.9323  0.3955 -1.8052
  196DOPC   C2624264  -0.488  -0.202   8.158 -0.1232  0.1444 -0.2899
  196DOPC   H6R24265  -0.574  -0.168   8.096 -2.7619 -0.4472  2.7606
  196DOPC   H6S24266  -0.447  -0.111   8.207  1.9240 -1.3547  0.9189
  196DOPC   C2724267  -0.546  -0.303   8.261 -0.1266 -0.6340  0.1759
  196DOPC   H7R24268  -0.468  -0.337   8.333  1.6757  0.1821 -1.3062
  196DOPC   H7S24269  -0.580  -0.386   8.197  0.9575 -0.7641 -0.2565
  196DOPC   C2824270  -0.664  -0.255   8.341  0.1743 -0.5889  0.6369
  196DOPC   H8R24271  -0.633  -0.182   8.419  0.2022 -0.0739  0.1428
  196DOPC   H8S24272  -0.685  -0.341   8.410 -1.7343 -0.6813  0.0051
  196DOPC   C2924273  -0.783  -0.217   8.256  0.1717  0.0338  0.0032
  196DOPC   H9R24274  -0.810  -0.298   8.186 -0.2103  2.2392 -2.5736
  196DOPC  C21024275  -0.835  -0.092   8.237 -0.5118  0.0016 -0.1063
  196DOPC  H10R24276  -0.919  -0.076   8.167 -0.5766 -1.6037 -0.4445
  196DOPC  C21124277  -0.783   0.034   8.295  0.0960 -0.0002  0.2023
  196DOPC  H11R24278  -0.710   0.080   8.224  0.6493  1.8796  1.8796
  196DOPC  H11S24279  -0.717   0.016   8.382  0.2935  2.7237  0.6944
  196DOPC  C21224280  -0.892   0.140   8.327  0.6660  0.4237  0.1024
  196DOPC  H12R24281  -0.962   0.091   8.398 -0.2878  1.0827 -0.3643
  196DOPC  H12S24282  -0.959   0.165   8.242  1.4240  0.1110 -0.6041
  196DOPC  C21324283  -0.822   0.270   8.379  0.0922 -0.2476  0.1315
  196DOPC  H13R24284  -0.734   0.296   8.316  0.6776 -0.4429  0.8553
  196DOPC  H13S24285  -0.780   0.259   8.481  2.5673 -0.5783 -0.8542
  196DOPC  C21424286  -0.914   0.395   8.380  0.5263  0.7209  0.5147
  196DOPC  H14R24287  -0.943   0.424   8.276  0.9846 -3.0809 -0.8545
  196DOPC  H14S24288  -0.864   0.477   8.435 -1.0568  1.9022  0.2577
  196DOPC  C21524289  -1.056   0.375   8.453 -0.7248 -0.2398 -0.2996
  196DOPC  H15R24290  -1.045   0.338   8.557  2.3025 -1.0289 -0.7897
  196DOPC  H15S24291  -1.116   0.301   8.396 -2.8328 -0.3898  1.9537
  196DOPC  C21624292  -1.140   0.508   8.454  0.7556 -0.2103  0.1122
  196DOPC  H16R24293  -1.229   0.482   8.515 -0.0344  2.9890  0.4949
  196DOPC  H16S24294  -1.175   0.529   8.351  1.0382  0.5948  0.1719
  196DOPC  C21724295  -1.069   0.634   8.509 -0.3647 -0.0174 -0.2715
  196DOPC  H17R24296  -0.996   0.663   8.430 -0.3392 -0.3845 -0.3826
  196DOPC  H17S24297  -1.022   0.614   8.608 -0.9395 -1.4066 -0.2574
  196DOPC  C21824298  -1.177   0.737   8.537  0.5018 -0.7061  0.1051
  196DOPC  H18R24299  -1.261   0.707   8.602 -0.0747  1.4870  0.4747
  196DOPC  H18S24300  -1.221   0.744   8.435 -0.2194  0.1730  0.4655
  196DOPC  H18T24301  -1.141   0.839   8.565 -1.0001  0.7219 -2.7386
  196DOPC   C3324302   0.009  -0.499   7.934 -0.5456  0.0564 -0.5821
  196DOPC   H3X24303   0.091  -0.536   7.869  1.4260  0.4185  1.5715
  196DOPC   H3Y24304  -0.089  -0.522   7.886 -0.0754  1.6350 -2.4001
  196DOPC   C3424305   0.035  -0.570   8.066  0.2727  0.2951  0.1257
  196DOPC   H4X24306  -0.049  -0.552   8.136 -0.4645  1.0792 -0.9247
  196DOPC   H4Y24307   0.125  -0.522   8.109  1.0424  0.1569 -1.2837
  196DOPC   C3524308   0.048  -0.721   8.056  0.3724  0.3112 -0.4534
  196DOPC   H5X24309   0.125  -0.746   7.981  0.4547 -3.4629  0.7018
  196DOPC   H5Y24310  -0.047  -0.767   8.022 -0.8111  0.6504  2.1236
  196DOPC   C3624311   0.085  -0.769   8.199 -0.5335  0.4084 -0.3211
  196DOPC   H6X24312   0.175  -0.708   8.225  1.9895 -3.0146 -0.4234
  196DOPC   H6Y24313   0.000  -0.752   8.269 -1.1318  0.3969 -1.0344
  196DOPC   C3724314   0.124  -0.920   8.218 -0.0491  0.6316 -0.2669
  196DOPC   H7X24315   0.031  -0.974   8.189  0.5310  0.2465 -1.4807
  196DOPC   H7Y24316   0.198  -0.952   8.142  1.6290 -0.6417  1.7823
  196DOPC   C3824317   0.187  -0.959   8.354  0.2117 -0.2569  0.5470
  196DOPC   H8X24318   0.115  -0.940   8.436  0.7853 -1.7172  1.4103
  196DOPC   H8Y24319   0.269  -0.889   8.383 -0.1928 -0.2533  1.7407
  196DOPC   C3924320   0.246  -1.101   8.369 -0.0786  0.4295 -0.2417
  196DOPC   H9X24321   0.276  -1.150   8.275 -0.7954 -1.0086  0.2461
  196DOPC  C31024322   0.277  -1.173   8.475 -0.1341 -0.1454  0.0146
  196DOPC  H10X24323   0.328  -1.269   8.460  2.5857  0.8987  1.6975
  196DOPC  C31124324   0.252  -1.137   8.613 -0.2070  0.2475 -0.1383
  196DOPC  H11X24325   0.233  -1.028   8.625 -0.0243  0.3087 -0.4004
  196DOPC  H11Y24326   0.347  -1.170   8.661  0.2125 -0.2833 -1.3133
  196DOPC  C31224327   0.130  -1.218   8.672  0.0051  0.2924 -0.4081
  196DOPC  H12X24328   0.142  -1.328   8.658  1.4967  0.5159 -1.0618
  196DOPC  H12Y24329   0.036  -1.180   8.626  0.7577 -2.6315 -5.0867
  196DOPC  C31324330   0.122  -1.205   8.829  0.6230  0.2728 -0.0252
  196DOPC  H13X24331   0.016  -1.181   8.852  0.5090 -0.5544  0.3626
  196DOPC  H13Y24332   0.156  -1.304   8.865  0.9682  0.8601  1.3372
  196DOPC  C31424333   0.210  -1.094   8.884  0.0138 -0.3419  0.1178
  196DOPC  H14X24334   0.314  -1.119   8.855 -0.2715  0.7518 -2.0943
  196DOPC  H14Y24335   0.181  -0.998   8.835  1.0853 -0.2682 -0.3823
  196DOPC  C31524336   0.197  -1.076   9.039 -0.0599 -0.1271  0.4063
  196DOPC  H15X24337   0.226  -1.169   9.093 -2.9847 -2.3325 -1.4821
  196DOPC  H15Y24338   0.089  -1.051   9.053 -0.6467 -0.1770 -3.0404
  196DOPC  C31624339   0.273  -0.960   9.090  0.3428  0.0238  0.7292
  196DOPC  H16X24340   0.373  -0.961   9.042 -0.8429  1.6188 -2.0650
  196DOPC  H16Y24341   0.229  -0.866   9.050 -0.2707 -0.4056  0.3688
  196DOPC  C31724342   0.286  -0.959   9.241  0.0421  0.4238 -1.1929
  196DOPC  H17X24343   0.187  -0.956   9.290  1.5897  1.3044  2.1283
  196DOPC  H17Y24344   0.323  -1.062   9.259 -0.5236  0.3304 -0.5539
  196DOPC  C31824345   0.379  -0.861   9.304  0.3598 -0.0291  0.5079
  196DOPC  H18X24346   0.487  -0.876   9.282 -0.1629 -0.7603 -1.8905
  196DOPC  H18Y24347   0.366  -0.758   9.265 -0.9155  0.1272  1.3011
  196DOPC  H18Z24348   0.365  -0.850   9.413 -2.8072  0.4980  0.1469
  197DOPC     N24349   0.270   6.626   6.984 -0.0230 -0.0003  0.6694
  197DOPC   C1224350   0.180   6.637   7.106 -0.5352  0.1806 -0.5606
  197DOPC  H12A24351   0.145   6.539   7.133 -0.9483 -0.2404 -2.4208
  197DOPC  H12B24352   0.093   6.699   7.086  0.7764  2.5302  0.5752
  197DOPC   C1324353   0.323   6.763   6.949  0.9159  0.2261 -0.1969
  197DOPC  H13A24354   0.383   6.801   7.031 -0.2870  1.5740  0.1194
  197DOPC  H13B24355   0.377   6.767   6.856 -1.5231 -0.3392 -1.7353
  197DOPC  H13C24356   0.244   6.835   6.933  0.1635 -0.7397 -0.9365
  197DOPC   C1424357   0.189   6.585   6.866 -0.4979  0.1597  0.3683
  197DOPC  H14A24358   0.127   6.499   6.882  0.6677 -0.4157  2.0664
  197DOPC  H14B24359   0.131   6.671   6.836 -1.8014 -0.6218  0.5575
  197DOPC  H14C24360   0.258   6.557   6.787 -1.4738 -1.4388  0.0380
  197DOPC   C1524361   0.390   6.540   7.003  0.9414 -0.8697 -0.3614
  197DOPC  H15A24362   0.368   6.446   7.052 -0.8372 -0.3500 -0.1000
  197DOPC  H15B24363   0.452   6.587   7.078 -0.5338 -0.2917  0.5440
  197DOPC  H15C24364   0.454   6.535   6.916 -1.3698 -1.2495 -2.1421
  197DOPC   C1124365   0.241   6.700   7.238  0.4810 -0.2102  0.3194
  197DOPC  H11A24366   0.185   6.654   7.322  0.0110 -0.1966  0.0109
  197DOPC  H11B24367   0.340   6.652   7.256  0.4671 -1.1786 -1.9208
  197DOPC     P24368   0.140   6.940   7.268 -0.0508 -0.2266 -0.0668
  197DOPC   O1324369   0.011   6.903   7.207 -0.0944 -0.5000  0.0736
  197DOPC   O1424370   0.187   7.077   7.250  0.0619  0.2225  0.0536
  197DOPC   O1224371   0.248   6.841   7.222 -0.0433 -0.1224 -0.3154
  197DOPC   O1124372   0.143   6.908   7.423 -0.1620  0.9687 -0.4712
  197DOPC    C124373   0.236   6.967   7.511  0.4284 -1.0590 -0.1709
  197DOPC    HA24374   0.200   7.056   7.566  1.5792  0.0164 -1.1174
  197DOPC    HB24375   0.328   7.000   7.458 -1.4187  1.3334 -2.1152
  197DOPC    C224376   0.285   6.858   7.610 -0.2226  0.6841 -0.4679
  197DOPC    HS24377   0.322   6.786   7.535 -0.7808 -0.5100  0.3799
  197DOPC   O2124378   0.172   6.797   7.683  0.0921  0.0963 -0.7943
  197DOPC   C2124379   0.201   6.680   7.733 -0.6090 -1.0265  0.6398
  197DOPC   O2224380   0.314   6.629   7.736  0.3613 -0.4638  0.1674
  197DOPC   C2224381   0.079   6.617   7.792  0.3239 -0.0153  0.0954
  197DOPC   H2R24382  -0.001   6.623   7.715  0.2618 -1.0784  0.0674
  197DOPC   H2S24383   0.035   6.682   7.870 -0.6624  1.3604 -1.5131
  197DOPC    C324384   0.402   6.899   7.707  0.2504  0.1085  0.9086
  197DOPC    HX24385   0.475   6.950   7.640 -0.0882 -0.4572  0.0909
  197DOPC    HY24386   0.455   6.808   7.742 -0.6745 -0.9445 -0.2899
  197DOPC   O3124387   0.352   6.982   7.814  0.0741 -0.6340  0.0207
  197DOPC   C3124388   0.452   7.033   7.884 -0.3938 -0.4384  0.3128
  197DOPC   O3224389   0.570   7.001   7.875 -0.5629  0.4221  0.1635
  197DOPC   C3224390   0.395   7.134   7.976  0.5965 -0.2825 -0.5269
  197DOPC   H2X24391   0.331   7.201   7.915  0.3797  0.4766  0.5111
  197DOPC   H2Y24392   0.330   7.074   8.044  2.5512 -0.9541  0.8435
  197DOPC   C2324393   0.078   6.463   7.823 -0.4177 -0.6683 -0.2083
  197DOPC   H3R24394   0.129   6.405   7.744 -0.3688 -1.1084  0.1418
  197DOPC   H3S24395  -0.030   6.436   7.827 -0.5125 -0.2158  0.7431
  197DOPC   C2424396   0.138   6.419   7.960 -0.3096 -0.3230  0.2654
  197DOPC   H4R24397   0.112   6.312   7.970 -0.0147 -0.4232 -0.0433
  197DOPC   H4S24398   0.091   6.451   8.056  2.0246  1.2630  0.9542
  197DOPC   C2524399   0.292   6.441   7.982  0.3842 -0.1407 -0.6377
  197DOPC   H5R24400   0.293   6.545   8.021 -2.6730 -0.0822 -0.4760
  197DOPC   H5S24401   0.353   6.431   7.890  0.9771 -0.1448 -0.2530
  197DOPC   C2624402   0.342   6.342   8.095  0.5459  0.3749 -0.2347
  197DOPC   H6R24403   0.322   6.236   8.068 -0.8592  0.5395  0.0453
  197DOPC   H6S24404   0.282   6.368   8.185  1.7460  1.6226  0.2425
  197DOPC   C2724405   0.498   6.360   8.131  0.1634 -0.4157 -0.3845
  197DOPC   H7R24406   0.556   6.328   8.042  0.0501  2.2191 -1.5018
  197DOPC   H7S24407   0.513   6.291   8.216 -0.9016  0.7487  0.7909
  197DOPC   C2824408   0.569   6.491   8.195  0.1613 -0.1412  0.0612
  197DOPC   H8R24409   0.668   6.449   8.222  0.3535  1.0600  1.3847
  197DOPC   H8S24410   0.514   6.525   8.285 -1.3032  0.6802 -1.0979
  197DOPC   C2924411   0.593   6.600   8.089  0.3413 -0.2738  0.2474
  197DOPC   H9R24412   0.627   6.550   7.997 -2.2091 -0.3309 -0.7672
  197DOPC  C21024413   0.589   6.730   8.107  0.3238  0.2162  0.2945
  197DOPC  H10R24414   0.604   6.798   8.021  0.1574 -2.4762 -2.0285
  197DOPC  C21124415   0.557   6.799   8.238 -0.0149  0.5815 -0.2336
  197DOPC  H11R24416   0.475   6.742   8.286 -0.5576  2.7357  1.5526
  197DOPC  H11S24417   0.507   6.897   8.223 -0.9197  0.1748  0.0545
  197DOPC  C21224418   0.664   6.822   8.348 -0.4288  0.1272 -0.5668
  197DOPC  H12R24419   0.723   6.911   8.315 -2.2206  1.1499 -1.1748
  197DOPC  H12S24420   0.733   6.736   8.356  0.2499  0.7827  1.2588
  197DOPC  C21324421   0.590   6.861   8.478 -0.2628  0.5982  0.2020
  197DOPC  H13R24422   0.520   6.781   8.510  2.6805 -2.6146 -0.7200
  197DOPC  H13S24423   0.526   6.949   8.457 -2.3310 -0.3372  2.2017
  197DOPC  C21424424   0.685   6.899   8.597  0.0596  0.3321  0.0155
  197DOPC  H14R24425   0.739   6.995   8.582 -1.4297  1.7691  2.9415
  197DOPC  H14S24426   0.762   6.819   8.596  0.0086  0.2352 -3.0463
  197DOPC  C21524427   0.606   6.902   8.729  0.0381 -0.1654 -0.0757
  197DOPC  H15R24428   0.680   6.915   8.811 -0.5099 -0.8525  0.5363
  197DOPC  H15S24429   0.554   6.807   8.752 -1.6623  1.0937  1.6514
  197DOPC  C21624430   0.495   7.006   8.731  0.6348 -0.2045  0.0935
  197DOPC  H16R24431   0.415   6.984   8.657  1.0274 -0.4203 -0.2620
  197DOPC  H16S24432   0.538   7.105   8.704 -1.0190  0.1040 -1.6850
  197DOPC  C21724433   0.425   7.002   8.864  0.7939 -0.0301 -1.0451
  197DOPC  H17R24434   0.504   6.985   8.940 -0.0680  1.4868  0.2582
  197DOPC  H17S24435   0.354   6.917   8.859  0.2173  0.3160  0.5356
  197DOPC  C21824436   0.345   7.133   8.889  0.4098 -0.4488  0.4818
  197DOPC  H18R24437   0.270   7.160   8.811  2.6503  1.0261 -1.3245
  197DOPC  H18S24438   0.415   7.219   8.898  0.2259 -0.3129  0.6249
  197DOPC  H18T24439   0.315   7.121   8.995  2.2099  2.1222  1.3908
  197DOPC   C3324440   0.505   7.224   8.048 -0.0919  0.4288  0.1434
  197DOPC   H3X24441   0.466   7.318   8.093  1.0669  1.8580 -1.7166
  197DOPC   H3Y24442   0.579   7.252   7.971 -1.1767 -0.2907 -1.2250
  197DOPC   C3424443   0.581   7.148   8.165 -0.1806 -0.4307  0.0732
  197DOPC   H4X24444   0.649   7.072   8.122  2.4694  1.0017  1.5031
  197DOPC   H4Y24445   0.511   7.097   8.235  0.4851  0.9805  1.8684
  197DOPC   C3524446   0.673   7.241   8.238  0.1750  0.1899 -0.8337
  197DOPC   H5X24447   0.744   7.300   8.175 -0.0567  2.9133  1.2653
  197DOPC   H5Y24448   0.739   7.169   8.290 -2.4552 -1.3936  0.5401
  197DOPC   C3624449   0.607   7.327   8.345 -0.1631 -0.5591 -0.1976
  197DOPC   H6X24450   0.534   7.396   8.297 -0.5809 -1.0571 -0.2863
  197DOPC   H6Y24451   0.547   7.266   8.415 -1.0114  1.4191  0.8912
  197DOPC   C3724452   0.699   7.420   8.428  0.1918  0.1239  0.2949
  197DOPC   H7X24453   0.779   7.373   8.489  1.3737 -0.7091 -1.7682
  197DOPC   H7Y24454   0.760   7.485   8.361 -0.4055 -1.1426 -1.5627
  197DOPC   C3824455   0.627   7.514   8.520 -0.1089 -0.1197 -0.7007
  197DOPC   H8X24456   0.564   7.587   8.465  0.6721  0.4745 -0.8261
  197DOPC   H8Y24457   0.700   7.581   8.571  1.5644 -1.5099 -1.2145
  197DOPC   C3924458   0.539   7.449   8.622 -0.1662  0.0291 -0.4149
  197DOPC   H9X24459   0.442   7.413   8.586  0.3331 -0.8001 -0.9363
  197DOPC  C31024460   0.579   7.439   8.748  0.1206  0.2093  0.1639
  197DOPC  H10X24461   0.506   7.400   8.821  0.6558 -0.8983  0.1401
  197DOPC  C31124462   0.703   7.494   8.819  0.1493  0.0378 -0.3680
  197DOPC  H11X24463   0.725   7.600   8.792 -0.1233 -0.6517 -3.6320
  197DOPC  H11Y24464   0.791   7.443   8.776 -1.1157 -1.0116 -1.8147
  197DOPC  C31224465   0.691   7.500   8.970 -0.2815 -0.0237 -0.0919
  197DOPC  H12X24466   0.790   7.527   9.012 -0.4860 -0.7470  0.8747
  197DOPC  H12Y24467   0.680   7.396   9.008  3.7125 -0.6575 -0.2957
  197DOPC  C31324468   0.590   7.598   9.035  0.1268  0.7857 -0.0695
  197DOPC  H13X24469   0.613   7.701   8.999  1.7084  0.4447 -0.0864
  197DOPC  H13Y24470   0.490   7.569   8.995  1.2612 -0.5579 -2.1240
  197DOPC  C31424471   0.588   7.588   9.186  0.3689 -0.3084 -0.3049
  197DOPC  H14X24472   0.546   7.490   9.219  1.6089 -0.4925  0.8215
  197DOPC  H14Y24473   0.692   7.586   9.226 -0.0774  2.0019  1.2020
  197DOPC  C31524474   0.527   7.715   9.259 -0.6522 -0.4230 -0.0102
  197DOPC  H15X24475   0.419   7.711   9.235 -0.7838  1.4179  0.1177
  197DOPC  H15Y24476   0.572   7.804   9.209  2.6619 -1.2070  1.2940
  197DOPC  C31624477   0.566   7.724   9.402  0.2799  0.0407  0.0250
  197DOPC  H16X24478   0.547   7.631   9.459 -1.9140 -0.3625 -1.2682
  197DOPC  H16Y24479   0.673   7.754   9.404 -0.0535  1.3163 -0.2648
  197DOPC  C31724480   0.485   7.826   9.481 -0.7562 -0.6005 -0.8937
  197DOPC  H17X24481   0.499   7.930   9.444  0.3896 -1.2567 -2.4634
  197DOPC  H17Y24482   0.378   7.805   9.460 -1.7780  0.2336  2.7949
  197DOPC  C31824483   0.526   7.808   9.632 -0.3062  0.0762  0.2871
  197DOPC  H18X24484   0.475   7.883   9.696 -0.0321 -0.5867  1.3150
  197DOPC  H18Y24485   0.497   7.706   9.665 -1.8981  0.1876 -0.6232
  197DOPC  H18Z24486   0.635   7.820   9.649 -0.1310  0.3143 -0.9143
  198DOPC     N24487   5.877   5.252   6.978 -0.9796 -0.2642  0.5402
  198DOPC   C1224488   5.866   5.390   7.034  0.5922  0.1608 -0.0372
  198DOPC  H12A24489   5.916   5.395   7.130 -1.0739  0.0064  0.8647
  198DOPC  H12B24490   5.761   5.404   7.054  0.2978 -0.0672 -1.3352
  198DOPC   C1324491   5.789   5.155   7.054  0.3141 -0.1041  0.2760
  198DOPC  H13A24492   5.825   5.138   7.154  1.1308 -0.0091  0.0007
  198DOPC  H13B24493   5.688   5.192   7.058 -0.1776 -1.0627 -1.8057
  198DOPC  H13C24494   5.790   5.058   7.006 -1.6371 -0.0700  0.0751
  198DOPC   C1424495   6.022   5.203   6.993 -0.0764 -0.1868  0.1522
  198DOPC  H14A24496   6.014   5.099   6.963 -1.8192  0.2481 -1.0347
  198DOPC  H14B24497   6.083   5.263   6.928  0.2238 -1.2708 -0.5997
  198DOPC  H14C24498   6.059   5.197   7.095 -0.8697 -3.8782  0.3798
  198DOPC   C1524499   5.849   5.239   6.832 -0.2750  0.0053  0.7408
  198DOPC  H15A24500   5.849   5.134   6.809 -2.2328  0.2120 -0.4985
  198DOPC  H15B24501   5.919   5.295   6.772 -0.5523 -0.4939 -0.0654
  198DOPC  H15C24502   5.746   5.270   6.816 -0.2296 -0.2077  0.0109
  198DOPC   C1124503   5.919   5.509   6.949  0.1020 -0.3892 -0.7150
  198DOPC  H11A24504   5.885   5.520   6.843  0.3870 -0.9478 -0.8722
  198DOPC  H11B24505   5.886   5.607   6.988 -2.7719 -1.2902 -0.6349
  198DOPC     P24506   6.149   5.572   7.048 -0.2173  0.0465 -0.1537
  198DOPC   O1324507   6.179   5.703   6.984  0.1175  0.2271 -0.1319
  198DOPC   O1424508   6.261   5.480   7.078 -0.2520  0.9365  0.4123
  198DOPC   O1224509   6.058   5.497   6.948  0.0805  0.3934  0.7298
  198DOPC   O1124510   6.059   5.592   7.179  0.1535 -0.3247 -0.3311
  198DOPC    C124511   6.106   5.613   7.310 -0.5187 -0.1450  0.6306
  198DOPC    HA24512   6.198   5.675   7.308  0.5808 -1.7065  0.8947
  198DOPC    HB24513   6.131   5.513   7.352  1.2732 -1.0245 -2.2542
  198DOPC    C224514   5.999   5.688   7.396  0.1848  0.5628 -0.4761
  198DOPC    HS24515   5.983   5.788   7.351 -0.5244  0.0176 -1.5085
  198DOPC   O2124516   6.031   5.682   7.531  0.3505  0.1207 -0.3177
  198DOPC   C2124517   6.140   5.760   7.568 -0.0792 -0.0092  0.1380
  198DOPC   O2224518   6.206   5.832   7.498  0.5931  0.2696  0.0989
  198DOPC   C2224519   6.168   5.738   7.726 -0.3054  0.0983  0.3461
  198DOPC   H2R24520   6.235   5.649   7.721  1.9771  1.8180 -2.2765
  198DOPC   H2S24521   6.074   5.725   7.785 -0.0069 -1.7235  0.4660
  198DOPC    C324522   5.856   5.619   7.382 -0.6515 -0.0987  1.1000
  198DOPC    HX24523   5.869   5.538   7.456  1.3924 -0.2397  0.6573
  198DOPC    HY24524   5.836   5.576   7.282  0.1472  1.9642 -0.0193
  198DOPC   O3124525   5.756   5.716   7.423 -0.5486 -0.0273 -0.1530
  198DOPC   C3124526   5.637   5.697   7.359  0.4114  0.5250  0.2314
  198DOPC   O3224527   5.611   5.597   7.294  0.1974  0.4917  0.1522
  198DOPC   C3224528   5.542   5.801   7.393 -0.0863  0.1389  0.0378
  198DOPC   H2X24529   5.578   5.854   7.484 -2.0263  1.1784  0.2592
  198DOPC   H2Y24530   5.548   5.880   7.316  1.0805  0.5158  0.4935
  198DOPC   C2324531   6.249   5.854   7.775 -0.1183 -0.1064 -0.1027
  198DOPC   H3R24532   6.184   5.943   7.791  1.2108  1.3680 -2.4086
  198DOPC   H3S24533   6.321   5.893   7.701 -0.6206 -0.3321 -0.7196
  198DOPC   C2424534   6.332   5.833   7.906 -0.1395  0.2900 -0.7757
  198DOPC   H4R24535   6.396   5.924   7.912  0.0968  0.1102 -0.5459
  198DOPC   H4S24536   6.391   5.739   7.905 -0.0604  0.2970  0.6521
  198DOPC   C2524537   6.250   5.833   8.034 -0.5209  0.5721  0.2571
  198DOPC   H5R24538   6.211   5.730   8.045  0.5167  0.3015  1.6508
  198DOPC   H5S24539   6.163   5.902   8.025 -0.5201  0.6707  0.9220
  198DOPC   C2624540   6.329   5.880   8.156  0.0899 -0.2965 -0.1081
  198DOPC   H6R24541   6.349   5.989   8.150 -1.0838 -0.1727 -2.6459
  198DOPC   H6S24542   6.430   5.833   8.157  0.5381  0.6006  1.5995
  198DOPC   C2724543   6.259   5.854   8.289  0.0578 -0.5736 -0.4385
  198DOPC   H7R24544   6.249   5.745   8.307 -2.3947 -0.3323  0.0638
  198DOPC   H7S24545   6.157   5.888   8.260  0.0747 -1.9426 -2.2632
  198DOPC   C2824546   6.320   5.916   8.415 -1.0221 -0.4212  0.2120
  198DOPC   H8R24547   6.237   5.928   8.489 -0.9695  2.3822 -0.0640
  198DOPC   H8S24548   6.355   6.021   8.405  2.1663 -1.0767  2.7634
  198DOPC   C2924549   6.443   5.836   8.468  0.2609 -0.9315  0.4622
  198DOPC   H9R24550   6.532   5.826   8.404 -0.0423 -1.0598  0.0584
  198DOPC  C21024551   6.443   5.766   8.588 -0.4301 -1.4925  0.4494
  198DOPC  H10R24552   6.523   5.694   8.609  0.2606 -1.2233 -1.1154
  198DOPC  C21124553   6.338   5.775   8.697 -0.4138 -0.0369 -0.5328
  198DOPC  H11R24554   6.323   5.882   8.723  1.7312  0.6947 -1.9716
  198DOPC  H11S24555   6.386   5.731   8.786 -1.3177  1.9729  1.0396
  198DOPC  C21224556   6.199   5.722   8.675 -0.4578  0.5063 -0.6626
  198DOPC  H12R24557   6.140   5.779   8.601  1.5986  1.7522 -1.4429
  198DOPC  H12S24558   6.141   5.716   8.770  0.6793 -4.1444 -0.0129
  198DOPC  C21324559   6.194   5.572   8.630 -0.1211  0.2917  0.4060
  198DOPC  H13R24560   6.224   5.562   8.524  1.1834  2.5306  0.4975
  198DOPC  H13S24561   6.086   5.553   8.614 -0.6389  3.0316  0.1726
  198DOPC  C21424562   6.265   5.476   8.720  0.2382 -0.4804  0.3434
  198DOPC  H14R24563   6.368   5.514   8.738  1.1039 -2.4100 -0.2747
  198DOPC  H14S24564   6.279   5.381   8.663  0.2540  0.5602 -1.4416
  198DOPC  C21524565   6.200   5.452   8.849 -0.2162 -0.3004 -0.1013
  198DOPC  H15R24566   6.093   5.422   8.850 -0.4338  0.3788  1.6471
  198DOPC  H15S24567   6.205   5.549   8.903  0.4689 -0.5372  0.2762
  198DOPC  C21624568   6.271   5.350   8.935 -0.1934 -0.5904  0.1728
  198DOPC  H16R24569   6.381   5.368   8.933 -0.2983  0.0251 -1.1206
  198DOPC  H16S24570   6.256   5.246   8.898 -2.4703 -0.0937 -0.4527
  198DOPC  C21724571   6.229   5.351   9.078 -0.2373 -0.7442 -0.1886
  198DOPC  H17R24572   6.120   5.367   9.090 -0.3435 -0.3255 -1.5307
  198DOPC  H17S24573   6.283   5.434   9.128  1.3456 -1.0397 -1.3310
  198DOPC  C21824574   6.274   5.225   9.154 -0.2201 -0.1692  1.1706
  198DOPC  H18R24575   6.384   5.212   9.152 -0.4613 -3.1345 -1.4514
  198DOPC  H18S24576   6.230   5.132   9.110  0.9969 -1.0541  1.7665
  198DOPC  H18T24577   6.242   5.227   9.261  1.3751 -2.3245  1.7647
  198DOPC   C3324578   5.403   5.742   7.423  0.5956 -0.0067 -0.0097
  198DOPC   H3X24579   5.361   5.706   7.327  0.1482  0.3455  0.0478
  198DOPC   H3Y24580   5.329   5.818   7.456  1.2288  0.8830 -0.6241
  198DOPC   C3424581   5.404   5.616   7.516 -0.7146 -0.8929 -0.1622
  198DOPC   H4X24582   5.447   5.641   7.615  0.7724  0.0506 -1.0080
  198DOPC   H4Y24583   5.459   5.531   7.469 -1.4493 -0.3408 -2.1119
  198DOPC   C3524584   5.255   5.573   7.543  0.5012  0.1965 -0.5913
  198DOPC   H5X24585   5.210   5.529   7.451 -1.6629 -0.5249  0.7536
  198DOPC   H5Y24586   5.194   5.665   7.555  0.3515  0.0001  0.1552
  198DOPC   C3624587   5.242   5.476   7.653  0.9068  0.3176 -0.6393
  198DOPC   H6X24588   5.290   5.380   7.623 -1.5620 -1.9587  2.0439
  198DOPC   H6Y24589   5.293   5.509   7.746 -2.2706  1.2695  0.8955
  198DOPC   C3724590   5.097   5.449   7.687  0.1784 -0.1921 -0.4966
  198DOPC   H7X24591   5.061   5.541   7.737  0.5747 -1.1901  1.7488
  198DOPC   H7Y24592   5.043   5.437   7.591  2.4784 -3.1023 -1.6088
  198DOPC   C3824593   5.069   5.326   7.786 -0.5462 -0.0531 -0.4988
  198DOPC   H8X24594   4.958   5.324   7.785 -0.5382 -1.3004 -1.1175
  198DOPC   H8Y24595   5.108   5.354   7.886 -1.3962 -0.1691 -0.1285
  198DOPC   C3924596   5.138   5.196   7.742 -0.2242 -1.5033  0.4492
  198DOPC   H9X24597   5.104   5.170   7.641 -0.9986  0.9886 -0.0125
  198DOPC  C31024598   5.219   5.106   7.800 -0.1213  0.6793  0.2376
  198DOPC  H10X24599   5.233   5.008   7.752  2.9542  0.5761  1.1684
  198DOPC  C31124600   5.279   5.127   7.938  0.0476 -0.0506 -0.1095
  198DOPC  H11X24601   5.225   5.073   8.019 -1.0468  0.1188 -0.6971
  198DOPC  H11Y24602   5.275   5.234   7.968 -1.6782 -0.3950  1.0408
  198DOPC  C31224603   5.429   5.093   7.951  0.0613 -0.2192 -0.4517
  198DOPC  H12X24604   5.502   5.152   7.892  1.1293  1.2826  2.1781
  198DOPC  H12Y24605   5.444   4.984   7.938 -2.1093 -0.4061 -1.9278
  198DOPC  C31324606   5.475   5.126   8.096  0.6558  0.0578  0.1074
  198DOPC  H13X24607   5.468   5.237   8.105 -0.8135 -0.0626  0.7056
  198DOPC  H13Y24608   5.411   5.075   8.172  0.6490 -1.3647 -0.8361
  198DOPC  C31424609   5.615   5.070   8.134  0.3588 -0.0648  0.8728
  198DOPC  H14X24610   5.618   4.962   8.108 -2.9615  0.2340 -1.4195
  198DOPC  H14Y24611   5.687   5.125   8.071  0.8227  0.4786  1.8633
  198DOPC  C31524612   5.658   5.094   8.279  0.2294 -0.3899 -0.3411
  198DOPC  H15X24613   5.594   5.042   8.354 -2.5136  1.1530 -1.4749
  198DOPC  H15Y24614   5.629   5.199   8.298  0.5686 -0.8287  3.5333
  198DOPC  C31624615   5.817   5.073   8.313 -0.2573 -0.2269 -0.3595
  198DOPC  H16X24616   5.845   4.966   8.297 -0.6661  0.0183 -3.4139
  198DOPC  H16Y24617   5.877   5.122   8.234  1.5840 -1.1614  0.4087
  198DOPC  C31724618   5.855   5.110   8.454  0.0690 -0.4229  0.2401
  198DOPC  H17X24619   5.864   5.219   8.475  1.1652 -0.6614  1.1325
  198DOPC  H17Y24620   5.783   5.054   8.517 -0.1739  0.4814  0.7860
  198DOPC  C31824621   5.997   5.056   8.493  0.8822 -0.4755 -0.0909
  198DOPC  H18X24622   6.081   5.125   8.468  0.7799 -0.5886 -0.7623
  198DOPC  H18Y24623   6.000   5.026   8.600  1.5218  1.4441  0.4734
  198DOPC  H18Z24624   6.014   4.966   8.431  0.2547  0.8322 -2.2929
  199DOPC     N24625   5.492   6.997   7.221 -0.1846  0.6636  0.5505
  199DOPC   C1224626   5.569   6.949   7.338 -0.3162 -0.5442 -0.4787
  199DOPC  H12A24627   5.651   6.889   7.300 -0.9961 -0.9144 -1.3825
  199DOPC  H12B24628   5.509   6.881   7.397 -0.1722 -0.5590 -0.3473
  199DOPC   C1324629   5.575   7.086   7.132  0.2292  0.7113  0.0771
  199DOPC  H13A24630   5.653   7.026   7.089 -1.6210 -0.5403 -1.7209
  199DOPC  H13B24631   5.519   7.136   7.054  0.0589 -0.6935 -0.7407
  199DOPC  H13C24632   5.622   7.163   7.192 -0.3465 -0.1134  1.6751
  199DOPC   C1424633   5.369   7.065   7.266  0.3534  0.0011 -0.1988
  199DOPC  H14A24634   5.294   7.003   7.313 -0.8053  2.6311  1.7086
  199DOPC  H14B24635   5.394   7.141   7.339  2.4026  1.0198 -1.8665
  199DOPC  H14C24636   5.313   7.098   7.180 -3.1913 -4.5840 -0.0475
  199DOPC   C1524637   5.454   6.878   7.133  0.5194 -0.3717 -0.0293
  199DOPC  H15A24638   5.390   6.808   7.184  1.1918 -1.2828 -0.3996
  199DOPC  H15B24639   5.541   6.820   7.102  0.9183 -0.7488  1.7237
  199DOPC  H15C24640   5.408   6.903   7.039 -1.6464 -1.6667  0.6328
  199DOPC   C1124641   5.628   7.060   7.419 -0.6783 -0.4105  0.9225
  199DOPC  H11A24642   5.557   7.144   7.431  0.5847  1.0367 -1.1456
  199DOPC  H11B24643   5.648   7.023   7.522 -1.0085 -0.9962  0.7815
  199DOPC     P24644   5.809   7.242   7.357  0.5058  0.2509 -0.3486
  199DOPC   O1324645   5.709   7.342   7.297 -0.0398 -0.0435  0.6239
  199DOPC   O1424646   5.945   7.241   7.296 -0.0407 -0.0459 -0.7447
  199DOPC   O1224647   5.753   7.092   7.351 -0.1879 -0.1701 -0.0300
  199DOPC   O1124648   5.821   7.281   7.517 -0.0473 -0.0043  0.4410
  199DOPC    C124649   5.932   7.230   7.585  0.5772 -0.7248 -0.0542
  199DOPC    HA24650   6.031   7.251   7.537  0.2305 -1.4533 -1.1249
  199DOPC    HB24651   5.929   7.119   7.594 -0.1753 -0.6667  0.4407
  199DOPC    C224652   5.943   7.305   7.725 -0.7298  0.0198 -0.5814
  199DOPC    HS24653   6.036   7.276   7.778 -1.4264 -0.0569  0.6166
  199DOPC   O2124654   5.827   7.270   7.810 -0.1780  0.0732 -0.2030
  199DOPC   C2124655   5.827   7.140   7.839  0.3722 -0.2277 -0.8109
  199DOPC   O2224656   5.922   7.068   7.827  0.0078  0.0371  0.2894
  199DOPC   C2224657   5.700   7.107   7.916  0.1826  0.5880 -0.6615
  199DOPC   H2R24658   5.611   7.100   7.851  0.7685 -1.9295 -1.2960
  199DOPC   H2S24659   5.682   7.178   8.000 -0.4567  0.0474 -0.3367
  199DOPC    C324660   5.965   7.464   7.705  0.1622  0.3606  0.2261
  199DOPC    HX24661   5.892   7.510   7.636  2.3580  1.0545 -1.7264
  199DOPC    HY24662   6.057   7.477   7.644  0.7279  2.0098  1.3678
  199DOPC   O3124663   5.984   7.527   7.835  0.6293 -0.2205  0.6042
  199DOPC   C3124664   5.877   7.601   7.875 -0.9497  0.2745  0.2678
  199DOPC   O3224665   5.765   7.591   7.828  0.2933  0.3439  0.1700
  199DOPC   C3224666   5.915   7.699   7.982 -0.0770  0.2531 -0.8532
  199DOPC   H2X24667   6.025   7.696   8.002  0.2661 -2.4778 -2.5765
  199DOPC   H2Y24668   5.883   7.801   7.952  0.5120  1.9055  3.4129
  199DOPC   C2324669   5.701   6.960   7.974  0.7346 -0.1321 -0.4559
  199DOPC   H3R24670   5.772   6.946   8.058  0.7874  2.9104  0.1083
  199DOPC   H3S24671   5.719   6.881   7.898  0.5216 -0.9961  0.3799
  199DOPC   C2424672   5.563   6.927   8.033 -0.1264 -0.5132  0.5084
  199DOPC   H4R24673   5.559   6.827   8.083 -3.1199 -1.1925 -0.8783
  199DOPC   H4S24674   5.486   6.915   7.954 -0.2987 -1.3991  0.7972
  199DOPC   C2524675   5.508   7.028   8.126  0.9144  0.4997 -0.3391
  199DOPC   H5R24676   5.404   7.008   8.157  0.6989 -0.9774 -1.8522
  199DOPC   H5S24677   5.510   7.129   8.079 -2.0354  1.2657  0.9767
  199DOPC   C2624678   5.597   7.046   8.255  1.0909  0.1459  0.2048
  199DOPC   H6R24679   5.551   7.139   8.294 -0.2530 -0.4051 -0.0174
  199DOPC   H6S24680   5.701   7.081   8.241  1.2029  0.5889  1.9281
  199DOPC   C2724681   5.594   6.939   8.368  0.4552 -0.1246 -0.3605
  199DOPC   H7R24682   5.641   6.851   8.319 -0.3689 -0.3404 -0.7975
  199DOPC   H7S24683   5.486   6.917   8.381  0.6373  0.1944  2.0225
  199DOPC   C2824684   5.654   6.990   8.500  0.0211  0.2172  0.4004
  199DOPC   H8R24685   5.588   7.074   8.532  0.9772  1.7468 -1.4171
  199DOPC   H8S24686   5.755   7.029   8.475 -1.0563  1.7496 -1.9683
  199DOPC   C2924687   5.675   6.879   8.602 -0.2210 -0.3421  0.0600
  199DOPC   H9R24688   5.721   6.789   8.559  1.5513  0.8883 -0.7983
  199DOPC  C21024689   5.637   6.887   8.730 -0.2339  0.0494 -0.6269
  199DOPC  H10R24690   5.658   6.799   8.792 -0.4205  0.9771  0.8100
  199DOPC  C21124691   5.559   6.999   8.794 -0.5105  0.6278 -0.1775
  199DOPC  H11R24692   5.499   6.966   8.882  1.7224  1.0248  1.6003
  199DOPC  H11S24693   5.487   7.042   8.722 -0.1630  1.1154 -0.2432
  199DOPC  C21224694   5.655   7.105   8.854  0.0754  0.1577  0.4573
  199DOPC  H12R24695   5.739   7.123   8.783  0.4025  1.4489  1.1375
  199DOPC  H12S24696   5.709   7.053   8.936 -1.6842  1.1776  2.3629
  199DOPC  C21324697   5.585   7.233   8.904  0.5392  0.9670 -1.3050
  199DOPC  H13R24698   5.535   7.274   8.813  0.3044  0.5762 -1.3583
  199DOPC  H13S24699   5.649   7.309   8.953 -0.8664  0.7743  0.9962
  199DOPC  C21424700   5.480   7.196   9.010 -0.5268 -0.3863  0.9292
  199DOPC  H14R24701   5.532   7.142   9.092 -0.5615 -1.6595  0.1371
  199DOPC  H14S24702   5.407   7.125   8.966 -0.2997  0.2160 -0.4879
  199DOPC  C21524703   5.403   7.314   9.050 -0.2749  0.1400  0.2614
  199DOPC  H15R24704   5.366   7.359   8.955  1.0127  1.5494  0.3876
  199DOPC  H15S24705   5.461   7.389   9.109 -0.6667  0.8307 -0.2168
  199DOPC  C21624706   5.287   7.283   9.143  0.0441 -0.0825  0.0856
  199DOPC  H16R24707   5.209   7.232   9.083 -1.1893  1.0126  0.7403
  199DOPC  H16S24708   5.232   7.370   9.183  1.3987  0.6913  0.3260
  199DOPC  C21724709   5.314   7.200   9.271  0.2450 -0.3356 -0.2112
  199DOPC  H17R24710   5.396   7.247   9.329  0.5884 -2.6301  1.2921
  199DOPC  H17S24711   5.334   7.094   9.242 -0.1018 -0.8878  1.4520
  199DOPC  C21824712   5.183   7.201   9.357  0.0704  0.6579  0.3738
  199DOPC  H18R24713   5.153   7.304   9.385  1.6704  1.1281  0.4428
  199DOPC  H18S24714   5.199   7.135   9.444 -0.9151 -0.6434 -0.3966
  199DOPC  H18T24715   5.088   7.159   9.316 -1.1055  0.4329  3.0787
  199DOPC   C3324716   5.840   7.654   8.104 -0.0524  0.4195 -0.2542
  199DOPC   H3X24717   5.860   7.546   8.120  0.0638  0.5173  0.3157
  199DOPC   H3Y24718   5.730   7.659   8.093 -0.0245  0.6745 -0.4142
  199DOPC   C3424719   5.886   7.746   8.217  0.3752 -0.7582 -0.0964
  199DOPC   H4X24720   5.995   7.766   8.230  0.0882 -0.1595  1.7142
  199DOPC   H4Y24721   5.871   7.692   8.314  0.6441 -0.5925  0.0381
  199DOPC   C3524722   5.803   7.880   8.222  0.0896 -0.1946  0.3157
  199DOPC   H5X24723   5.750   7.904   8.127 -1.6883 -3.1797  0.4193
  199DOPC   H5Y24724   5.871   7.965   8.244  0.9393  0.1508 -3.0902
  199DOPC   C3624725   5.688   7.877   8.324 -0.2830  0.1070  0.2634
  199DOPC   H6X24726   5.644   7.775   8.313 -0.4205 -0.1272  2.5102
  199DOPC   H6Y24727   5.726   7.878   8.429 -2.3306  0.1223  1.0515
  199DOPC   C3724728   5.582   7.989   8.315 -0.4056  0.5738 -0.6981
  199DOPC   H7X24729   5.528   7.977   8.219 -0.4345 -1.0912 -0.5054
  199DOPC   H7Y24730   5.502   7.979   8.392  0.4207 -0.5662  0.0389
  199DOPC   C3824731   5.642   8.126   8.338  0.1584  0.3691 -0.7147
  199DOPC   H8X24732   5.552   8.191   8.348  0.2705  0.3966  0.1862
  199DOPC   H8Y24733   5.696   8.141   8.242 -0.5976 -1.3669 -1.4614
  199DOPC   C3924734   5.730   8.146   8.457 -0.2564 -0.1689 -0.6487
  199DOPC   H9X24735   5.829   8.099   8.458  0.4595  1.2202  1.4107
  199DOPC  C31024736   5.709   8.229   8.564  0.8108  0.2123  0.7593
  199DOPC  H10X24737   5.786   8.232   8.643 -1.6878 -3.0675  3.6269
  199DOPC  C31124738   5.583   8.316   8.587  0.6339 -0.3822  0.5035
  199DOPC  H11X24739   5.488   8.262   8.605 -0.7668  1.6376 -0.4763
  199DOPC  H11Y24740   5.560   8.382   8.500 -1.7969  0.8684  1.9997
  199DOPC  C31224741   5.614   8.414   8.700 -0.0458 -0.9213 -0.5228
  199DOPC  H12X24742   5.528   8.483   8.718  1.5790  0.9625  0.4226
  199DOPC  H12Y24743   5.702   8.479   8.681  0.0704 -1.0389 -0.3810
  199DOPC  C31324744   5.628   8.345   8.840  0.1371 -0.5508  0.2998
  199DOPC  H13X24745   5.530   8.303   8.869  0.0225 -1.6423 -1.4782
  199DOPC  H13Y24746   5.702   8.262   8.832  0.5470 -0.1357 -0.3175
  199DOPC  C31424747   5.664   8.440   8.956 -0.1408 -0.9165 -0.2282
  199DOPC  H14X24748   5.757   8.495   8.931  1.1408 -2.3777  1.0925
  199DOPC  H14Y24749   5.585   8.518   8.958  1.0861  0.3785  1.6478
  199DOPC  C31524750   5.665   8.388   9.097  0.6154  0.1691 -0.7037
  199DOPC  H15X24751   5.761   8.333   9.106 -1.1127 -2.8086  1.2056
  199DOPC  H15Y24752   5.582   8.321   9.126 -0.2926  1.4889 -0.1435
  199DOPC  C31624753   5.652   8.494   9.201  0.4185 -0.3587  0.0435
  199DOPC  H16X24754   5.703   8.588   9.171  2.1428 -1.6578 -1.3391
  199DOPC  H16Y24755   5.553   8.527   9.240 -0.4298 -3.2424  0.5587
  199DOPC  C31724756   5.708   8.435   9.336  0.3354  0.0843  0.7091
  199DOPC  H17X24757   5.635   8.361   9.374 -0.5549  0.7054  0.2363
  199DOPC  H17Y24758   5.804   8.382   9.317  0.2556  0.0585  0.3651
  199DOPC  C31824759   5.722   8.546   9.442 -0.7854 -0.2095 -0.5450
  199DOPC  H18X24760   5.624   8.596   9.457 -1.3960 -1.4284 -0.2947
  199DOPC  H18Y24761   5.762   8.495   9.533  2.5365  0.7060 -1.3478
  199DOPC  H18Z24762   5.803   8.610   9.401 -0.3015 -1.4547 -1.6015
  200DOPC     N24763   1.169   0.538   7.453 -0.0802 -0.3745 -0.2685
  200DOPC   C1224764   1.131   0.400   7.510  0.1428  0.7136  1.0376
  200DOPC  H12A24765   1.215   0.338   7.483 -1.0126  0.1686 -1.5914
  200DOPC  H12B24766   1.046   0.369   7.452  0.5608  2.7596 -0.7820
  200DOPC   C1324767   1.083   0.639   7.520  0.1982 -0.7616 -0.0913
  200DOPC  H13A24768   1.090   0.738   7.476  1.9962 -0.4115  0.9145
  200DOPC  H13B24769   0.976   0.624   7.508  0.1916 -0.6647 -0.1587
  200DOPC  H13C24770   1.109   0.648   7.624 -0.0077  0.6041 -0.1296
  200DOPC   C1424771   1.139   0.549   7.304  0.1420 -0.3856 -0.3787
  200DOPC  H14A24772   1.202   0.480   7.250  1.3585 -1.6695  2.4772
  200DOPC  H14B24773   1.034   0.539   7.281 -0.7921  0.2455  3.0642
  200DOPC  H14C24774   1.181   0.641   7.266  2.5159 -1.7562 -1.3124
  200DOPC   C1524775   1.312   0.578   7.473 -0.4510 -0.3628 -0.9307
  200DOPC  H15A24776   1.371   0.527   7.398 -0.6198  0.2412 -1.4874
  200DOPC  H15B24777   1.341   0.540   7.569  0.1202 -0.9336 -1.3241
  200DOPC  H15C24778   1.322   0.686   7.473  0.3940 -0.3570  2.3749
  200DOPC   C1124779   1.106   0.373   7.664 -0.5895 -0.3297 -0.8307
  200DOPC  H11A24780   1.016   0.433   7.691 -0.7683 -0.0439 -1.9974
  200DOPC  H11B24781   1.067   0.271   7.682 -0.7889 -0.9211 -4.0191
  200DOPC     P24782   1.315   0.306   7.806  0.4345  0.2282  0.0474
  200DOPC   O1324783   1.417   0.362   7.900  0.2586 -0.1489 -0.1620
  200DOPC   O1424784   1.376   0.234   7.691  1.1932 -0.0022  0.2861
  200DOPC   O1224785   1.219   0.416   7.747  0.3813  0.0870  0.3045
  200DOPC   O1124786   1.219   0.212   7.889 -0.6525  0.3526  0.1835
  200DOPC    C124787   1.109   0.261   7.964 -0.7781  0.4467  0.2167
  200DOPC    HA24788   1.021   0.196   7.940 -1.0352  0.2459  1.6063
  200DOPC    HB24789   1.075   0.358   7.922  1.7102  0.2593 -2.5513
  200DOPC    C224790   1.147   0.266   8.116  0.3030 -0.1125  0.2612
  200DOPC    HS24791   1.257   0.277   8.120  0.2227  1.3878 -0.7615
  200DOPC   O2124792   1.099   0.157   8.194 -0.1102  0.5676  0.2014
  200DOPC   C2124793   1.158   0.047   8.172 -0.3340  0.6610 -0.0477
  200DOPC   O2224794   1.268   0.031   8.115 -0.0751 -0.4375  0.1905
  200DOPC   C2224795   1.075  -0.069   8.224  0.2685  0.6022  0.2572
  200DOPC   H2R24796   1.138  -0.156   8.195 -1.9140 -0.3292 -2.2038
  200DOPC   H2S24797   0.982  -0.071   8.163 -1.0652 -1.0745  2.2168
  200DOPC    C324798   1.103   0.405   8.179  0.3974 -0.1541 -0.5798
  200DOPC    HX24799   0.993   0.403   8.190  0.5046  0.4480  0.8909
  200DOPC    HY24800   1.135   0.480   8.104 -0.3706 -0.5200 -1.2864
  200DOPC   O3124801   1.155   0.431   8.308  0.0951  0.7805 -0.0058
  200DOPC   C3124802   1.130   0.552   8.359 -0.1993 -0.1954  0.0485
  200DOPC   O3224803   1.063   0.635   8.300 -0.0786 -0.7161 -0.2775
  200DOPC   C3224804   1.189   0.563   8.506  0.5074 -0.6630  0.3299
  200DOPC   H2X24805   1.154   0.471   8.558 -0.9767  1.3257  3.0880
  200DOPC   H2Y24806   1.300   0.565   8.511  0.4691  2.2203  1.8975
  200DOPC   C2324807   1.042  -0.067   8.373 -0.2225 -0.1440 -0.2893
  200DOPC   H3R24808   0.932  -0.079   8.387 -0.1036  1.2103  2.5742
  200DOPC   H3S24809   1.067   0.037   8.405 -0.9363  0.5089 -1.7431
  200DOPC   C2424810   1.107  -0.177   8.455 -0.1108  1.2313  0.6288
  200DOPC   H4R24811   1.216  -0.154   8.454  0.1082  0.2351  0.0719
  200DOPC   H4S24812   1.083  -0.270   8.399 -0.2434  2.2762 -1.1144
  200DOPC   C2524813   1.043  -0.195   8.594 -0.1447  0.5059 -0.9492
  200DOPC   H5R24814   0.939  -0.232   8.584  0.2003 -1.0331  0.6403
  200DOPC   H5S24815   1.044  -0.089   8.626  0.5604  0.9109 -2.2297
  200DOPC   C2624816   1.125  -0.272   8.691 -0.4408  0.4521  0.0059
  200DOPC   H6R24817   1.074  -0.269   8.790 -0.6028 -1.6756  0.0305
  200DOPC   H6S24818   1.225  -0.225   8.700  0.2538 -0.7197 -1.3054
  200DOPC   C2724819   1.142  -0.415   8.647  0.2897 -0.4296 -0.0014
  200DOPC   H7R24820   1.250  -0.432   8.628  1.2968  0.8853  3.6189
  200DOPC   H7S24821   1.083  -0.436   8.555 -1.6868  1.5135  0.7208
  200DOPC   C2824822   1.102  -0.515   8.760  0.7914  0.3259 -0.2343
  200DOPC   H8R24823   1.162  -0.492   8.851  0.6277  2.5832 -0.6301
  200DOPC   H8S24824   1.124  -0.615   8.717 -2.4791 -1.0098  0.8506
  200DOPC   C2924825   0.955  -0.520   8.780 -0.1298  0.1157  0.1540
  200DOPC   H9R24826   0.895  -0.533   8.688  1.6115 -3.5437 -0.6517
  200DOPC  C21024827   0.885  -0.503   8.890 -0.0614  0.1353 -0.7203
  200DOPC  H10R24828   0.776  -0.510   8.892  0.0026 -0.9852 -0.8364
  200DOPC  C21124829   0.941  -0.480   9.030 -0.7091 -1.0268  0.1428
  200DOPC  H11R24830   0.894  -0.392   9.080  2.4110  1.2837 -0.7030
  200DOPC  H11S24831   1.048  -0.452   9.018 -1.5023  1.0941 -3.0984
  200DOPC  C21224832   0.929  -0.608   9.108  0.0478  0.3195 -0.7577
  200DOPC  H12R24833   0.823  -0.641   9.105  0.0897 -0.1096  1.0945
  200DOPC  H12S24834   0.942  -0.584   9.216 -0.2408  0.2870 -0.7157
  200DOPC  C21324835   1.013  -0.734   9.066 -0.7975  0.1910 -0.7176
  200DOPC  H13R24836   0.995  -0.728   8.957  0.2140  1.0059 -0.8508
  200DOPC  H13S24837   0.958  -0.816   9.118 -1.7174  0.5467 -1.1091
  200DOPC  C21424838   1.167  -0.725   9.104 -0.0181  0.1858 -0.4460
  200DOPC  H14R24839   1.177  -0.759   9.209 -3.6745 -0.2462 -0.0959
  200DOPC  H14S24840   1.194  -0.618   9.090 -0.6632  0.3094 -0.7923
  200DOPC  C21524841   1.254  -0.799   8.996 -0.2106  0.1471 -0.6082
  200DOPC  H15R24842   1.234  -0.740   8.904  1.0765  2.6391  0.5987
  200DOPC  H15S24843   1.232  -0.908   8.993  1.2496 -0.2568  1.3248
  200DOPC  C21624844   1.407  -0.777   9.026 -0.0961 -0.3323  0.0217
  200DOPC  H16R24845   1.470  -0.856   8.978  0.8623  0.4079  0.0306
  200DOPC  H16S24846   1.418  -0.787   9.136 -3.1387  1.2954  0.5721
  200DOPC  C21724847   1.460  -0.639   8.986 -0.6070  0.3274  0.5195
  200DOPC  H17R24848   1.387  -0.575   9.039 -1.9856 -0.9907  0.3102
  200DOPC  H17S24849   1.455  -0.624   8.876  0.2874  0.6978  0.5232
  200DOPC  C21824850   1.603  -0.588   9.018  0.6859 -0.4696 -0.1184
  200DOPC  H18R24851   1.676  -0.601   8.936 -0.0170  1.4799 -1.0965
  200DOPC  H18S24852   1.645  -0.633   9.111 -1.0499  0.2028  1.0388
  200DOPC  H18T24853   1.598  -0.478   9.035 -0.1774 -0.5442  0.1624
  200DOPC   C3324854   1.136   0.678   8.585  0.0593 -0.6332  0.2396
  200DOPC   H3X24855   1.025   0.677   8.576  0.1938 -3.4311 -3.2553
  200DOPC   H3Y24856   1.179   0.768   8.536  2.3340 -1.4901  0.5490
  200DOPC   C3424857   1.188   0.692   8.730  0.0171  0.3239 -0.7942
  200DOPC   H4X24858   1.290   0.649   8.733  0.5336  1.5709  0.7868
  200DOPC   H4Y24859   1.120   0.624   8.785  0.3739 -0.5229 -1.3687
  200DOPC   C3524860   1.203   0.833   8.787  0.0465  0.1028  0.0199
  200DOPC   H5X24861   1.098   0.869   8.798  0.5927  1.9585 -0.4334
  200DOPC   H5Y24862   1.270   0.897   8.726 -0.2990  1.4904  1.0357
  200DOPC   C3624863   1.259   0.823   8.931  0.9147  0.0111  0.9919
  200DOPC   H6X24864   1.351   0.762   8.921 -0.1076 -1.1324 -2.9229
  200DOPC   H6Y24865   1.289   0.918   8.980  3.0720  0.2362 -0.6235
  200DOPC   C3724866   1.168   0.737   9.030 -0.3819 -0.0887 -0.3208
  200DOPC   H7X24867   1.083   0.806   9.051 -1.7666 -1.1372 -2.1263
  200DOPC   H7Y24868   1.125   0.647   8.981 -2.3314  1.2316 -1.1944
  200DOPC   C3824869   1.241   0.715   9.165  0.9848  0.1456  0.6968
  200DOPC   H8X24870   1.263   0.812   9.213 -1.1466  0.9433  0.1556
  200DOPC   H8Y24871   1.345   0.678   9.150  1.1713  0.5542  0.9561
  200DOPC   C3924872   1.150   0.635   9.251  0.3016 -0.1796 -0.2196
  200DOPC   H9X24873   1.042   0.653   9.238  0.4568  2.5274  1.5625
  200DOPC  C31024874   1.187   0.538   9.339 -0.2408  0.1991  0.3601
  200DOPC  H10X24875   1.117   0.488   9.407  0.0770  0.3124  0.7731
  200DOPC  C31124876   1.328   0.484   9.368  0.4275  0.4631  0.1939
  200DOPC  H11X24877   1.343   0.466   9.476  2.5618 -1.2633 -0.3290
  200DOPC  H11Y24878   1.406   0.549   9.325  0.5617  0.8072  0.9497
  200DOPC  C31224879   1.325   0.348   9.294 -0.5177 -0.2179 -0.3126
  200DOPC  H12X24880   1.296   0.360   9.187 -0.9797 -2.3442 -0.4688
  200DOPC  H12Y24881   1.249   0.285   9.344 -0.8123 -0.2823 -0.8366
  200DOPC  C31324882   1.461   0.282   9.304  0.0479  0.2302  0.1995
  200DOPC  H13X24883   1.542   0.335   9.250 -1.6282 -0.5354 -3.3269
  200DOPC  H13Y24884   1.494   0.274   9.410  1.2356 -1.2034 -0.2383
  200DOPC  C31424885   1.452   0.143   9.243 -0.3300  0.0778 -0.4476
  200DOPC  H14X24886   1.352   0.105   9.273  0.0604  0.7560  1.9199
  200DOPC  H14Y24887   1.472   0.141   9.134 -0.3393 -2.0313 -0.4505
  200DOPC  C31524888   1.553   0.051   9.317  0.5963 -0.1487  0.3955
  200DOPC  H15X24889   1.650   0.105   9.325  0.6801 -0.0559 -0.9554
  200DOPC  H15Y24890   1.560  -0.045   9.260  0.7618  0.4173 -0.5521
  200DOPC  C31624891   1.498   0.013   9.460 -0.2325 -0.1028  0.2531
  200DOPC  H16X24892   1.453   0.100   9.511 -0.1541  0.2082 -0.2063
  200DOPC  H16Y24893   1.412  -0.052   9.432  0.3471 -0.3108 -1.1384
  200DOPC  C31724894   1.598  -0.054   9.552 -0.6649  0.8629  0.3031
  200DOPC  H17X24895   1.548  -0.082   9.647  0.8297  0.0298  0.8781
  200DOPC  H17Y24896   1.638  -0.140   9.495 -1.0185  1.3367 -0.6763
  200DOPC  C31824897   1.723   0.031   9.591  0.1679 -0.1985 -0.2862
  200DOPC  H18X24898   1.689   0.129   9.630  0.5217 -1.3958  3.4303
  200DOPC  H18Y24899   1.772  -0.024   9.674  1.3261  2.4073  0.8820
  200DOPC  H18Z24900   1.790   0.055   9.506  1.4664 -2.1960  0.1123
  201SOD    SOD24901   3.163   5.202  11.582 -0.6140 -0.1890 -0.3342
  202SOD    SOD24902   3.102   6.627   4.965  0.1099  0.1190 -0.1519
  203SOD    SOD24903   2.733   1.922  12.707  0.3997  0.1355  0.2005
  204SOD    SOD24904   2.979   1.301   6.682 -0.1518 -0.2979 -0.7185
  205SOD    SOD24905   0.010   3.693  12.113  0.0405  0.7342  0.3180
  206SOD    SOD24906   0.489   1.263   7.398 -0.1835  0.0103  0.5790
  207SOD    SOD24907   7.551   2.133   7.010 -0.2945  0.3451  0.3007
  208SOD    SOD24908   5.654   2.455  12.100 -0.2806 -0.3130  0.2409
  209SOD    SOD24909   3.852   2.364   4.934  0.0736  0.4174  0.7145
  210SOD    SOD24910   0.927   2.196  13.095  0.4494  0.2257  0.1948
  211SOD    SOD24911   0.018   2.038  11.200  0.1122 -0.1991 -0.1985
  212SOD    SOD24912   0.849   4.616  11.949  0.1363 -0.0546  0.3753
  213SOD    SOD24913   1.488   3.209   6.333  0.1514  0.3303  0.0283
  214SOD    SOD24914   0.867   5.182  13.111  0.5725 -0.1417 -0.0676
  215SOD    SOD24915   5.552   4.336  11.972  0.6173  0.1373  0.0742
  216SOD    SOD24916   7.140   2.326  11.873 -0.2099 -0.2053  0.3446
  217SOD    SOD24917   0.720   3.219   6.162 -1.0779  0.1684  0.2686
  218SOD    SOD24918   7.337   7.187  13.007  0.1515  0.3440 -0.0090
  219SOD    SOD24919   6.205   6.845  11.872  0.2809 -0.5528  0.1213
  220SOD    SOD24920   3.270   2.078   6.601 -0.3379 -0.1695  0.2944
  221SOD    SOD24921   1.150   4.737   7.339 -0.0550  0.1832  0.2740
  222SOD    SOD24922   1.062   5.947  11.351 -0.1349  0.4982 -0.4018
  223SOD    SOD24923   5.348   3.812   5.106  0.2233  0.0011  0.7026
  224SOD    SOD24924   4.294   6.871   5.897  0.7092 -0.4090  0.0220
  225SOD    SOD24925   7.207   4.658   5.522 -0.1516 -0.0962  0.3027
  226SOD    SOD24926   2.151   5.214  12.760 -0.2069  0.1660  0.3228
  227CLA    CLA24927   0.437   4.602   6.863  0.6485 -0.2128 -0.1539
  228CLA    CLA24928   3.873   4.429   5.840  0.1424 -0.0601 -0.0300
  229CLA    CLA24929   1.070   4.396   5.508 -0.1157  0.2924 -0.2833
  230CLA    CLA24930   3.711   3.967  12.760 -0.4226 -0.5283 -0.2139
  231CLA    CLA24931   2.615   0.502  13.395 -0.4258  0.0678  0.2734
  232CLA    CLA24932   0.998   4.585  12.739  0.2010 -0.1290  0.3528
  233CLA    CLA24933   2.232   1.103  11.913 -0.1961 -0.0440 -0.0511
  234CLA    CLA24934   5.914   1.360  11.320 -0.1096  0.5528  0.2929
  235CLA    CLA24935   2.011   5.803   5.103 -0.0862 -0.4260 -0.2492
  236CLA    CLA24936   6.383   7.289  12.214  0.1181 -0.2338 -0.2883
  237CLA    CLA24937   7.443   6.060  11.452 -0.0122 -0.2125 -0.2173
  238CLA    CLA24938   7.477   2.116   6.529 -0.8513 -0.2015 -0.1098
  239CLA    CLA24939   7.440   5.750   6.648 -0.2103  0.0145  0.0404
  240CLA    CLA24940   0.393   7.603  13.039 -0.2048 -0.2947  0.0267
  241CLA    CLA24941   5.103   1.572   5.982  0.4133 -0.0457 -0.4373
  242CLA    CLA24942   5.689   5.087  12.814  0.2319 -0.0819  0.0505
  243CLA    CLA24943   0.744   3.399   5.153  0.4232 -0.4081 -0.1353
  244CLA    CLA24944   2.383   0.615   5.563  0.0138 -0.4175 -0.0572
  245CLA    CLA24945   0.633   0.826   5.071 -0.1403  0.1174 -0.3407
  246CLA    CLA24946   5.073   4.550  11.890  0.0075  0.0976  0.4888
  247CLA    CLA24947   2.477   3.106   5.843 -0.3662 -0.0395  0.2680
  248CLA    CLA24948   5.989   2.485   5.256 -0.2619  0.1244  0.0178
  249CLA    CLA24949   5.362   4.755   5.282  0.4511  0.3750  0.0831
  250CLA    CLA24950   0.197   4.677  11.942  0.2194 -0.2777 -0.0142
  251CLA    CLA24951   0.162   0.996  13.045  0.2174  0.0760  0.3822
  252CLA    CLA24952   5.755   1.558   5.641 -0.0141 -0.4240  0.2254
  253TIP3   OH224953   3.795   7.456  12.555  0.3826  0.9284 -0.2382
  253TIP3    H124954   3.847   7.395  12.607  0.5263 -0.7144 -2.1689
  253TIP3    H224955   3.722   7.480  12.612  1.4320  0.6075  1.3044
  254TIP3   OH224956   2.384   4.704  11.130  0.5491  0.7530 -0.8820
  254TIP3    H124957   2.387   4.768  11.058  1.7951  1.4168 -0.2648
  254TIP3    H224958   2.466   4.655  11.121 -0.8445 -1.5136 -1.9797
  255TIP3   OH224959   1.151   4.412  11.650 -0.0058  0.1309 -0.2237
  255TIP3    H124960   1.155   4.461  11.568  1.5608  1.9462  0.8433
  255TIP3    H224961   1.233   4.362  11.652  0.2203  0.5043  0.4173
  256TIP3   OH224962   6.276   6.497  12.072 -0.1199  0.4579  0.4266
  256TIP3    H124963   6.324   6.438  12.130  0.9011 -2.2160 -2.7951
  256TIP3    H224964   6.328   6.577  12.071  1.8889 -0.7666  0.4598
  257TIP3   OH224965   1.595   3.078  12.495 -0.2820 -0.2014  0.5503
  257TIP3    H124966   1.618   3.005  12.438  0.3039  0.6211 -0.3059
  257TIP3    H224967   1.568   3.148  12.435  2.3396  1.3995  1.0577
  258TIP3   OH224968   5.325   7.260  12.097 -0.5725  0.3237  0.4497
  258TIP3    H124969   5.344   7.166  12.097 -1.8847  0.0215  1.4297
  258TIP3    H224970   5.273   7.273  12.176  1.2490  2.2518  1.4042
  259TIP3   OH224971   1.952   2.260  12.114  0.3836 -0.1340 -0.2665
  259TIP3    H124972   1.937   2.301  12.029  1.3121 -1.3684 -1.0562
  259TIP3    H224973   1.869   2.216  12.133  0.2180  0.0292 -0.5959
  260TIP3   OH224974   6.516   5.769  13.196 -0.2617  0.0806  0.6005
  260TIP3    H124975   6.464   5.823  13.138 -1.8551 -0.4024  1.5100
  260TIP3    H224976   6.573   5.719  13.138  0.6720  2.0762 -0.2992
  261TIP3   OH224977   1.151   6.312  13.366 -0.8319 -0.1232 -0.2772
  261TIP3    H124978   1.130   6.361  13.445 -1.5725  0.3776 -0.7701
  261TIP3    H224979   1.232   6.265  13.387 -0.5984  0.6118  0.5003
  262TIP3   OH224980   1.945   7.570  12.969 -0.3484  0.3848  0.0223
  262TIP3    H124981   1.865   7.538  13.008 -0.8704  1.9922  0.3606
  262TIP3    H224982   2.015   7.516  13.006 -1.1453 -0.1436  0.7606
  263TIP3   OH224983   4.182   0.032  13.389 -1.0819 -0.2150 -0.5063
  263TIP3    H124984   4.088   0.047  13.396 -1.1797 -0.7779 -0.5728
  263TIP3    H224985   4.221   0.100  13.445 -1.5281 -0.0573 -0.3795
  264TIP3   OH224986   1.181   1.930  12.470  0.3742  0.6116  0.3826
  264TIP3    H124987   1.266   1.927  12.425 -0.5128 -1.6224 -1.4002
  264TIP3    H224988   1.176   1.847  12.518 -1.4289 -0.1379 -0.9619
  265TIP3   OH224989   3.404   0.867  12.813 -0.0389 -0.0398  0.0658
  265TIP3    H124990   3.478   0.823  12.854  0.0301 -0.3799 -0.4216
  265TIP3    H224991   3.357   0.908  12.886 -0.5849 -1.6392  0.6509
  266TIP3   OH224992   3.918   2.200  12.786 -0.2828  0.2654  0.0930
  266TIP3    H124993   3.832   2.206  12.744  0.9965  0.6838 -2.6736
  266TIP3    H224994   3.913   2.123  12.842 -1.6725 -1.2592 -2.0186
  267TIP3   OH224995   6.983   1.420  10.794  0.2145 -0.6035  0.0459
  267TIP3    H124996   6.902   1.371  10.780  1.0035 -1.3769 -2.2440
  267TIP3    H224997   7.001   1.410  10.888 -2.8026  0.4343  0.8376
  268TIP3   OH224998   5.098   6.930  10.941  0.5059 -0.0649 -0.1900
  268TIP3    H124999   5.056   7.013  10.963  1.4737  0.7192 -1.2086
  268TIP3    H225000   5.036   6.885  10.884  0.6488  0.6774 -0.9411
  269TIP3   OH225001   5.419   1.368  11.114 -0.1401 -0.1976 -0.4086
  269TIP3    H125002   5.382   1.456  11.120 -0.0028 -0.1283 -0.5789
  269TIP3    H225003   5.441   1.345  11.204  1.5090  0.6745 -0.5575
  270TIP3   OH225004   3.929   0.556  12.382  0.0031  0.0523 -0.0740
  270TIP3    H125005   3.973   0.590  12.304  0.3041 -2.1811 -0.9501
  270TIP3    H225006   4.000   0.524  12.438 -0.3512 -2.0216 -0.7347
  271TIP3   OH225007   5.213   3.131  11.507 -0.2335 -0.7655 -0.7823
  271TIP3    H125008   5.171   3.154  11.424  0.5519 -0.9230 -1.2390
  271TIP3    H225009   5.307   3.139  11.488  0.0175  2.9085  1.1143
  272TIP3   OH225010   2.330   1.248  13.305  0.0548 -0.1925 -0.1084
  272TIP3    H125011   2.409   1.202  13.277  1.0001  0.8362  0.7585
  272TIP3    H225012   2.331   1.330  13.255 -1.3646 -0.8627 -1.3039
  273TIP3   OH225013   1.991   0.354  12.376  0.5172 -0.0944 -0.4211
  273TIP3    H125014   1.986   0.422  12.309  0.7059  0.8206  0.4735
  273TIP3    H225015   1.918   0.295  12.355  0.9418 -0.1728 -1.7822
  274TIP3   OH225016   2.854   1.992  13.199  0.2542  0.8909 -0.0689
  274TIP3    H125017   2.856   2.084  13.226 -1.7121  1.1192 -0.4986
  274TIP3    H225018   2.933   1.953  13.236  1.2299  2.7943 -0.0459
  275TIP3   OH225019   4.076   1.891  11.933 -0.2906 -0.4978 -0.3125
  275TIP3    H125020   4.029   1.835  11.871 -0.2697  1.0072 -1.7573
  275TIP3    H225021   4.150   1.926  11.883 -1.0460  1.8420  0.0821
  276TIP3   OH225022   6.316   4.637  12.474  0.1186 -0.1551 -0.2347
  276TIP3    H125023   6.380   4.586  12.524 -0.1849 -1.2968 -0.9707
  276TIP3    H225024   6.352   4.639  12.385 -0.4854 -0.1217 -0.4815
  277TIP3   OH225025   2.454   5.964  13.836 -0.0972 -0.5786 -0.0098
  277TIP3    H125026   2.499   6.048  13.843 -0.6072 -0.3184  0.1958
  277TIP3    H225027   2.524   5.900  13.824  0.2470 -0.0338 -1.0547
  278TIP3   OH225028   6.960   4.449  11.218  0.4158  0.2378 -0.1041
  278TIP3    H125029   6.982   4.370  11.170  0.0836  0.7006 -1.0473
  278TIP3    H225030   6.898   4.496  11.161  1.4862  1.7303 -0.1156
  279TIP3   OH225031   6.634   6.823  11.416  0.9085  0.0141 -0.3079
  279TIP3    H125032   6.582   6.780  11.348  2.2828 -0.5822 -1.0344
  279TIP3    H225033   6.573   6.882  11.460 -0.1887 -0.1130 -1.6002
  280TIP3   OH225034   4.955   1.444  12.197  0.1005 -0.5029  0.0097
  280TIP3    H125035   4.990   1.487  12.119  0.5823 -1.0944 -0.1118
  280TIP3    H225036   5.010   1.366  12.207  0.5104 -0.0621  1.3582
  281TIP3   OH225037   3.921   6.368  11.572 -0.5885  0.0913 -0.2857
  281TIP3    H125038   3.900   6.411  11.489 -0.6906  0.5311 -0.0354
  281TIP3    H225039   3.988   6.424  11.612 -2.3389  1.3172  1.1014
  282TIP3   OH225040   1.525   3.975  10.632 -0.1790  0.2388  0.0203
  282TIP3    H125041   1.606   4.003  10.588  0.4451 -2.2996 -0.5652
  282TIP3    H225042   1.468   3.949  10.560 -1.0024  0.6392  0.5192
  283TIP3   OH225043   0.710   0.718  11.517 -0.1662 -0.4531 -0.0112
  283TIP3    H125044   0.662   0.723  11.600  0.7576 -1.5551  0.6150
  283TIP3    H225045   0.656   0.662  11.461  0.1190 -1.3018  0.5325
  284TIP3   OH225046   1.392   4.722   7.322  0.0452 -0.1243  0.4095
  284TIP3    H125047   1.439   4.805   7.312  0.8182 -0.5197  0.6369
  284TIP3    H225048   1.460   4.655   7.314 -0.6114 -0.7535 -0.0683
  285TIP3   OH225049   4.555   5.095   5.652  0.1820 -0.2186 -0.4599
  285TIP3    H125050   4.615   5.074   5.580 -0.4184 -0.5876 -0.8496
  285TIP3    H225051   4.477   5.130   5.610 -0.7544 -1.7568 -0.0855
  286TIP3   OH225052   4.126   0.203   5.115 -0.3469  0.2000 -0.1955
  286TIP3    H125053   4.204   0.205   5.170  0.1665  0.4468 -0.9181
  286TIP3    H225054   4.076   0.128   5.147 -0.9685  1.4177  1.8116
  287TIP3   OH225055   1.490   3.639   5.951  0.2504  0.2237 -0.1363
  287TIP3    H125056   1.477   3.588   5.871 -0.4465 -1.2196  0.8574
  287TIP3    H225057   1.566   3.598   5.992  0.4384  0.7905  0.0836
  288TIP3   OH225058   0.221   5.488   7.420 -0.2719  0.2868  0.0130
  288TIP3    H125059   0.278   5.437   7.362 -0.5430 -0.4175  0.3595
  288TIP3    H225060   0.238   5.579   7.395  1.7063  0.1743  0.7058
  289TIP3   OH225061   5.166   7.558   6.275 -0.0548  0.4284  0.0040
  289TIP3    H125062   5.240   7.499   6.288  1.4572  2.2857  0.4438
  289TIP3    H225063   5.096   7.503   6.241  0.7322 -1.8742  1.8363
  290TIP3   OH225064   4.056   5.480   5.767  0.1571 -0.4120 -0.1478
  290TIP3    H125065   3.989   5.416   5.744  0.8078 -1.4991  0.8872
  290TIP3    H225066   4.094   5.447   5.848  1.6456  0.4037 -0.4755
  291TIP3   OH225067   2.035   1.171   6.383  0.3452 -0.7780  0.1632
  291TIP3    H125068   2.096   1.140   6.451 -0.0326 -0.3660  0.7003
  291TIP3    H225069   2.042   1.267   6.387 -0.4749 -0.7205  0.3586
  292TIP3   OH225070   6.845   3.167   5.917 -0.0679  0.0393  0.3533
  292TIP3    H125071   6.888   3.175   6.002 -1.4851 -0.4361  1.1324
  292TIP3    H225072   6.910   3.200   5.855  0.7827  0.9297  1.6618
  293TIP3   OH225073   2.590   7.231   4.850  0.0724  0.1619 -0.3247
  293TIP3    H125074   2.519   7.296   4.851  1.5763  1.9202 -1.8752
  293TIP3    H225075   2.658   7.270   4.904  0.4120 -0.8784  0.0094
  294TIP3   OH225076   4.019   7.515   6.354 -0.3588  0.3883 -0.2313
  294TIP3    H125077   3.939   7.563   6.376  0.6582  0.8977  2.8543
  294TIP3    H225078   4.072   7.577   6.304 -1.2750  0.5292 -1.0577
  295TIP3   OH225079   0.472   0.292   7.841  0.0570 -0.5755 -0.6247
  295TIP3    H125080   0.548   0.328   7.887 -1.0565 -1.1466  1.8105
  295TIP3    H225081   0.466   0.344   7.761  0.3752  2.6208  1.2422
  296TIP3   OH225082   1.342   3.080   5.559 -0.5477 -0.5766 -0.5287
  296TIP3    H125083   1.360   3.152   5.500  0.4253 -2.6034 -2.8876
  296TIP3    H225084   1.428   3.049   5.587 -0.8531 -1.9926 -1.0913
  297TIP3   OH225085   0.335   5.747   5.154 -0.8165 -0.1032  0.0889
  297TIP3    H125086   0.409   5.704   5.196 -1.1330  0.4059  1.2031
  297TIP3    H225087   0.294   5.678   5.102 -0.7053 -0.9086  1.0262
  298TIP3   OH225088   0.073   0.753   6.554  0.4087  0.2014 -0.1384
  298TIP3    H125089   0.005   0.693   6.525 -1.3495  0.9410  2.1245
  298TIP3    H225090   0.113   0.711   6.630 -0.0500  1.3237  0.7636
  299TIP3   OH225091   5.773   2.070   5.486 -0.5982  0.1236 -0.1676
  299TIP3    H125092   5.703   2.011   5.460 -0.0711 -0.4993 -0.2079
  299TIP3    H225093   5.733   2.157   5.485 -1.2864 -0.1879 -0.4733
  300TIP3   OH225094   3.511   0.710   6.484 -0.4797  0.0099  0.3279
  300TIP3    H125095   3.557   0.630   6.511 -0.2425  0.8080  2.5639
  300TIP3    H225096   3.420   0.683   6.473 -0.1853 -0.8084 -0.2046
  301TIP3   OH225097   3.196   1.805   6.195 -0.3836 -0.4251  0.2263
  301TIP3    H125098   3.288   1.830   6.184 -0.8600  1.1556 -0.4820
  301TIP3    H225099   3.192   1.715   6.163  0.7582 -0.1987 -0.6357
  302TIP3   OH225100   0.249   0.360   6.246  0.4461  0.1621  0.1850
  302TIP3    H125101   0.166   0.401   6.222  0.9403  1.1726  0.1698
  302TIP3    H225102   0.223   0.276   6.284 -0.5016 -0.2222 -1.2125
  303TIP3   OH225103   6.174   2.036   5.221  0.5148  0.3095 -0.1072
  303TIP3    H125104   6.149   1.948   5.194  0.5583 -0.0602  0.9819
  303TIP3    H225105   6.108   2.061   5.285  0.6352  0.9789 -0.2389
  304TIP3   OH225106   4.024   2.738   4.773  0.2083 -0.1404  0.0556
  304TIP3    H125107   3.937   2.771   4.794  0.3962  0.4163 -0.0147
  304TIP3    H225108   4.038   2.666   4.835  0.1543  0.5086  0.8437
  305TIP3   OH225109   1.872   3.407   5.261  0.3295 -0.0965 -0.2246
  305TIP3    H125110   1.833   3.487   5.297  0.3831 -1.3241  2.8449
  305TIP3    H225111   1.832   3.398   5.174 -2.0490  1.5887  0.5856
  306TIP3   OH225112   0.975   4.874   5.327 -0.2033  0.2295  0.3541
  306TIP3    H125113   0.986   4.961   5.290  0.0483  0.2473  0.4730
  306TIP3    H225114   0.975   4.815   5.252  0.0488  0.2898  0.3078
  307TIP3   OH225115   1.773   0.303   6.743  0.2792 -0.4200  0.1126
  307TIP3    H125116   1.817   0.387   6.735 -0.4136  0.0542  0.9995
  307TIP3    H225117   1.774   0.284   6.837 -0.7389 -0.7449  0.0793
  308TIP3   OH225118   2.764   0.043   5.105  0.0436 -0.2050  0.3082
  308TIP3    H125119   2.691   0.044   5.166 -0.9221  0.0935 -0.8206
  308TIP3    H225120   2.828   0.102   5.145 -1.1859  1.1802  0.3231
  309TIP3   OH225121   6.020   4.651   5.237  0.5658 -0.2260  0.0038
  309TIP3    H125122   6.022   4.740   5.274 -0.4345 -0.4497  0.6310
  309TIP3    H225123   6.080   4.601   5.293 -0.3610 -0.3853  0.8752
  310TIP3   OH225124   4.887   2.225   6.925  0.2789  0.7388  0.3145
  310TIP3    H125125   4.914   2.139   6.958 -2.5995 -0.2675  0.3110
  310TIP3    H225126   4.887   2.215   6.830 -0.5703  0.5664  0.3316
  311TIP3   OH225127   1.192   6.042   4.332 -0.3611  0.0471  0.5591
  311TIP3    H125128   1.243   6.120   4.309 -0.4338  0.2874  1.1846
  311TIP3    H225129   1.105   6.076   4.354 -1.0755 -0.4374 -1.3347
  312TIP3   OH225130   6.509   2.693   4.938 -0.1404 -0.1830  0.2105
  312TIP3    H125131   6.441   2.629   4.960 -0.5923 -0.1596 -1.0798
  312TIP3    H225132   6.586   2.640   4.916 -0.8249 -0.3797 -1.9367
  313TIP3   OH225133   2.967   3.421   5.634  0.2530 -0.3870  0.6638
  313TIP3    H125134   2.982   3.459   5.547  2.4733 -0.0262  1.1485
  313TIP3    H225135   2.886   3.370   5.624 -0.4104  0.9172 -1.1680
  314TIP3   OH225136   0.281   5.056   6.409  0.0926  0.4045  0.0905
  314TIP3    H125137   0.307   5.084   6.497  0.1329 -1.9673  0.9065
  314TIP3    H225138   0.186   5.072   6.406  0.0000  0.0165  0.7766
  315TIP3   OH225139   1.688   7.406   7.520  0.4300  0.4224  0.3080
  315TIP3    H125140   1.631   7.435   7.591 -0.0399 -0.9945  0.5263
  315TIP3    H225141   1.770   7.381   7.563  0.1015 -0.5571  0.3879
  316TIP3   OH225142   0.773   2.062   4.853  0.1831 -0.1763  0.5485
  316TIP3    H125143   0.710   2.123   4.893 -0.6081 -1.8347  1.9624
  316TIP3    H225144   0.750   1.976   4.889  3.3043 -0.8791  1.2432
  317TIP3   OH225145   6.634   5.907   7.145 -0.0110  0.1798  0.3652
  317TIP3    H125146   6.623   5.902   7.240 -1.8092  1.2130  0.2588
  317TIP3    H225147   6.557   5.862   7.109 -0.3231  1.4095 -0.5822
  318TIP3   OH225148   2.603   1.390   5.548 -0.1667 -0.0663 -0.1827
  318TIP3    H125149   2.590   1.373   5.641 -0.9117 -0.4545 -0.3479
  318TIP3    H225150   2.521   1.361   5.507  0.6532 -1.1797 -1.1095
  319TIP3   OH225151   7.581   2.510   6.874 -1.0104  0.5196  0.5931
  319TIP3    H125152   7.583   2.420   6.908  0.7402 -0.2286 -1.2730
  319TIP3    H225153   7.524   2.506   6.798 -0.1126  0.7058 -0.1122
  320TIP3   OH225154   5.751   6.132   7.037 -0.5449 -0.7836 -0.5248
  320TIP3    H125155   5.767   6.226   7.040 -1.0096 -0.6123 -2.1187
  320TIP3    H225156   5.658   6.125   7.014 -0.7820 -1.6513  0.6506
  321TIP3   OH225157   4.951   6.936   6.004  0.0646 -0.0227 -0.2318
  321TIP3    H125158   4.985   6.988   5.931  3.0933 -1.7107 -0.2005
  321TIP3    H225159   5.000   6.967   6.080 -1.0761 -0.1477  0.5649
  322TIP3   OH225160   7.347   7.653   5.798  0.0920  0.6642 -0.5873
  322TIP3    H125161   7.331   7.606   5.716  0.5031  1.5412 -1.1898
  322TIP3    H225162   7.414   7.718   5.775  0.1238  0.9957  0.4185
  323TIP3   OH225163   1.831   4.757  11.463  0.3545  0.3883  0.2377
  323TIP3    H125164   1.792   4.710  11.389  1.4983 -1.0095  0.4570
  323TIP3    H225165   1.757   4.796  11.509 -0.5100  0.0579 -0.8259
  324TIP3   OH225166   7.672   2.657  12.063 -0.1193 -0.3551 -0.0653
  324TIP3    H125167   7.720   2.652  11.980 -1.9347 -0.9092 -1.1462
  324TIP3    H225168   7.706   2.584  12.115 -0.1475 -1.0714 -1.0185
  325TIP3   OH225169   6.851   7.482  13.229 -0.5186  0.3768 -0.3383
  325TIP3    H125170   6.945   7.464  13.219 -0.6565 -0.8169  0.3158
  325TIP3    H225171   6.824   7.427  13.302 -1.4906  1.6410  0.2941
  326TIP3   OH225172   2.740   5.013  12.263 -0.8480  0.1874  0.1400
  326TIP3    H125173   2.709   4.983  12.177 -1.9797  2.2222 -0.2172
  326TIP3    H225174   2.822   4.965  12.276 -1.3561 -1.2294 -1.4132
  327TIP3   OH225175   1.263   1.112  12.142  0.5281  0.3683  0.3877
  327TIP3    H125176   1.332   1.106  12.076  2.9685  0.0884  2.8078
  327TIP3    H225177   1.227   1.023  12.148 -0.4843  0.6308 -1.2540
  328TIP3   OH225178   2.288   5.805  13.317 -0.5961 -0.1519 -0.1458
  328TIP3    H125179   2.359   5.742  13.329 -1.7358 -0.9573  4.8275
  328TIP3    H225180   2.214   5.753  13.285 -0.1882 -0.2819 -0.8758
  329TIP3   OH225181   2.323   6.164  12.781  0.3137  0.3392  0.0020
  329TIP3    H125182   2.268   6.237  12.754 -0.5467 -0.7666 -1.4073
  329TIP3    H225183   2.373   6.141  12.703 -0.5836 -1.5424 -0.0725
  330TIP3   OH225184   2.856   1.104  12.312  0.0117 -0.0921 -0.2666
  330TIP3    H125185   2.830   1.150  12.392 -1.0825 -0.2687 -0.5042
  330TIP3    H225186   2.830   1.162  12.241 -0.4458 -0.6094 -0.5333
  331TIP3   OH225187   4.678   3.258  13.501 -0.0261  0.0194  0.2485
  331TIP3    H125188   4.625   3.248  13.422  2.1166  0.4826 -1.3259
  331TIP3    H225189   4.703   3.168  13.524 -0.0272 -0.0647 -0.0671
  332TIP3   OH225190   7.645   3.141  11.779  0.5861  0.2666  0.0435
  332TIP3    H125191   7.582   3.204  11.813  1.4256  0.7230  0.8149
  332TIP3    H225192   7.729   3.167  11.818  1.3692  0.0126 -1.3799
  333TIP3   OH225193   1.478   2.428  12.035  0.2768  0.0766 -0.4229
  333TIP3    H125194   1.484   2.523  12.043 -0.2006  0.0810 -0.1020
  333TIP3    H225195   1.400   2.404  12.086 -0.3407 -0.3522 -1.5298
  334TIP3   OH225196   5.854   1.935  12.086 -0.1138 -0.1779  0.1557
  334TIP3    H125197   5.783   1.957  12.026  0.9311  3.5974  0.0866
  334TIP3    H225198   5.843   1.994  12.160  2.5922  0.1842  0.3762
  335TIP3   OH225199   5.568   1.774  12.825 -0.2253 -0.6447 -0.1214
  335TIP3    H125200   5.650   1.776  12.775 -1.4902  0.1765 -2.2922
  335TIP3    H225201   5.588   1.721  12.902  2.1615 -0.9847 -0.9011
  336TIP3   OH225202   2.906   0.516  12.670  0.1823 -0.4778 -0.0773
  336TIP3    H125203   2.934   0.459  12.741  2.7625 -0.4815 -1.0020
  336TIP3    H225204   2.821   0.482  12.644  0.1630 -1.7970  1.5807
  337TIP3   OH225205   3.974   0.254  13.205 -0.0835  0.1439 -0.2652
  337TIP3    H125206   3.904   0.239  13.141 -0.3460 -1.5045  0.3478
  337TIP3    H225207   3.938   0.220  13.288  0.5925  1.3851  0.5667
  338TIP3   OH225208   7.328   4.146  11.750 -0.2410  0.2247 -0.2229
  338TIP3    H125209   7.289   4.230  11.774  0.0004  0.3146 -0.1465
  338TIP3    H225210   7.416   4.168  11.720 -0.6465  0.1705 -1.5478
  339TIP3   OH225211   3.015   0.532  12.265  0.1146 -0.4989 -0.1301
  339TIP3    H125212   2.943   0.559  12.321  1.5090  2.5695  0.3673
  339TIP3    H225213   3.065   0.470  12.318  0.1913  0.6519  1.1852
  340TIP3   OH225214   1.394   5.123  12.925  0.0965  0.5631 -0.0732
  340TIP3    H125215   1.438   5.039  12.938  0.0604  0.3637 -1.1044
  340TIP3    H225216   1.438   5.161  12.849 -0.3604  1.1520 -0.0467
  341TIP3   OH225217   4.447   4.394  11.585 -0.5684 -0.0110  0.8249
  341TIP3    H125218   4.503   4.453  11.534 -1.4153 -0.6440 -0.9518
  341TIP3    H225219   4.359   4.429  11.573 -0.9025 -0.7762  0.9986
  342TIP3   OH225220   5.519   1.078  12.171 -0.0301 -0.8865 -0.0730
  342TIP3    H125221   5.512   1.164  12.213 -1.2942 -1.0705  0.1323
  342TIP3    H225222   5.597   1.084  12.116  0.5058  0.0343  0.7529
  343TIP3   OH225223   2.124   6.020  13.168  0.0112 -0.0846  0.0049
  343TIP3    H125224   2.150   6.006  13.077 -0.7795  0.5809 -0.3416
  343TIP3    H225225   2.205   6.045  13.213 -0.0481  2.6555 -1.1890
  344TIP3   OH225226   1.971   2.340  11.839  0.0607 -0.5568  0.1521
  344TIP3    H125227   1.876   2.345  11.842  0.1235  1.2929  0.1784
  344TIP3    H225228   1.994   2.353  11.747  0.2927 -0.7708  0.1774
  345TIP3   OH225229   0.135   2.008  13.008 -0.1164  0.0901 -0.5556
  345TIP3    H125230   0.072   2.043  13.071 -1.8133 -1.7462 -1.1142
  345TIP3    H225231   0.187   1.945  13.059  0.0476  0.2816 -0.4871
  346TIP3   OH225232   2.835   6.074  11.846 -0.1673 -0.0893 -0.1170
  346TIP3    H125233   2.814   6.095  11.937  1.1753 -0.8339  0.3811
  346TIP3    H225234   2.772   6.126  11.795 -1.5937 -0.3996  1.2284
  347TIP3   OH225235   1.757   0.441  12.969  0.1512 -0.5276 -0.0199
  347TIP3    H125236   1.718   0.357  12.945  0.4761 -1.0954  1.3470
  347TIP3    H225237   1.779   0.482  12.885  0.4141 -2.0002 -0.7044
  348TIP3   OH225238   4.137   3.309  11.762 -0.4805 -0.2617 -0.1039
  348TIP3    H125239   4.093   3.236  11.717 -1.8878  0.7605 -0.4714
  348TIP3    H225240   4.094   3.387  11.727  1.4480  0.7977 -0.2205
  349TIP3   OH225241   4.461   1.626  12.266  0.4868 -0.1159  0.2439
  349TIP3    H125242   4.545   1.641  12.311  0.8080 -0.4117 -0.2498
  349TIP3    H225243   4.429   1.544  12.303  1.1417 -0.7829 -0.6331
  350TIP3   OH225244   0.886   2.028  11.722  0.3130  0.1692 -0.1100
  350TIP3    H125245   0.885   1.942  11.764 -0.2166 -0.5287 -1.5111
  350TIP3    H225246   0.912   2.012  11.632 -0.1258  1.4295 -0.4929
  351TIP3   OH225247   1.623   7.471  12.563 -0.0165  0.4957 -0.0024
  351TIP3    H125248   1.535   7.462  12.599 -0.1652 -1.5185 -0.7456
  351TIP3    H225249   1.679   7.483  12.640 -0.8246  0.7931  0.5464
  352TIP3   OH225250   6.360   6.073  12.113  0.1874 -0.0273  0.3847
  352TIP3    H125251   6.334   5.999  12.057  0.7850  0.2599 -0.2786
  352TIP3    H225252   6.277   6.112  12.140 -0.1214 -0.5191  0.1636
  353TIP3   OH225253   1.370   4.330  11.068 -0.1131  0.3392  0.2343
  353TIP3    H125254   1.448   4.382  11.088 -0.1590  0.4042  0.2461
  353TIP3    H225255   1.365   4.329  10.972 -1.2915  2.1429  0.2246
  354TIP3   OH225256   6.169   4.751  13.295 -0.2287 -0.2854 -0.3385
  354TIP3    H125257   6.198   4.836  13.262  0.4613 -0.4052 -0.0620
  354TIP3    H225258   6.216   4.687  13.242 -0.5069 -0.4925 -0.3375
  355TIP3   OH225259   3.155   7.083  12.115  0.4923 -0.1008 -0.2780
  355TIP3    H125260   3.106   7.001  12.121  0.4901 -0.1350 -0.7480
  355TIP3    H225261   3.101   7.146  12.163 -0.4452  0.0575 -1.4897
  356TIP3   OH225262   2.760   6.671  13.220  0.4386  0.3783  0.2189
  356TIP3    H125263   2.848   6.699  13.199  0.3488 -0.2956 -1.1424
  356TIP3    H225264   2.703   6.722  13.162 -0.0179  0.2519  0.5427
  357TIP3   OH225265   6.552   0.607  11.413 -0.7993 -0.1140  0.4029
  357TIP3    H125266   6.629   0.589  11.467  0.3003 -1.3931 -1.5164
  357TIP3    H225267   6.586   0.648  11.334 -2.1747 -0.0295 -0.1742
  358TIP3   OH225268   6.883   2.946  11.309  0.9938  0.1885  0.2347
  358TIP3    H125269   6.832   2.983  11.237  0.3879  0.6221  0.8721
  358TIP3    H225270   6.887   2.852  11.289  0.8594  0.3059 -0.3730
  359TIP3   OH225271   5.523   5.290  11.525  0.3482 -0.2689  0.4787
  359TIP3    H125272   5.510   5.289  11.620  1.8586  0.2981  0.7313
  359TIP3    H225273   5.603   5.342  11.513  0.5536 -0.8849 -1.0554
  360TIP3   OH225274   5.574   2.570  12.537  0.1728  0.2025  0.0026
  360TIP3    H125275   5.573   2.477  12.512 -3.1464  0.4939 -1.4496
  360TIP3    H225276   5.601   2.616  12.457 -0.1670  0.5928  0.1100
  361TIP3   OH225277   7.561   2.384  12.885 -0.2790 -0.3623  0.2410
  361TIP3    H125278   7.558   2.355  12.793 -2.0268  1.1349 -0.2184
  361TIP3    H225279   7.511   2.317  12.932  1.0882 -1.4356  0.2269
  362TIP3   OH225280   6.404   2.061  13.195 -0.6065  0.0229  0.1476
  362TIP3    H125281   6.387   2.062  13.289  1.2037  0.8352  0.5078
  362TIP3    H225282   6.355   2.136  13.161  0.0373  0.7256  0.7279
  363TIP3   OH225283   6.084   0.938  13.263 -0.1694  0.1716 -0.4290
  363TIP3    H125284   6.107   0.896  13.347 -2.1623  0.4496  0.3037
  363TIP3    H225285   6.077   0.865  13.202 -0.0671 -0.1862 -0.0258
  364TIP3   OH225286   5.958   2.407  13.444 -0.0969  0.1970 -0.0978
  364TIP3    H125287   5.869   2.440  13.446 -0.1059  0.1493  0.7288
  364TIP3    H225288   5.972   2.380  13.353 -1.6756 -1.8286  0.1765
  365TIP3   OH225289   7.265   1.557  13.849  0.5839  0.8936 -0.5197
  365TIP3    H125290   7.264   1.463  13.832  0.3805  1.1712 -2.2330
  365TIP3    H225291   7.263   1.564  13.945 -1.9299 -0.8286 -0.3417
  366TIP3   OH225292   3.223   6.928  13.548 -0.0196 -0.5472 -0.3276
  366TIP3    H125293   3.132   6.946  13.571  0.6857  0.9382  1.6188
  366TIP3    H225294   3.269   6.927  13.632  1.8816 -0.5115 -1.3064
  367TIP3   OH225295   2.735   1.576  12.228 -0.3034  0.0427  0.0041
  367TIP3    H125296   2.790   1.653  12.211 -0.9366  0.5135  0.0524
  367TIP3    H225297   2.679   1.602  12.301 -2.2643  0.4846 -1.5549
  368TIP3   OH225298   0.692   7.182  11.260  0.1675 -0.6018  0.1837
  368TIP3    H125299   0.653   7.097  11.237 -0.8043  0.1737 -1.1872
  368TIP3    H225300   0.677   7.237  11.183  1.7359  0.5119  0.6299
  369TIP3   OH225301   5.789   5.932  12.272 -0.2310  0.3263  1.1641
  369TIP3    H125302   5.863   5.887  12.312  0.1662  1.0611  1.2747
  369TIP3    H225303   5.754   5.988  12.340 -1.2014 -0.3526  1.2547
  370TIP3   OH225304   0.156   0.075  13.148 -0.0586  0.7031  0.4530
  370TIP3    H125305   0.121   0.047  13.063  0.6093  0.5422  0.2244
  370TIP3    H225306   0.234   0.021  13.161 -0.8828 -0.2229  1.8046
  371TIP3   OH225307   0.117   7.246  13.876 -0.1506  0.1052 -0.5230
  371TIP3    H125308   0.156   7.220  13.792 -0.5595  0.6815 -0.9046
  371TIP3    H225309   0.167   7.199  13.942 -1.2409 -2.1014 -1.1860
  372TIP3   OH225310   1.784   0.158  11.695 -0.2551  0.2586  0.2574
  372TIP3    H125311   1.876   0.178  11.713 -0.8425  1.4161  2.3071
  372TIP3    H225312   1.780   0.144  11.600  2.0147  0.1390  0.1286
  373TIP3   OH225313   2.140   2.683  12.617 -0.2366 -0.7056 -0.2956
  373TIP3    H125314   2.224   2.702  12.576 -0.3864  0.0855 -0.2426
  373TIP3    H225315   2.151   2.595  12.654  0.6339 -0.5370 -0.1279
  374TIP3   OH225316   1.999   0.800  12.839 -0.1193 -0.1035  0.1375
  374TIP3    H125317   2.094   0.810  12.846 -0.3899  1.9420  2.1375
  374TIP3    H225318   1.977   0.732  12.901 -0.0290  0.0264  0.3140
  375TIP3   OH225319   7.152   7.059  12.351 -0.0228  0.0120  0.2116
  375TIP3    H125320   7.116   7.102  12.428 -0.5957 -0.7470  0.3834
  375TIP3    H225321   7.241   7.034  12.376 -0.3020 -0.4746  0.7348
  376TIP3   OH225322   1.203   5.456  11.725  0.5945  0.0564  0.0747
  376TIP3    H125323   1.246   5.450  11.640 -1.0198  1.3340 -0.8922
  376TIP3    H225324   1.231   5.540  11.761 -0.6431  0.6917 -0.3630
  377TIP3   OH225325   5.418   4.432  13.504 -0.3230 -0.3163  0.2922
  377TIP3    H125326   5.495   4.464  13.551  0.3323 -0.2369 -0.8081
  377TIP3    H225327   5.378   4.511  13.468 -0.0040 -0.5063 -0.4908
  378TIP3   OH225328   0.024   4.097  13.064 -0.1369  0.3104  0.0768
  378TIP3    H125329  -0.016   4.012  13.042  0.9912 -0.2452  0.1286
  378TIP3    H225330   0.029   4.143  12.980  2.7959 -1.2283 -0.7009
  379TIP3   OH225331   6.946   5.923  11.611 -0.2815  0.2347  0.5218
  379TIP3    H125332   6.959   6.018  11.605  2.4674 -0.0361  0.8063
  379TIP3    H225333   6.896   5.911  11.692  0.2100  1.4095  1.0343
  380TIP3   OH225334   6.526   0.806  12.955  0.2533  0.0772 -0.6877
  380TIP3    H125335   6.496   0.825  12.866 -0.2302 -0.2431 -0.6012
  380TIP3    H225336   6.531   0.710  12.959 -1.0571  0.0077  0.0289
  381TIP3   OH225337   2.221   4.611  11.344 -0.0708  0.6205 -0.4993
  381TIP3    H125338   2.266   4.648  11.268  0.6759  0.6745 -0.0365
  381TIP3    H225339   2.290   4.594  11.407 -0.6264  0.0891 -0.0247
  382TIP3   OH225340   1.809   1.044  12.090  0.0155 -0.1175 -0.1079
  382TIP3    H125341   1.812   1.139  12.107 -2.6716  0.2669 -1.2259
  382TIP3    H225342   1.854   1.033  12.006  1.3317 -0.0344  0.5634
  383TIP3   OH225343   0.349   7.065  13.979 -0.8612 -0.0998 -0.4154
  383TIP3    H125344   0.414   6.995  13.969  0.4365  1.2763 -2.2733
  383TIP3    H225345   0.390   7.141  13.939 -2.2672  1.7482  1.4567
  384TIP3   OH225346   0.738   6.729  13.824  0.0151  0.7711 -0.4023
  384TIP3    H125347   0.799   6.661  13.852 -1.9024 -0.3008  1.4865
  384TIP3    H225348   0.663   6.720  13.883 -1.0614  3.4323 -1.1940
  385TIP3   OH225349   7.130   1.109  12.970 -0.2796  0.3932 -0.3273
  385TIP3    H125350   7.099   1.183  12.917  1.0261 -0.4212 -2.3674
  385TIP3    H225351   7.225   1.109  12.956 -0.3390 -2.1797 -1.1670
  386TIP3   OH225352   5.188   3.141  12.952 -0.4401 -0.0926  0.4045
  386TIP3    H125353   5.120   3.099  13.005 -0.5723 -0.7771 -0.2942
  386TIP3    H225354   5.165   3.119  12.862  0.0014  0.7312  0.0757
  387TIP3   OH225355   0.227   5.983  10.453  0.2753 -0.4178  0.5501
  387TIP3    H125356   0.165   5.917  10.483  0.0237 -0.6220 -0.3721
  387TIP3    H225357   0.302   5.933  10.422 -0.0820 -0.3098 -0.5277
  388TIP3   OH225358   6.064   6.198  12.655 -0.2650 -0.7692 -0.4372
  388TIP3    H125359   6.130   6.189  12.587 -0.4074  0.2076 -0.7244
  388TIP3    H225360   5.988   6.235  12.611 -0.8062 -1.3193  0.0080
  389TIP3   OH225361   5.967   6.161  11.793 -0.0926  0.4934 -0.1845
  389TIP3    H125362   5.886   6.172  11.843  0.5751  0.7385  0.8605
  389TIP3    H225363   5.945   6.096  11.726 -1.3719  1.1312 -0.4063
  390TIP3   OH225364   1.967   6.994  12.247  0.5505 -0.0826 -0.2255
  390TIP3    H125365   1.978   6.910  12.202 -2.3741  1.0549 -3.4833
  390TIP3    H225366   1.991   7.059  12.181 -1.4968  1.6755  0.6749
  391TIP3   OH225367   4.846   6.694  12.087 -0.0018 -0.3321 -0.0279
  391TIP3    H125368   4.831   6.737  12.003  0.1164 -0.3267 -0.0464
  391TIP3    H225369   4.926   6.735  12.121 -0.4626  0.1895  0.4305
  392TIP3   OH225370   3.699   5.324  13.193  0.3507 -0.2735  0.6351
  392TIP3    H125371   3.759   5.355  13.260  0.8313  0.1810  0.0153
  392TIP3    H225372   3.756   5.290  13.124 -0.0098  1.3663 -0.5487
  393TIP3   OH225373   1.840   3.845  13.075 -0.1891 -0.6654 -0.1243
  393TIP3    H125374   1.899   3.911  13.039 -1.1843  0.0683 -0.4625
  393TIP3    H225375   1.787   3.892  13.139 -0.2798 -1.3510  0.3162
  394TIP3   OH225376   2.574   1.675  12.413  0.0311  0.5058  0.0993
  394TIP3    H125377   2.516   1.620  12.465 -1.2587  0.0545 -1.7324
  394TIP3    H225378   2.517   1.715  12.347  1.6308  0.7668 -1.2054
  395TIP3   OH225379   0.460   3.607  13.024 -0.2291 -0.4887  0.0330
  395TIP3    H125380   0.529   3.553  12.985  0.7907  0.8413 -0.0889
  395TIP3    H225381   0.379   3.562  13.002  0.3780 -0.4331 -2.6540
  396TIP3   OH225382   5.018   6.218  13.453 -0.3924 -0.0979 -0.0429
  396TIP3    H125383   4.959   6.222  13.529  0.4125  0.8021  0.5511
  396TIP3    H225384   5.062   6.302  13.452  0.5635 -0.5882 -0.7590
  397TIP3   OH225385   1.694   0.938  12.710 -0.7009  0.1637  0.0288
  397TIP3    H125386   1.742   1.012  12.674  0.3493  0.3660  1.7353
  397TIP3    H225387   1.629   0.978  12.768  0.8679 -0.2103  2.1542
  398TIP3   OH225388   2.733   7.097  12.006 -0.0121  0.1799  0.4628
  398TIP3    H125389   2.768   7.183  11.981  2.1342 -0.3724  1.4046
  398TIP3    H225390   2.727   7.049  11.924  1.1491  0.4159  0.2249
  399TIP3   OH225391   5.356   4.388  11.843  0.2415  0.1153 -0.5501
  399TIP3    H125392   5.391   4.416  11.758 -1.2877 -0.5743 -1.4386
  399TIP3    H225393   5.262   4.407  11.838  0.1264  0.0854  1.0085
  400TIP3   OH225394   0.626   6.367  12.237 -0.0591  0.4102 -0.5214
  400TIP3    H125395   0.535   6.348  12.260 -0.1573 -0.1026 -1.2983
  400TIP3    H225396   0.624   6.459  12.210 -0.5238  0.1648 -1.3608
  401TIP3   OH225397   2.048   6.737  13.638  0.1140 -0.2624  0.3720
  401TIP3    H125398   2.051   6.651  13.680  0.6457  0.2895  1.4945
  401TIP3    H225399   1.955   6.754  13.625 -0.0199 -0.7586  0.6395
  402TIP3   OH225400   6.905   7.526  11.308  0.0787 -0.5461 -0.2917
  402TIP3    H125401   6.851   7.539  11.386  1.5401 -0.2615  0.7145
  402TIP3    H225402   6.844   7.536  11.235 -0.8924  1.6193  0.7336
  403TIP3   OH225403   2.994   3.395  13.456 -0.9964 -0.4721 -0.3980
  403TIP3    H125404   3.036   3.327  13.403  1.3792  0.0500  0.6792
  403TIP3    H225405   3.023   3.477  13.417 -1.6606 -0.0777 -0.0743
  404TIP3   OH225406   0.694   2.870  11.980  0.3807  0.3377 -0.7244
  404TIP3    H125407   0.787   2.854  11.964  0.7624  2.2483 -0.7677
  404TIP3    H225408   0.668   2.804  12.044  2.0277  0.3346 -0.0147
  405TIP3   OH225409   5.689   3.903  13.021 -0.3670  0.5076 -0.2894
  405TIP3    H125410   5.656   3.814  13.027 -1.7414  1.0144  0.1559
  405TIP3    H225411   5.623   3.956  13.066  0.3662  1.7618 -0.6376
  406TIP3   OH225412   2.057   5.364  11.851 -0.6288  0.1010  0.2489
  406TIP3    H125413   2.116   5.341  11.923  1.9752  0.5347 -1.5880
  406TIP3    H225414   2.056   5.287  11.795 -0.8894  0.5220 -0.3320
  407TIP3   OH225415   0.672   3.758  11.916  0.2753 -0.1978  0.1578
  407TIP3    H125416   0.665   3.819  11.842 -0.0567 -1.6471 -1.0442
  407TIP3    H225417   0.652   3.812  11.993 -0.6009  1.0858 -0.9198
  408TIP3   OH225418   0.803   7.115  12.244  0.4569  0.2245 -0.2041
  408TIP3    H125419   0.762   7.201  12.249 -1.0462 -0.4770  0.3734
  408TIP3    H225420   0.734   7.054  12.272  1.0605 -1.2870 -1.8089
  409TIP3   OH225421   6.419   2.029  12.034 -0.2618  1.0745 -0.4676
  409TIP3    H125422   6.399   2.084  11.958  1.0340  0.5858 -1.1809
  409TIP3    H225423   6.343   1.971  12.041 -1.1011  2.1328 -0.4309
  410TIP3   OH225424   5.783   0.425  13.764  0.0891 -0.2700  0.7915
  410TIP3    H125425   5.712   0.488  13.752 -1.8650 -2.4506  0.1447
  410TIP3    H225426   5.825   0.419  13.678 -0.7192 -0.9109  0.4217
  411TIP3   OH225427   1.659   4.869  12.705  0.6756 -0.1401  0.8169
  411TIP3    H125428   1.730   4.818  12.745  0.1370  0.2502  2.3220
  411TIP3    H225429   1.690   4.960  12.708  0.3838 -0.0409  0.8872
  412TIP3   OH225430   7.308   3.474  12.249 -0.3519 -0.2159  0.5527
  412TIP3    H125431   7.345   3.482  12.337 -1.0998  0.4758  0.8101
  412TIP3    H225432   7.216   3.498  12.259 -0.5161 -0.4237 -0.3664
  413TIP3   OH225433   1.761   0.711  13.071 -0.5904  0.1624  0.2892
  413TIP3    H125434   1.734   0.707  12.980 -1.4774  0.2506  0.5432
  413TIP3    H225435   1.850   0.674  13.071 -0.9663 -0.7817 -0.4541
  414TIP3   OH225436   3.770   0.463  12.198 -0.0098 -0.0228  0.2792
  414TIP3    H125437   3.676   0.475  12.202  0.1818  1.9697  0.1074
  414TIP3    H225438   3.804   0.515  12.271  0.9085 -1.5870  1.0088
  415TIP3   OH225439   7.149   6.157  11.358  0.7886  0.4659  0.1125
  415TIP3    H125440   7.236   6.148  11.397  0.3813 -1.8306  0.6381
  415TIP3    H225441   7.151   6.102  11.280 -0.1442  0.5095  0.0366
  416TIP3   OH225442   4.763   1.506  12.995 -0.7389  0.9958  0.5011
  416TIP3    H125443   4.859   1.510  13.001 -0.8493  2.2446  2.5321
  416TIP3    H225444   4.738   1.438  13.059 -1.2496  1.6190  0.9793
  417TIP3   OH225445   5.406   0.557  12.490 -0.0048 -0.4111  0.2687
  417TIP3    H125446   5.414   0.652  12.494  0.3356 -0.4418  0.3500
  417TIP3    H225447   5.347   0.541  12.417 -2.0607 -0.0472  1.7758
  418TIP3   OH225448   7.515   7.121  12.851  0.0559 -0.1012  0.0827
  418TIP3    H125449   7.542   7.163  12.769  0.5450 -3.1908 -1.5221
  418TIP3    H225450   7.595   7.080  12.883 -1.0181 -2.9154 -0.5642
  419TIP3   OH225451   0.593   0.249  12.801  0.9952 -0.4387 -0.4305
  419TIP3    H125452   0.634   0.285  12.723  1.3770  1.7603  0.6776
  419TIP3    H225453   0.549   0.325  12.842  0.5763 -1.5561  1.3277
  420TIP3   OH225454   4.900   6.681  12.947  0.3756  0.6628 -0.2201
  420TIP3    H125455   4.833   6.730  12.899  0.2807  1.5655  0.8086
  420TIP3    H225456   4.861   6.665  13.033 -0.0171 -2.1639 -0.8228
  421TIP3   OH225457   1.997   3.414  12.946 -0.5075 -0.1713  0.4383
  421TIP3    H125458   1.904   3.419  12.969 -0.7396 -1.0958 -0.2608
  421TIP3    H225459   2.006   3.330  12.901  0.7990 -0.3998  1.0833
  422TIP3   OH225460   6.994   7.007  11.576  0.2193 -0.1012 -0.2982
  422TIP3    H125461   7.073   7.059  11.589 -0.0700  0.5318 -0.9820
  422TIP3    H225462   7.026   6.926  11.535  0.9038 -1.3547  2.5181
  423TIP3   OH225463   6.882   5.948  12.698 -0.0990 -0.4329 -0.1458
  423TIP3    H125464   6.887   5.919  12.607 -0.8773  0.6221 -0.5434
  423TIP3    H225465   6.967   5.926  12.735  0.8884  0.7557 -1.6166
  424TIP3   OH225466   5.897   1.393  12.614 -0.0053  0.5268 -0.1858
  424TIP3    H125467   5.900   1.298  12.627 -1.5310  0.5546  0.5675
  424TIP3    H225468   5.981   1.414  12.574 -1.0420 -1.7175 -4.1911
  425TIP3   OH225469   4.882   5.890  11.608 -0.2594  0.4477  0.8340
  425TIP3    H125470   4.940   5.957  11.645  0.4590  0.3886 -0.1466
  425TIP3    H225471   4.938   5.813  11.596 -0.4285  0.4942 -0.4489
  426TIP3   OH225472   3.264   3.995  13.188 -0.3692 -0.1181 -0.0045
  426TIP3    H125473   3.287   4.086  13.207  1.0268 -0.3787 -0.3908
  426TIP3    H225474   3.296   3.946  13.264 -0.7663 -0.3403  0.0218
  427TIP3   OH225475   0.549   6.562  11.442 -0.1857 -0.7051  0.4682
  427TIP3    H125476   0.485   6.570  11.512 -1.1171  0.8061 -0.5107
  427TIP3    H225477   0.623   6.615  11.471 -1.1090  1.0485 -0.2220
  428TIP3   OH225478   2.879   6.791  12.432  0.3486  0.6225 -0.0219
  428TIP3    H125479   2.823   6.827  12.500 -0.3947  1.1616 -0.9032
  428TIP3    H225480   2.874   6.854  12.360  1.7728  0.4902 -0.2823
  429TIP3   OH225481   4.126   4.052  12.232  0.6992 -0.1132  0.5254
  429TIP3    H125482   4.211   4.052  12.188  0.0343  0.9074 -0.8167
  429TIP3    H225483   4.122   3.967  12.277  1.0370 -1.6703 -2.1875
  430TIP3   OH225484   2.533   3.687  13.256  0.2281  0.3891 -0.0287
  430TIP3    H125485   2.560   3.698  13.347 -0.8584  2.1480  0.1440
  430TIP3    H225486   2.476   3.610  13.257  0.3991  0.2665  0.7468
  431TIP3   OH225487   4.764   7.654  11.689  0.2589 -0.2235  0.1597
  431TIP3    H125488   4.792   7.618  11.773 -0.7921 -2.6260 -0.4316
  431TIP3    H225489   4.718   7.734  11.712  0.0941 -0.7562  1.8705
  432TIP3   OH225490   6.239   7.269  11.956  0.1539 -0.0428  0.3784
  432TIP3    H125491   6.259   7.283  12.048  2.4646 -0.1200 -0.0546
  432TIP3    H225492   6.324   7.253  11.915 -0.4568  2.5444 -2.2300
  433TIP3   OH225493   7.281   6.942  13.730  0.0381  0.1082 -0.4036
  433TIP3    H125494   7.259   6.849  13.727  0.6191 -0.0045 -1.4435
  433TIP3    H225495   7.337   6.951  13.806 -0.7480 -0.2209  0.2347
  434TIP3   OH225496   4.518   3.902  13.238  0.2818  0.2684 -0.2366
  434TIP3    H125497   4.427   3.926  13.254 -0.2004 -1.3877 -0.2873
  434TIP3    H225498   4.567   3.938  13.312 -0.3998  1.2143 -0.2394
  435TIP3   OH225499   1.390   6.174  11.978 -0.0000 -0.1728 -0.2958
  435TIP3    H125500   1.353   6.182  11.890 -0.4754 -1.3637 -0.2211
  435TIP3    H225501   1.370   6.085  12.005  0.6517 -0.0130  0.8008
  436TIP3   OH225502   5.086   3.663  13.158 -0.9593  0.4573 -0.0695
  436TIP3    H125503   5.090   3.757  13.176  1.0136  0.7529 -1.7099
  436TIP3    H225504   5.105   3.655  13.065  1.3479 -1.6915  0.4671
  437TIP3   OH225505   1.784   5.997  12.624  0.6727 -0.3554  0.2802
  437TIP3    H125506   1.860   6.055  12.632  0.7278 -0.3560 -0.1919
  437TIP3    H225507   1.809   5.933  12.557 -0.1729  0.3706 -0.7817
  438TIP3   OH225508   6.240   5.827  11.949  0.4000  0.2549 -0.0438
  438TIP3    H125509   6.162   5.780  11.976 -0.7317  1.7465 -0.5533
  438TIP3    H225510   6.222   5.852  11.858  1.5155  0.5470 -0.2002
  439TIP3   OH225511   5.345   1.835  12.143 -0.1584  0.1484  0.1447
  439TIP3    H125512   5.369   1.781  12.219 -0.7041  0.8299  0.8155
  439TIP3    H225513   5.253   1.856  12.157 -1.3319 -2.5694 -2.4665
  440TIP3   OH225514   4.947   5.456  12.625 -0.2593  0.4179  1.0089
  440TIP3    H125515   4.879   5.480  12.561  0.1278  0.5742  0.6515
  440TIP3    H225516   5.017   5.519  12.609  2.1635 -2.6979 -2.0815
  441TIP3   OH225517   2.248   7.042  12.988  0.1683  0.0967 -0.0792
  441TIP3    H125518   2.209   7.126  12.962  1.7403  0.2543 -2.1605
  441TIP3    H225519   2.188   7.008  13.054 -1.8960  1.6574 -1.0199
  442TIP3   OH225520   3.244   3.215  13.055  0.5884 -0.3686  0.4692
  442TIP3    H125521   3.276   3.228  12.966  0.7856 -0.4852  0.5233
  442TIP3    H225522   3.288   3.136  13.085  0.2098 -0.5635  0.5233
  443TIP3   OH225523   6.972   3.889  11.737  0.4190  0.2681 -0.0218
  443TIP3    H125524   6.971   3.921  11.646  0.6988  0.5659  0.0782
  443TIP3    H225525   6.952   3.966  11.790 -1.5972 -0.2732  0.0750
  444TIP3   OH225526   6.436   6.713  12.144  0.2848  0.5870  0.4486
  444TIP3    H125527   6.407   6.801  12.121  0.5555  1.2942  2.6209
  444TIP3    H225528   6.382   6.689  12.219 -0.7831 -1.7333 -0.9502
  445TIP3   OH225529   7.400   3.781  12.862  0.3129 -0.1368 -0.1373
  445TIP3    H125530   7.444   3.827  12.791  1.1155 -0.7713 -0.0576
  445TIP3    H225531   7.414   3.836  12.939  1.3428 -0.5427 -0.0242
  446TIP3   OH225532   1.686   4.616  13.216 -0.3125 -0.2861 -0.4526
  446TIP3    H125533   1.735   4.571  13.285 -1.0297  0.2532  0.4251
  446TIP3    H225534   1.594   4.604  13.239 -0.5783  2.9375  0.7694
  447TIP3   OH225535   2.023   0.593  13.075 -0.0193 -0.3412 -0.0581
  447TIP3    H125536   2.063   0.580  13.161 -0.2750 -1.8380 -0.1357
  447TIP3    H225537   2.059   0.522  13.021  0.2191  0.6317 -1.2345
  448TIP3   OH225538   3.370   0.791  12.042  0.0886  0.0366 -0.3695
  448TIP3    H125539   3.420   0.710  12.041  0.6203  0.3700 -1.1729
  448TIP3    H225540   3.422   0.852  12.095  0.4658  0.3418 -1.0912
  449TIP3   OH225541   1.981   6.912  10.948  0.4719 -0.0084  0.0407
  449TIP3    H125542   1.957   6.835  10.898  1.6472 -1.1218  1.0922
  449TIP3    H225543   1.926   6.982  10.914  0.3599 -0.9888 -1.8999
  450TIP3   OH225544   0.601   0.742  12.177 -0.2424  0.0545 -0.0923
  450TIP3    H125545   0.658   0.704  12.110 -1.4220  0.4377 -1.3462
  450TIP3    H225546   0.513   0.737  12.140 -1.1026 -0.7947  1.9203
  451TIP3   OH225547   2.492   2.546  12.215  0.0121 -0.5067 -0.6315
  451TIP3    H125548   2.584   2.562  12.238 -0.5405 -0.4084  1.7014
  451TIP3    H225549   2.477   2.602  12.139  1.2953  1.2522  0.3298
  452TIP3   OH225550   7.510   2.658  12.978  0.4229  0.0273  0.3593
  452TIP3    H125551   7.540   2.573  12.946 -2.4314 -0.4910 -1.2943
  452TIP3    H225552   7.533   2.719  12.909 -1.2148 -0.2107 -0.4615
  453TIP3   OH225553   0.963   7.621  13.589 -0.2650 -0.3873 -0.2074
  453TIP3    H125554   0.950   7.689  13.523 -1.5260 -0.8721 -0.5013
  453TIP3    H225555   1.054   7.593  13.577  0.0407  0.7098 -0.5808
  454TIP3   OH225556   6.870   1.567  13.752 -0.0714 -0.2044  0.2831
  454TIP3    H125557   6.945   1.625  13.769  0.7175 -0.7452 -1.2008
  454TIP3    H225558   6.836   1.597  13.668  0.0196 -1.5270 -0.2486
  455TIP3   OH225559   3.199   1.232  12.060  0.1470 -0.1427 -0.7826
  455TIP3    H125560   3.197   1.158  12.122  0.2798  0.1212 -0.4586
  455TIP3    H225561   3.288   1.266  12.067 -0.1176  0.4974 -0.3862
  456TIP3   OH225562   1.467   6.412  12.093 -0.3113 -0.3179 -0.0474
  456TIP3    H125563   1.452   6.321  12.069  0.6824 -0.5200  0.0428
  456TIP3    H225564   1.560   6.416  12.115  0.0548  1.0535 -1.5776
  457TIP3   OH225565   5.994   7.640  10.867  0.7113  0.1521  0.4653
  457TIP3    H125566   5.971   7.552  10.896 -0.2670  0.2340 -0.0176
  457TIP3    H225567   6.086   7.650  10.891  1.1765 -1.4287 -0.4968
  458TIP3   OH225568   2.562   1.079  13.206  0.2842  0.2174 -0.3283
  458TIP3    H125569   2.626   1.134  13.251 -1.2968  1.8890  0.0017
  458TIP3    H225570   2.558   0.999  13.258 -0.0916  1.3272  1.4321
  459TIP3   OH225571   3.105   4.353  10.979 -0.2257  0.0794  0.2927
  459TIP3    H125572   3.110   4.416  10.906 -0.5642 -1.1873 -0.8607
  459TIP3    H225573   3.079   4.406  11.054  1.1652  1.6218 -0.2437
  460TIP3   OH225574   4.398   6.358  10.778 -0.0530 -0.0443 -0.2676
  460TIP3    H125575   4.465   6.422  10.801 -0.0779 -0.6028  1.5188
  460TIP3    H225576   4.428   6.320  10.696  1.2873  0.4450 -0.0289
  461TIP3   OH225577   3.483   2.287  13.289  0.1160  0.7466  0.1007
  461TIP3    H125578   3.561   2.265  13.238  0.4028  1.6471  0.1300
  461TIP3    H225579   3.504   2.372  13.329 -1.6180  1.9969 -1.4784
  462TIP3   OH225580   5.451   2.497  12.212  0.2208 -0.2117 -0.1930
  462TIP3    H125581   5.412   2.477  12.296 -0.9423  1.1656 -0.3621
  462TIP3    H225582   5.405   2.576  12.182  2.2800  0.7599 -0.9872
  463TIP3   OH225583   0.535   6.610  13.395  0.1539 -0.0048 -0.3266
  463TIP3    H125584   0.495   6.663  13.463  0.9883 -0.4918  0.5679
  463TIP3    H225585   0.601   6.668  13.355  1.2231 -0.4033  0.8017
  464TIP3   OH225586   2.194   2.448  12.736  0.0297  0.4175  0.3325
  464TIP3    H125587   2.204   2.373  12.677  0.4621 -0.4426  1.4717
  464TIP3    H225588   2.224   2.416  12.821 -3.1202  0.7782  1.7131
  465TIP3   OH225589   7.378   5.242  13.080 -0.4045  0.6715  0.1913
  465TIP3    H125590   7.419   5.180  13.141  0.6588  0.3557 -0.7984
  465TIP3    H225591   7.446   5.258  13.015 -1.2090  1.7099 -0.4036
  466TIP3   OH225592   4.911   6.201  11.682 -0.1465 -0.2628  0.1463
  466TIP3    H125593   4.877   6.180  11.769 -0.4151  1.3968  0.4670
  466TIP3    H225594   4.880   6.290  11.665  0.2999 -0.3862 -1.4548
  467TIP3   OH225595   0.957   3.468  12.831 -0.6017 -0.0123  0.1829
  467TIP3    H125596   0.873   3.472  12.785 -0.2704 -0.1580 -0.4372
  467TIP3    H225597   0.954   3.544  12.890 -2.1856 -1.3601  1.9575
  468TIP3   OH225598   1.608   6.594  13.805  0.3515  0.1930 -0.2596
  468TIP3    H125599   1.614   6.520  13.865 -1.9397 -1.1324 -1.5430
  468TIP3    H225600   1.692   6.595  13.760  0.3949 -1.7343 -0.3014
  469TIP3   OH225601   4.723   4.234  13.648  0.0544 -0.5079 -0.1898
  469TIP3    H125602   4.774   4.263  13.723 -1.3225 -3.1711  1.9839
  469TIP3    H225603   4.657   4.301  13.635  1.0571  0.5719  0.1475
  470TIP3   OH225604   2.603   2.151  12.574 -0.3634 -0.1801  0.0289
  470TIP3    H125605   2.532   2.090  12.551  0.4988 -0.7862 -1.1572
  470TIP3    H225606   2.607   2.211  12.500  1.4976 -1.2494 -0.8155
  471TIP3   OH225607   3.882   2.978  11.821 -0.0243  0.5758 -0.6682
  471TIP3    H125608   3.862   2.901  11.768  1.1018 -1.5419  1.7905
  471TIP3    H225609   3.963   3.012  11.785 -0.3866  0.4605 -1.6087
  472TIP3   OH225610   3.178   0.894  11.641 -0.1161 -0.2001 -0.0334
  472TIP3    H125611   3.160   0.871  11.733  1.7518  0.0899  0.4441
  472TIP3    H225612   3.231   0.822  11.608  2.7019  1.5349  0.3904
  473TIP3   OH225613   6.542   1.784  12.677 -0.1003  0.4814 -0.3068
  473TIP3    H125614   6.565   1.876  12.691 -2.0476  0.9989 -0.1759
  473TIP3    H225615   6.471   1.768  12.739  0.6369 -1.3274  0.1352
  474TIP3   OH225616   7.534   0.267  11.787  0.3936  0.0615 -0.5250
  474TIP3    H125617   7.538   0.195  11.849 -1.0136  0.1589 -0.2883
  474TIP3    H225618   7.622   0.305  11.788  0.7589 -0.7718  0.3928
  475TIP3   OH225619   6.964   4.864  12.366  0.4673 -0.3774 -0.8162
  475TIP3    H125620   7.015   4.810  12.305 -0.6642 -2.1617 -0.2575
  475TIP3    H225621   7.030   4.907  12.421  1.4583 -2.8138  0.0559
  476TIP3   OH225622   1.422   5.354  13.867  0.9694 -0.8007  0.2690
  476TIP3    H125623   1.408   5.260  13.859 -1.2930 -0.6657  1.6549
  476TIP3    H225624   1.478   5.363  13.945  0.3006 -0.9909  0.7853
  477TIP3   OH225625   1.538   4.375  13.643  0.3572  0.2873 -0.4508
  477TIP3    H125626   1.560   4.469  13.650  2.5323 -0.2676  2.0855
  477TIP3    H225627   1.452   4.367  13.685  0.5211  1.0640  0.0578
  478TIP3   OH225628   4.037   3.562  11.621  0.1174 -0.0408  0.4805
  478TIP3    H125629   4.125   3.599  11.631  0.2095  0.2164 -1.0268
  478TIP3    H225630   4.033   3.533  11.530 -1.9062  1.4734  0.0125
  479TIP3   OH225631   3.728   2.803  12.968  0.0365 -0.0896 -0.6157
  479TIP3    H125632   3.740   2.777  12.876 -1.1079  0.2822 -0.8883
  479TIP3    H225633   3.674   2.734  13.005 -1.1444  0.7263 -0.7548
  480TIP3   OH225634   4.592   4.816  11.420 -1.1696 -0.5125 -0.1627
  480TIP3    H125635   4.634   4.732  11.439 -0.4510 -0.2544 -0.5727
  480TIP3    H225636   4.632   4.877  11.481 -0.5486 -0.1546 -0.9141
  481TIP3   OH225637   3.355   6.148  13.863 -0.1333  0.4856 -0.0940
  481TIP3    H125638   3.271   6.155  13.909 -0.2447 -0.8332 -0.0668
  481TIP3    H225639   3.421   6.165  13.931 -0.3047 -1.1308  0.5126
  482TIP3   OH225640   5.229   2.859  12.687 -0.1353 -0.4825  0.0590
  482TIP3    H125641   5.193   2.772  12.666  1.0622 -1.0675  0.3301
  482TIP3    H225642   5.242   2.857  12.782  1.8023 -0.8015 -0.1713
  483TIP3   OH225643   0.856   5.129  11.282  0.5450  0.0261  0.1025
  483TIP3    H125644   0.880   5.037  11.270 -0.1832 -0.2231  0.5102
  483TIP3    H225645   0.937   5.172  11.308  0.7757 -0.5945  0.4198
  484TIP3   OH225646   1.214   3.852  13.082 -0.1441  0.5697 -0.0105
  484TIP3    H125647   1.219   3.831  12.989  2.3322 -0.2410  0.2311
  484TIP3    H225648   1.293   3.813  13.120 -1.4432  0.2317  2.5833
  485TIP3   OH225649   1.370   5.715  13.343 -0.6007 -0.2072  0.1749
  485TIP3    H125650   1.409   5.690  13.426 -0.4058 -0.7982 -0.0890
  485TIP3    H225651   1.443   5.745  13.289 -0.7891  0.6609  0.3758
  486TIP3   OH225652   5.515   2.690  12.974  0.2494  0.0632 -1.1639
  486TIP3    H125653   5.545   2.606  12.940  0.8146 -1.1825  2.1040
  486TIP3    H225654   5.422   2.693  12.951 -0.2517 -2.3870  0.1913
  487TIP3   OH225655   4.051   2.838  12.274 -0.3645  0.4084 -0.3066
  487TIP3    H125656   4.047   2.836  12.178 -1.4886  1.2933 -0.3017
  487TIP3    H225657   4.036   2.747  12.300 -2.1783  0.4660 -0.9572
  488TIP3   OH225658   5.406   2.202  13.176 -0.5268  0.0546 -0.1341
  488TIP3    H125659   5.486   2.238  13.138 -0.6604  1.3148  0.6936
  488TIP3    H225660   5.336   2.254  13.138 -0.8169  0.0324  0.3571
  489TIP3   OH225661   2.291   7.622  11.167  0.1455  0.0604 -0.7923
  489TIP3    H125662   2.258   7.550  11.221  0.4708 -0.5211 -1.3519
  489TIP3    H225663   2.369   7.653  11.213  0.4487 -0.4626 -0.9448
  490TIP3   OH225664   4.690   1.937  12.471  0.5167 -0.2970  0.4471
  490TIP3    H125665   4.673   1.843  12.469  0.2700 -0.2688  0.8729
  490TIP3    H225666   4.779   1.945  12.503  0.6488 -0.3949  0.1034
  491TIP3   OH225667   4.668   4.579  11.493 -0.5605 -0.3079  0.2794
  491TIP3    H125668   4.704   4.559  11.580  1.3824  3.2381  0.4809
  491TIP3    H225669   4.738   4.555  11.432 -0.8367 -0.2382 -0.0662
  492TIP3   OH225670   6.785   6.993  11.989 -0.4039 -0.2595  0.1761
  492TIP3    H125671   6.832   7.041  12.057  0.5771  0.1461 -0.7625
  492TIP3    H225672   6.841   6.918  11.970 -0.9475 -0.6792  0.1996
  493TIP3   OH225673   1.764   6.853  11.152 -0.5158 -0.1691  0.1470
  493TIP3    H125674   1.811   6.909  11.091  0.4572 -0.8950  0.1908
  493TIP3    H225675   1.708   6.798  11.097  0.7784 -1.2121 -0.1728
  494TIP3   OH225676   5.206   3.448  12.785 -0.1867 -0.4512  0.0260
  494TIP3    H125677   5.148   3.383  12.825 -0.7286 -1.8752 -2.8665
  494TIP3    H225678   5.280   3.397  12.751  0.7311  0.8229  0.0248
  495TIP3   OH225679   2.826   0.244  12.368 -0.1464 -0.0989  0.0729
  495TIP3    H125680   2.805   0.337  12.365  1.0341  0.1865 -2.8829
  495TIP3    H225681   2.751   0.204  12.411  0.2461  2.3556  3.3854
  496TIP3   OH225682   3.424   5.464  12.497  0.5514  0.3600  0.4163
  496TIP3    H125683   3.381   5.465  12.412 -0.8854  0.3711  1.1094
  496TIP3    H225684   3.409   5.376  12.531  1.5933  0.1816  0.4316
  497TIP3   OH225685   2.921   5.710  12.230  0.5248  0.1579 -0.3411
  497TIP3    H125686   2.895   5.800  12.247 -0.1550  0.3193 -2.0062
  497TIP3    H225687   3.010   5.703  12.265 -0.1263  0.8704  1.5763
  498TIP3   OH225688   1.980   1.422  11.675 -0.2878 -0.7032  0.4106
  498TIP3    H125689   2.037   1.409  11.599  0.7619  1.5249  0.7189
  498TIP3    H225690   1.925   1.497  11.651  1.1668  1.1357  2.3227
  499TIP3   OH225691   4.353   5.861  11.589  0.2389 -0.1847  0.7998
  499TIP3    H125692   4.440   5.895  11.611 -0.3720  1.0895  1.3363
  499TIP3    H225693   4.349   5.865  11.494 -0.0996  2.1082  0.8569
  500TIP3   OH225694   0.352   6.761  11.381 -0.2307 -0.1701 -0.2077
  500TIP3    H125695   0.348   6.666  11.376  0.5435 -0.2050 -0.2777
  500TIP3    H225696   0.280   6.785  11.439 -0.1981 -0.8277  0.1129
  501TIP3   OH225697   5.555   2.704  13.279 -0.0031  0.1238 -0.3341
  501TIP3    H125698   5.488   2.755  13.325 -0.0100  0.2407 -0.4760
  501TIP3    H225699   5.531   2.710  13.187  0.6207  0.7729 -0.4576
  502TIP3   OH225700   0.952   4.468  13.022  0.2151  0.6519  0.0217
  502TIP3    H125701   1.000   4.478  12.940  1.7214 -2.2358  0.4251
  502TIP3    H225702   0.864   4.501  13.003  0.8000  0.9811 -2.4215
  503TIP3   OH225703   6.596   0.975  12.471 -0.0535 -0.0984 -0.4792
  503TIP3    H125704   6.544   0.957  12.393 -0.0219  0.2280 -0.5764
  503TIP3    H225705   6.542   1.035  12.522 -0.2920 -0.7041 -0.0116
  504TIP3   OH225706   5.680   2.100  12.991 -0.3301 -0.3553  0.3479
  504TIP3    H125707   5.718   2.030  13.044 -0.4659 -0.2076  0.6414
  504TIP3    H225708   5.587   2.080  12.988 -0.4286  0.0229  0.7571
  505TIP3   OH225709   0.011   1.921  10.995  0.3322  0.1220  0.1460
  505TIP3    H125710   0.089   1.914  10.941 -0.3862 -2.4572 -0.7060
  505TIP3    H225711  -0.061   1.897  10.937 -0.4325 -3.2593  2.2207
  506TIP3   OH225712   6.793   4.633  12.820  0.0309 -0.1239 -0.3979
  506TIP3    H125713   6.726   4.577  12.781  1.4534  0.0348 -3.3452
  506TIP3    H225714   6.756   4.721  12.815 -0.1459 -0.2122 -0.6839
  507TIP3   OH225715   3.010   5.598  11.246 -0.1257 -0.6202 -0.4563
  507TIP3    H125716   3.045   5.662  11.307 -0.3851 -0.9673  0.0612
  507TIP3    H225717   3.075   5.527  11.244 -0.1507 -0.6425 -0.5301
  508TIP3   OH225718   2.043   2.499  11.332 -0.1739  0.0035  0.6647
  508TIP3    H125719   2.015   2.531  11.246  2.6387  1.4729  0.1952
  508TIP3    H225720   2.096   2.421  11.312  0.1451  0.1094  1.1033
  509TIP3   OH225721   7.545   0.573  12.082  0.0393  0.9294 -0.2606
  509TIP3    H125722   7.462   0.561  12.128 -0.5377  1.6512 -1.0806
  509TIP3    H225723   7.565   0.487  12.045 -0.4920  0.8290 -0.3175
  510TIP3   OH225724   1.820   6.965  12.509  0.2783 -0.5707 -0.1745
  510TIP3    H125725   1.739   7.012  12.488 -0.7307 -2.0915  0.1392
  510TIP3    H225726   1.871   6.968  12.428 -0.6243 -0.6183 -0.7656
  511TIP3   OH225727   0.920   7.408  13.771  0.0637  0.3964  0.1521
  511TIP3    H125728   0.950   7.484  13.721 -0.8415  0.0438 -0.9695
  511TIP3    H225729   1.000   7.365  13.800  0.7470 -0.5132 -2.7450
  512TIP3   OH225730   0.022   7.653  13.349  0.2784 -0.0912 -0.0299
  512TIP3    H125731   0.058   7.700  13.274 -2.3111 -0.0855 -1.3972
  512TIP3    H225732   0.019   7.719  13.419  1.7107  0.2114 -0.2199
  513TIP3   OH225733   5.234   7.375  12.602  0.0560 -0.0043  0.2365
  513TIP3    H125734   5.228   7.324  12.682  0.1546 -0.8196 -0.2674
  513TIP3    H225735   5.325   7.402  12.596  0.1318 -0.2674  0.2046
  514TIP3   OH225736   7.027   0.732  11.608  0.2643  0.1942 -0.3986
  514TIP3    H125737   7.085   0.697  11.676  1.6460  0.4359 -1.4182
  514TIP3    H225738   6.974   0.657  11.581 -0.5818  0.1747  1.1735
  515TIP3   OH225739   6.071   4.653  12.964 -0.1118  0.0028  0.2261
  515TIP3    H125740   6.005   4.721  12.956 -1.5954 -1.4404 -0.5191
  515TIP3    H225741   6.037   4.594  13.031 -1.5229 -2.6946 -2.5907
  516TIP3   OH225742   7.000   1.792  13.881 -0.2505  0.0920  0.1683
  516TIP3    H125743   6.970   1.794  13.972 -0.2379  0.5337  0.1663
  516TIP3    H225744   6.947   1.858  13.837 -0.3842 -0.2541 -0.1874
  517TIP3   OH225745   1.783   2.679  11.848 -0.3027 -0.2884 -0.1633
  517TIP3    H125746   1.762   2.771  11.833 -1.4706  0.0080  2.6795
  517TIP3    H225747   1.726   2.631  11.788 -1.4832  0.8084  0.0263
  518TIP3   OH225748   5.439   1.258  11.756 -0.4831 -0.0209 -0.1076
  518TIP3    H125749   5.465   1.195  11.689  0.8553 -0.6995  0.9910
  518TIP3    H225750   5.521   1.283  11.799 -1.3690 -0.3983  1.9428
  519TIP3   OH225751   0.236   1.174  12.795 -0.2739 -0.1653  0.3179
  519TIP3    H125752   0.257   1.112  12.865  0.2700 -1.7117 -1.1435
  519TIP3    H225753   0.141   1.186  12.801 -0.1615  0.1911  1.6596
  520TIP3   OH225754   6.059   0.661  12.608  0.3732  0.1226 -0.1174
  520TIP3    H125755   5.969   0.630  12.605 -0.3508  2.1620 -2.4143
  520TIP3    H225756   6.111   0.584  12.584 -0.7727 -0.9249  0.6462
  521TIP3   OH225757   2.148   7.669  12.015 -0.1286 -0.4470 -1.0003
  521TIP3    H125758   2.070   7.613  12.018 -0.3180 -0.2192 -1.6400
  521TIP3    H225759   2.217   7.612  11.981 -0.2548 -0.3708 -1.3856
  522TIP3   OH225760   4.855   5.234  13.313  0.3336  0.2482  0.1991
  522TIP3    H125761   4.903   5.277  13.242 -0.5458  0.8646 -0.0385
  522TIP3    H225762   4.913   5.164  13.342  0.2976 -0.6701 -1.8010
  523TIP3   OH225763   0.219   1.502  12.990  0.4663 -0.0383 -1.2346
  523TIP3    H125764   0.258   1.419  13.016 -2.0601 -0.2574  2.5724
  523TIP3    H225765   0.126   1.483  12.978  0.3698  1.6260 -3.8532
  524TIP3   OH225766   5.573   1.063  12.773  0.1474  0.0856 -0.1578
  524TIP3    H125767   5.624   1.037  12.849  1.0605 -1.1940 -1.1666
  524TIP3    H225768   5.637   1.095  12.710 -0.7975  3.8915  0.5365
  525TIP3   OH225769   4.317   5.754  12.108  0.3559 -0.3789  0.0029
  525TIP3    H125770   4.362   5.751  12.193  1.2807 -2.1786 -0.5032
  525TIP3    H225771   4.381   5.792  12.048  0.5138 -1.1330 -0.3190
  526TIP3   OH225772   7.270   2.683  11.231  0.4129  0.4019  0.1072
  526TIP3    H125773   7.251   2.773  11.204  0.9057  0.4224 -0.1873
  526TIP3    H225774   7.239   2.628  11.159  0.4849  0.3628  0.1067
  527TIP3   OH225775   0.921   7.036  13.536  0.1306 -0.0148  0.1489
  527TIP3    H125776   0.943   7.118  13.491  0.8996  0.1354  0.7949
  527TIP3    H225777   0.983   7.030  13.608  1.1715 -1.9919 -0.8513
  528TIP3   OH225778   6.694   3.218  12.036 -0.1952 -0.1915  0.1005
  528TIP3    H125779   6.719   3.137  11.992  0.5422 -0.3073  0.7047
  528TIP3    H225780   6.632   3.191  12.104 -0.9269 -0.0785 -0.5079
  529TIP3   OH225781   4.303   3.637  11.598 -0.0449 -0.0338 -0.0636
  529TIP3    H125782   4.351   3.709  11.639  0.5024 -1.3976  1.8280
  529TIP3    H225783   4.362   3.561  11.607 -1.4130 -1.1531 -0.2199
  530TIP3   OH225784   1.237   0.770  12.666 -0.2704 -0.0704  0.4111
  530TIP3    H125785   1.262   0.861  12.683 -0.3715 -0.2063  1.3889
  530TIP3    H225786   1.206   0.769  12.576 -0.3560  0.8849  0.4237
  531TIP3   OH225787   5.223   4.159  12.442 -0.0345  0.6371  0.1313
  531TIP3    H125788   5.234   4.152  12.537  1.0347  0.5413  0.0192
  531TIP3    H225789   5.238   4.070  12.410 -3.9879 -0.1844  0.1305
  532TIP3   OH225790   5.705   7.439  12.991 -0.0743  0.1855 -0.0481
  532TIP3    H125791   5.627   7.478  12.952 -0.5793  0.6146  1.3508
  532TIP3    H225792   5.770   7.442  12.920 -0.2615  3.0479 -0.2324
  533TIP3   OH225793   2.364   5.141  12.661  0.4354 -0.0314 -0.3111
  533TIP3    H125794   2.324   5.056  12.678  0.8989 -0.1360  0.2644
  533TIP3    H225795   2.410   5.129  12.578  1.5180 -0.7165  0.3636
  534TIP3   OH225796   2.490   2.745  12.752 -0.4360 -0.1488  0.0236
  534TIP3    H125797   2.554   2.676  12.771  1.6783  2.0595  1.5071
  534TIP3    H225798   2.477   2.739  12.658  2.4714 -0.3791 -0.4811
  535TIP3   OH225799   4.235   6.371  11.566 -0.0827  0.3513 -0.0646
  535TIP3    H125800   4.220   6.277  11.561  2.0416  0.0123 -1.6631
  535TIP3    H225801   4.236   6.400  11.475  2.0536  1.3701  0.2209
  536TIP3   OH225802   0.776   7.134  13.169  0.2753 -0.3539 -0.3506
  536TIP3    H125803   0.842   7.179  13.117 -0.1917 -0.0265 -0.6673
  536TIP3    H225804   0.739   7.202  13.225 -0.8280 -0.2006 -1.2307
  537TIP3   OH225805   6.417   0.405  11.643 -0.4932 -0.1719 -0.5344
  537TIP3    H125806   6.421   0.334  11.579  0.0374  0.7582 -1.5688
  537TIP3    H225807   6.347   0.380  11.704 -0.6639 -1.3121 -1.1913
  538TIP3   OH225808   3.263   0.817  13.129  0.4269  0.7250  0.6170
  538TIP3    H125809   3.183   0.817  13.180  1.0034 -1.1408  1.6270
  538TIP3    H225810   3.270   0.906  13.094 -2.6866  0.6271 -0.5399
  539TIP3   OH225811   4.651   5.018  11.590 -0.0726  0.8438  0.1373
  539TIP3    H125812   4.624   5.108  11.578  0.1357  0.9359  0.3444
  539TIP3    H225813   4.650   5.005  11.685  1.5520  1.1555  0.2363
  540TIP3   OH225814   4.516   7.503  13.074 -0.4604  0.4603 -0.2446
  540TIP3    H125815   4.588   7.440  13.069 -0.8832  0.0731 -2.9133
  540TIP3    H225816   4.504   7.518  13.167  1.7189 -1.0184  0.3551
  541TIP3   OH225817   0.533   2.843  11.718 -0.1216  0.3294  0.9146
  541TIP3    H125818   0.604   2.860  11.656 -0.1995 -2.1249  0.0506
  541TIP3    H225819   0.576   2.806  11.795 -0.4180 -2.0657  0.0296
  542TIP3   OH225820   7.247   6.821  11.079  0.0193  0.0846 -0.1775
  542TIP3    H125821   7.314   6.883  11.108  0.4612 -0.0430 -0.9017
  542TIP3    H225822   7.291   6.768  11.012 -0.6102 -0.4423 -0.1816
  543TIP3   OH225823   6.667   7.501  11.455  0.0175 -0.3410 -0.2788
  543TIP3    H125824   6.625   7.567  11.400  0.2834  1.4090  1.5205
  543TIP3    H225825   6.625   7.419  11.430 -1.7027  0.7701 -1.2624
  544TIP3   OH225826   1.372   2.917  12.674 -0.6490 -0.2886 -0.1397
  544TIP3    H125827   1.344   2.867  12.597  1.1581 -1.0021 -0.4020
  544TIP3    H225828   1.444   2.972  12.642 -1.3748  1.1237  0.5689
  545TIP3   OH225829   2.316   6.065  13.393  0.1852  0.2817 -0.1464
  545TIP3    H125830   2.312   5.972  13.372 -3.7691  0.2592  0.0066
  545TIP3    H225831   2.301   6.069  13.487  1.4696  1.0771  0.0479
  546TIP3   OH225832   6.067   7.024  11.965  0.1349  0.3208  0.3899
  546TIP3    H125833   6.100   7.089  12.027  0.0592 -1.2440  2.1583
  546TIP3    H225834   5.974   7.015  11.987  0.0381 -0.0506 -0.1587
  547TIP3   OH225835   4.338   3.394  11.943  0.3882  0.3872 -0.5013
  547TIP3    H125836   4.260   3.371  11.893  0.9632 -1.4434 -0.6286
  547TIP3    H225837   4.306   3.409  12.032  0.1233 -2.9518  0.0767
  548TIP3   OH225838   1.442   6.630  11.294 -0.5138 -0.0579  0.1637
  548TIP3    H125839   1.377   6.570  11.258 -0.8619  0.5012 -0.1467
  548TIP3    H225840   1.434   6.620  11.389 -2.0850  1.0692  0.1815
  549TIP3   OH225841   7.067   7.127  11.915 -0.3481 -0.9740 -0.4403
  549TIP3    H125842   7.004   7.114  11.844 -0.5580  0.7085 -0.6002
  549TIP3    H225843   7.063   7.220  11.934  3.4117 -0.3744 -1.7232
  550TIP3   OH225844   1.085   4.069  11.008 -0.1816 -0.6385  0.7176
  550TIP3    H125845   1.061   4.030  10.924 -0.8853  2.0286 -0.4058
  550TIP3    H225846   1.168   4.028  11.031 -0.8509 -2.7193 -0.3555
  551TIP3   OH225847   3.042   3.595  12.329  0.6220  0.3536 -0.1112
  551TIP3    H125848   3.132   3.623  12.312  0.8521 -0.6776 -0.6780
  551TIP3    H225849   3.020   3.539  12.254 -0.2073 -0.0677  0.4307
  552TIP3   OH225850   7.271   6.229  12.622 -0.1171  0.2370 -0.0201
  552TIP3    H125851   7.272   6.133  12.624 -1.9856  0.1499 -1.3089
  552TIP3    H225852   7.194   6.254  12.673  0.0847  1.0448 -0.0886
  553TIP3   OH225853   3.123   6.525  12.843  0.6829  0.0157 -0.2471
  553TIP3    H125854   3.035   6.564  12.837  0.3691 -0.8206 -1.4011
  553TIP3    H225855   3.182   6.599  12.827  0.2092  0.5840  0.5256
  554TIP3   OH225856   2.988   5.856  11.803  0.2195  0.5160  0.1811
  554TIP3    H125857   2.919   5.921  11.820 -0.7625 -0.5063  0.2445
  554TIP3    H225858   3.024   5.837  11.890  0.5041  0.9539  0.1644
  555TIP3   OH225859   5.137   2.121  13.523 -0.3608 -0.0003  1.1225
  555TIP3    H125860   5.174   2.203  13.556  0.5706 -0.0274  0.1902
  555TIP3    H225861   5.175   2.053  13.579 -0.7852  0.1566  1.6110
  556TIP3   OH225862   3.751   2.180  11.460 -0.5066  0.6971 -0.1101
  556TIP3    H125863   3.815   2.208  11.395  0.0028 -0.0348  0.0684
  556TIP3    H225864   3.738   2.087  11.444 -0.0142  0.3947  1.1187
  557TIP3   OH225865   3.933   0.098  12.783 -0.2288  0.2089  0.0148
  557TIP3    H125866   3.852   0.049  12.795  1.0937 -2.2449 -0.4923
  557TIP3    H225867   3.982   0.047  12.719  0.9893  2.6095 -1.0892
  558TIP3   OH225868   0.064   6.994  12.968 -0.3610 -0.9310  0.3175
  558TIP3    H125869   0.074   7.032  13.056 -1.9064 -0.8974  0.5053
  558TIP3    H225870   0.135   7.033  12.917 -1.4430  1.7334  0.6816
  559TIP3   OH225871   6.524   6.100  11.094 -0.5718  0.1470 -0.2633
  559TIP3    H125872   6.588   6.087  11.023  1.3483  0.0530  1.4094
  559TIP3    H225873   6.577   6.121  11.171 -2.4987 -1.0499  1.4878
  560TIP3   OH225874   2.636   5.199  10.854  0.0315  0.2687  0.0036
  560TIP3    H125875   2.562   5.234  10.903 -0.5751 -1.6427  0.5675
  560TIP3    H225876   2.635   5.247  10.771 -1.5621  0.6237  0.1927
  561TIP3   OH225877   7.103   4.000  12.253 -0.2114 -0.6057  0.2717
  561TIP3    H125878   7.126   3.971  12.164  1.7955 -0.6776  0.7484
  561TIP3    H225879   7.173   4.061  12.276 -0.6205 -0.6891  1.8461
  562TIP3   OH225880   4.414   5.217  12.686  0.3678  0.0867  0.3656
  562TIP3    H125881   4.480   5.261  12.633 -0.9468 -0.1821 -1.5848
  562TIP3    H225882   4.452   5.132  12.707  2.0174  1.1966  2.2873
  563TIP3   OH225883   0.739   7.546  11.025 -0.4553 -0.0934  0.6765
  563TIP3    H125884   0.680   7.473  11.044  0.7790 -1.4354 -0.3738
  563TIP3    H225885   0.812   7.506  10.978  0.6363  1.7233  0.7225
  564TIP3   OH225886   1.658   3.873  11.842  0.2307  0.4478  0.2431
  564TIP3    H125887   1.687   3.846  11.929  0.1609 -2.5363 -0.5473
  564TIP3    H225888   1.568   3.839  11.835  0.6013 -0.2931 -1.3403
  565TIP3   OH225889   2.189   2.973  12.843  0.2909  0.1680 -0.0676
  565TIP3    H125890   2.227   3.043  12.790  2.9835 -1.3376 -0.3001
  565TIP3    H225891   2.115   2.941  12.791 -0.5057  2.2292 -0.3142
  566TIP3   OH225892   0.924   6.925  12.910  0.1581 -0.1967  0.0214
  566TIP3    H125893   1.002   6.981  12.904 -1.1795  1.7293 -0.1455
  566TIP3    H225894   0.921   6.878  12.827  0.4543  0.6800 -0.4975
  567TIP3   OH225895   2.487   0.128  13.362 -0.2004  0.2462  0.4290
  567TIP3    H125896   2.497   0.183  13.440  1.7912 -0.2207  0.5768
  567TIP3    H225897   2.567   0.146  13.311 -0.0395 -1.6507 -0.0524
  568TIP3   OH225898   5.943   5.979  12.786 -0.0507 -0.5517 -0.1466
  568TIP3    H125899   5.961   5.962  12.878  0.2503 -1.1066 -0.2995
  568TIP3    H225900   5.979   6.067  12.770  1.1262 -0.9919 -0.0514
  569TIP3   OH225901   2.173   6.425  13.413  0.1527  0.5051  0.0206
  569TIP3    H125902   2.086   6.405  13.448 -0.1135 -0.2127 -1.0034
  569TIP3    H225903   2.172   6.390  13.324  1.1657  1.3511 -0.3499
  570TIP3   OH225904   0.517   6.710  13.974 -0.5679  0.0808  0.6195
  570TIP3    H125905   0.445   6.735  13.916 -0.8142  0.0462  0.9079
  570TIP3    H225906   0.474   6.671  14.050 -0.5294  3.4455  2.5849
  571TIP3   OH225907   1.161   0.844  11.270 -0.0789 -0.1883 -0.1155
  571TIP3    H125908   1.139   0.767  11.217 -1.5841 -0.3785  0.7371
  571TIP3    H225909   1.101   0.840  11.344  1.5966  0.3863  1.3431
  572TIP3   OH225910   2.916   1.148  11.673  0.1901  0.2592 -0.3861
  572TIP3    H125911   2.956   1.140  11.759  0.2477  0.6741 -0.3708
  572TIP3    H225912   2.965   1.219  11.630  0.6483 -0.4279 -1.0358
  573TIP3   OH225913   2.269   2.099  11.095  0.1352 -0.0788  0.0732
  573TIP3    H125914   2.181   2.125  11.068  0.6298 -0.6538 -2.2892
  573TIP3    H225915   2.254   2.023  11.152 -0.9096  0.0278 -0.0328
  574TIP3   OH225916   2.989   6.112  13.084  0.2533  0.0724  0.2115
  574TIP3    H125917   2.996   6.179  13.016 -0.5727 -0.8710 -0.8493
  574TIP3    H225918   2.912   6.137  13.135  0.6091  0.5357  0.5288
  575TIP3   OH225919   5.410   3.860  12.699  0.1193 -0.3229 -0.0501
  575TIP3    H125920   5.487   3.910  12.673  0.5742 -0.8685  0.2117
  575TIP3    H225921   5.393   3.803  12.625  0.1709 -0.4326  0.0218
  576TIP3   OH225922   5.093   7.317  13.150  0.0279 -0.6159 -0.0767
  576TIP3    H125923   5.143   7.310  13.231 -1.1644  1.0548  0.8684
  576TIP3    H225924   5.137   7.258  13.089  1.3365 -1.4318  1.5879
  577TIP3   OH225925   5.445   3.889  12.064  0.1636  0.0823 -0.2487
  577TIP3    H125926   5.425   3.822  12.129  2.2151  0.0161  0.3770
  577TIP3    H225927   5.446   3.841  11.981  1.6655 -0.7251  0.1982
  578TIP3   OH225928   2.162   2.850  13.083 -0.6897 -0.7020  0.0989
  578TIP3    H125929   2.156   2.894  12.998 -0.8566  2.2681  1.5127
  578TIP3    H225930   2.253   2.820  13.087  0.2056  1.7665 -0.0140
  579TIP3   OH225931   0.418   6.286  11.874 -0.1920  0.2203 -0.5114
  579TIP3    H125932   0.380   6.198  11.864 -2.2780  1.1664 -1.6982
  579TIP3    H225933   0.377   6.320  11.953  2.1225 -0.5158  1.0910
  580TIP3   OH225934   3.056   6.595  12.233  0.0194 -0.3343 -0.0905
  580TIP3    H125935   3.040   6.504  12.210  1.4399 -0.8572  0.8220
  580TIP3    H225936   3.027   6.602  12.324 -0.2794  0.1900 -0.2218
  581TIP3   OH225937   0.050   0.769  12.721  0.1815  0.2830  0.0033
  581TIP3    H125938  -0.035   0.784  12.763  0.0838 -1.3286  0.4706
  581TIP3    H225939   0.075   0.854  12.685 -2.4999  0.4026 -1.7952
  582TIP3   OH225940   0.756   2.435  12.505 -0.2115 -0.2640  0.0314
  582TIP3    H125941   0.734   2.484  12.584 -2.6358  0.8785 -1.2372
  582TIP3    H225942   0.672   2.409  12.468  0.8296 -0.8426 -2.1189
  583TIP3   OH225943   6.399   6.466  13.014  0.1513  0.5344 -0.3504
  583TIP3    H125944   6.452   6.392  12.985 -1.0828  0.0577 -1.5153
  583TIP3    H225945   6.406   6.464  13.109  2.3020  0.5940 -0.4612
  584TIP3   OH225946   3.832   1.962  11.021 -0.1067  0.4912  0.0702
  584TIP3    H125947   3.860   2.047  10.987  0.6607  0.2591  0.0955
  584TIP3    H225948   3.739   1.973  11.040  0.4896  2.1170  2.4405
  585TIP3   OH225949   1.944   3.115  13.467  0.1673  0.0268 -0.0657
  585TIP3    H125950   1.855   3.118  13.432 -0.9994 -2.2903  2.4339
  585TIP3    H225951   1.988   3.047  13.416 -0.7565 -1.5814  1.2181
  586TIP3   OH225952   5.352   6.183  11.940  0.3167 -0.0854 -0.4174
  586TIP3    H125953   5.311   6.197  11.855 -0.0587  0.6169 -0.1278
  586TIP3    H225954   5.404   6.103  11.929 -1.1616 -1.0319 -0.7834
  587TIP3   OH225955   5.296   7.564  12.056 -0.0190 -0.2912 -0.1282
  587TIP3    H125956   5.210   7.572  12.016 -0.7595 -0.1596  1.4057
  587TIP3    H225957   5.309   7.470  12.069  0.2392 -0.3367 -0.6973
  588TIP3   OH225958   7.039   3.241  11.661 -0.0593 -0.2643  0.4838
  588TIP3    H125959   7.019   3.319  11.609  0.5926 -1.9502 -2.5767
  588TIP3    H225960   7.134   3.232  11.655 -0.1374 -1.3682  0.6317
  589TIP3   OH225961   0.940   4.005  12.243 -1.1624 -0.5448 -0.1148
  589TIP3    H125962   1.017   3.970  12.198 -0.3753 -0.2601  0.9789
  589TIP3    H225963   0.885   4.041  12.172  1.5946  3.0023 -0.7191
  590TIP3   OH225964   5.432   7.316  11.832 -0.3251 -0.4449 -0.0778
  590TIP3    H125965   5.405   7.307  11.924  1.4009 -1.7670  0.3492
  590TIP3    H225966   5.453   7.227  11.804  1.9429  0.2652 -0.8416
  591TIP3   OH225967   1.481   7.631  12.392  0.0746  0.1109  0.2335
  591TIP3    H125968   1.537   7.600  12.463  1.1455  1.5575  0.0565
  591TIP3    H225969   1.528   7.606  12.312 -1.4225 -2.0756 -0.0575
  592TIP3   OH225970   2.234   3.446  13.594 -0.5972 -0.0780  0.2216
  592TIP3    H125971   2.177   3.523  13.598 -1.4570 -0.4007 -3.0187
  592TIP3    H225972   2.186   3.378  13.641 -0.2107  1.0371  2.3893
  593TIP3   OH225973   4.587   6.702  11.868 -0.1362 -0.5292 -0.1782
  593TIP3    H125974   4.662   6.760  11.884  0.0898 -1.5794  3.5086
  593TIP3    H225975   4.510   6.759  11.881  0.0663 -0.3539  0.2848
  594TIP3   OH225976   5.912   5.648  11.795 -0.2136 -0.2272 -0.2110
  594TIP3    H125977   5.943   5.648  11.886 -0.5472  0.2591 -0.0878
  594TIP3    H225978   5.986   5.680  11.744  0.0488 -0.7160 -0.1380
  595TIP3   OH225979   1.833   6.260  13.219  0.2209 -0.0876 -0.0062
  595TIP3    H125980   1.879   6.249  13.136  0.0434  0.5496 -0.1954
  595TIP3    H225981   1.742   6.275  13.195 -0.1860 -1.7364  0.3822
  596TIP3   OH225982   6.149   0.245  13.162 -0.0869 -0.2590 -0.1123
  596TIP3    H125983   6.070   0.224  13.212  1.2174 -1.9244  1.3554
  596TIP3    H225984   6.155   0.341  13.166 -0.9990 -0.2394  1.4056
  597TIP3   OH225985   5.888   0.034  13.591  0.3019 -0.3198  0.8271
  597TIP3    H125986   5.894   0.040  13.687 -2.5239 -0.9254  1.1246
  597TIP3    H225987   5.795   0.043  13.572  0.8810  0.8033 -1.9915
  598TIP3   OH225988   6.136   0.301  13.609 -0.3032 -0.0214 -0.1302
  598TIP3    H125989   6.117   0.230  13.670  0.6977  0.4748  0.8022
  598TIP3    H225990   6.197   0.262  13.546 -1.7746 -0.6973 -1.2126
  599TIP3   OH225991   2.101   5.126  13.751  0.4181 -0.2300  0.2256
  599TIP3    H125992   2.015   5.112  13.790 -0.7343 -0.7370 -2.2841
  599TIP3    H225993   2.139   5.038  13.744 -0.1975 -0.4045 -1.3966
  600TIP3   OH225994   6.587   5.975  11.558 -0.1644 -0.2197  0.5643
  600TIP3    H125995   6.615   5.942  11.643  2.5450 -0.5022 -0.3476
  600TIP3    H225996   6.627   6.062  11.552  0.5835 -0.6218 -0.8007
  601TIP3   OH225997   3.331   6.786  11.253 -0.1256 -0.1761  1.0501
  601TIP3    H125998   3.303   6.709  11.304  0.0035 -0.5364  0.5821
  601TIP3    H225999   3.425   6.775  11.244 -0.0838  0.1249  1.1162
  602TIP3   OH226000   3.839   2.708  11.721 -0.1274 -0.4293 -0.4601
  602TIP3    H126001   3.759   2.666  11.754  0.1760 -1.6411 -1.2324
  602TIP3    H226002   3.843   2.683  11.628  1.5443 -1.0065 -0.2591
  603TIP3   OH226003   0.193   7.397  12.859 -0.4908  0.0319  0.0981
  603TIP3    H126004   0.266   7.363  12.808 -0.0600  1.6797 -0.4727
  603TIP3    H226005   0.233   7.434  12.938 -0.8496 -0.1748  0.3801
  604TIP3   OH226006   2.787   7.324  13.670  0.3543  0.3159  0.1368
  604TIP3    H126007   2.769   7.268  13.595 -0.8328  2.0434 -0.9436
  604TIP3    H226008   2.876   7.301  13.696  0.2876 -1.3107 -0.8860
  605TIP3   OH226009   5.929   4.866  13.340 -0.2144  0.4452 -0.2970
  605TIP3    H126010   6.016   4.839  13.311 -0.3549  0.9501 -1.2468
  605TIP3    H226011   5.940   4.958  13.365 -0.7158  0.9257 -1.6858
  606TIP3   OH226012   2.953   6.062  12.619  0.0768 -0.5780 -0.3952
  606TIP3    H126013   2.913   5.989  12.666  0.8517 -1.5827 -1.2358
  606TIP3    H226014   2.887   6.131  12.621 -2.2153 -2.4697 -2.5273
  607TIP3   OH226015   7.481   6.848  11.727  0.3684 -0.6603 -0.1694
  607TIP3    H126016   7.505   6.762  11.761 -0.8317 -0.9460 -0.0141
  607TIP3    H226017   7.388   6.857  11.747 -0.0348 -0.2140 -2.0243
  608TIP3   OH226018   4.572   4.835  10.862  0.3416 -0.4607 -0.2169
  608TIP3    H126019   4.519   4.906  10.825 -0.3172 -2.1926 -2.8709
  608TIP3    H226020   4.573   4.853  10.956 -0.2804  2.6897 -0.6786
  609TIP3   OH226021   5.194   2.945  12.098 -0.0168  0.0962  0.0424
  609TIP3    H126022   5.168   2.954  12.006  0.0057  1.6153  0.1636
  609TIP3    H226023   5.113   2.923  12.144 -0.3337  0.8746 -0.1346
  610TIP3   OH226024   2.699   3.019  13.352 -0.2293  0.7972 -0.4705
  610TIP3    H126025   2.679   2.947  13.412 -2.0245 -0.4959 -2.4586
  610TIP3    H226026   2.658   3.096  13.391  0.1692  0.3955  0.7991
  611TIP3   OH226027   0.577   1.993  12.882  0.5522  0.3630 -0.1033
  611TIP3    H126028   0.532   1.952  12.809 -0.5929  1.3475  0.0170
  611TIP3    H226029   0.568   1.931  12.955  1.0594 -0.2877 -0.5816
  612TIP3   OH226030   7.166   3.700  12.721 -0.1871 -0.2342 -0.1004
  612TIP3    H126031   7.166   3.607  12.698 -2.6726  0.1589 -2.0909
  612TIP3    H226032   7.244   3.710  12.776  0.1913 -3.4532  0.1829
  613TIP3   OH226033   1.481   5.659  13.683  0.3737 -0.3374  0.2680
  613TIP3    H126034   1.500   5.596  13.753  1.0898  1.0779  1.3967
  613TIP3    H226035   1.567   5.693  13.658  0.1977 -1.1651 -1.7081
  614TIP3   OH226036   7.659   7.032  13.639  0.3634  0.1661  0.2354
  614TIP3    H126037   7.643   6.996  13.552 -1.5171  1.9427 -0.2197
  614TIP3    H226038   7.744   7.077  13.630  0.5291 -0.2677 -0.4710
  615TIP3   OH226039   1.133   0.679  13.248 -0.4065  0.6249 -0.1293
  615TIP3    H126040   1.074   0.705  13.319  0.3885 -0.4618  0.9771
  615TIP3    H226041   1.220   0.681  13.288  0.0636  0.0760 -1.1027
  616TIP3   OH226042   6.094   0.162  12.240  0.2099 -0.7530  0.1850
  616TIP3    H126043   6.189   0.171  12.235  0.3576 -2.0876  0.2922
  616TIP3    H226044   6.071   0.109  12.164 -0.4960 -0.1576 -0.0266
  617TIP3   OH226045   3.839   3.211  13.407  0.2690  0.4643  0.4692
  617TIP3    H126046   3.766   3.258  13.367  1.3690 -0.1742 -2.5513
  617TIP3    H226047   3.883   3.277  13.460 -1.8472  1.1155  1.5326
  618TIP3   OH226048   6.010   6.691  11.036  0.0095  0.1659 -0.2146
  618TIP3    H126049   6.048   6.649  10.959  0.8618 -1.8279  1.2126
  618TIP3    H226050   5.915   6.686  11.021  0.1712  0.4580 -1.4392
  619TIP3   OH226051   3.682   2.485  12.652 -0.0320  0.2480 -0.3419
  619TIP3    H126052   3.667   2.391  12.664 -0.6807  0.3945  0.0256
  619TIP3    H226053   3.775   2.492  12.632 -0.2149 -0.5907 -1.6019
  620TIP3   OH226054   6.267   2.160  11.173  0.2092  0.6486 -0.1845
  620TIP3    H126055   6.229   2.216  11.240  0.3101  2.5710 -1.6447
  620TIP3    H226056   6.283   2.219  11.099 -0.2356 -1.4436 -2.0443
  621TIP3   OH226057   2.618   3.895  13.100 -0.3149 -0.2323 -0.1562
  621TIP3    H126058   2.534   3.932  13.073 -0.7370 -0.0484  1.3463
  621TIP3    H226059   2.595   3.816  13.149  0.3753 -0.0919  0.4041
  622TIP3   OH226060   6.348   2.816  11.424 -0.3249  0.0441  0.3530
  622TIP3    H126061   6.440   2.811  11.396 -0.5155 -1.2859 -0.0791
  622TIP3    H226062   6.353   2.839  11.517  0.4713 -0.6207  0.4841
  623TIP3   OH226063   2.197   5.960  11.800  0.5665 -0.6488  0.3115
  623TIP3    H126064   2.175   6.014  11.724  3.0590 -0.1553 -0.1275
  623TIP3    H226065   2.112   5.929  11.832 -0.5687 -1.5795 -3.1222
  624TIP3   OH226066   1.578   1.476  12.468 -0.3380  0.1316  0.9825
  624TIP3    H126067   1.526   1.396  12.459  0.7448 -0.3548 -1.5543
  624TIP3    H226068   1.637   1.458  12.542 -1.1388 -0.7837  1.4285
  625TIP3   OH226069   6.473   5.408  10.813 -0.5234 -0.5799 -0.0537
  625TIP3    H126070   6.443   5.322  10.844 -0.8767 -0.3625  0.2230
  625TIP3    H226071   6.394   5.463  10.816  0.0084  0.1799  1.2989
  626TIP3   OH226072   4.982   2.534  12.129  0.1969 -0.6131 -0.0255
  626TIP3    H126073   4.913   2.479  12.093 -0.4804  0.2192 -0.0471
  626TIP3    H226074   5.044   2.544  12.058 -1.3968  1.4687 -1.2523
  627TIP3   OH226075   2.240   1.108  11.577 -0.3040  0.2342  0.3248
  627TIP3    H126076   2.238   1.093  11.671 -3.0947 -1.8908  0.0939
  627TIP3    H226077   2.319   1.064  11.546  0.3210  0.4490  1.5774
  628TIP3   OH226078   5.597   1.080  11.058 -0.1174 -0.2892  0.3634
  628TIP3    H126079   5.613   1.065  10.965 -0.0850 -1.2737  0.5114
  628TIP3    H226080   5.562   1.169  11.063 -0.5057 -0.3751 -0.6328
  629TIP3   OH226081   2.201   5.154  13.476  0.5372 -0.6302 -0.2388
  629TIP3    H126082   2.174   5.066  13.449 -1.1523 -0.3403  0.3691
  629TIP3    H226083   2.186   5.156  13.570  2.7281 -0.3892  0.1491
  630TIP3   OH226084   7.233   5.805  10.575  0.3672  0.1064 -1.0082
  630TIP3    H126085   7.312   5.761  10.607 -1.3262 -2.1827  0.3238
  630TIP3    H226086   7.230   5.783  10.482  0.9997 -0.2568 -0.9520
  631TIP3   OH226087   1.722   5.505  11.231  0.2330 -0.0453 -0.3049
  631TIP3    H126088   1.640   5.510  11.279  0.8170  1.3472  0.6289
  631TIP3    H226089   1.709   5.436  11.167 -1.1426 -0.8463  0.7973
  632TIP3   OH226090   4.607   5.941  11.620 -0.1908 -0.2053  0.1384
  632TIP3    H126091   4.698   5.923  11.641 -0.2441  0.9641  1.5401
  632TIP3    H226092   4.601   6.037  11.620 -1.4611 -0.2719  0.2824
  633TIP3   OH226093   2.420   5.703  13.645 -0.6683 -0.0749  0.1270
  633TIP3    H126094   2.381   5.621  13.613 -1.2269 -0.1308  0.9366
  633TIP3    H226095   2.347   5.751  13.684 -0.1072  0.2557  0.7825
  634TIP3   OH226096   6.596   7.641  12.889  0.1539 -0.2731 -0.1692
  634TIP3    H126097   6.637   7.721  12.922  1.4605 -1.2560  0.6935
  634TIP3    H226098   6.503   7.651  12.909  0.3606  0.8444  0.2876
  635TIP3   OH226099   6.431   1.839  13.435  0.3921  0.3125  0.2238
  635TIP3    H126100   6.361   1.775  13.426  0.8451 -0.4239  1.7203
  635TIP3    H226101   6.496   1.813  13.370 -0.5188  0.7844 -0.9194
  636TIP3   OH226102   7.014   0.882  12.572  0.2756  0.0887 -0.2338
  636TIP3    H126103   6.974   0.966  12.594 -0.3917 -0.3838  0.4021
  636TIP3    H226104   7.042   0.891  12.481  1.3934  1.4450  0.2119
  637TIP3   OH226105   5.228   3.903  12.331  0.3157 -0.0742 -0.7680
  637TIP3    H126106   5.187   3.924  12.246  0.4708  0.1475 -0.7864
  637TIP3    H226107   5.273   3.820  12.315  1.1574  0.4444 -1.1748
  638TIP3   OH226108   0.731   5.021  13.212 -0.1338  0.4237  0.5451
  638TIP3    H126109   0.688   4.997  13.294 -0.5038 -3.6842 -0.6257
  638TIP3    H226110   0.726   4.942  13.158  1.4578  2.4290 -2.8962
  639TIP3   OH226111   0.875   0.836  11.893  0.0897  0.1325 -0.5902
  639TIP3    H126112   0.899   0.917  11.848  1.4785 -0.1518 -0.3971
  639TIP3    H226113   0.868   0.860  11.985 -0.5791  0.2568 -0.6720
  640TIP3   OH226114   2.260   1.649  11.721  0.0821 -0.2986  0.5415
  640TIP3    H126115   2.182   1.672  11.672  0.1463  0.5412  0.8060
  640TIP3    H226116   2.330   1.644  11.655 -0.1157 -0.6681  0.3577
  641TIP3   OH226117   5.439   2.022  12.847  0.1457  0.3558 -0.3573
  641TIP3    H126118   5.444   1.926  12.837  0.1859  0.1046  1.6979
  641TIP3    H226119   5.353   2.044  12.810 -0.1257 -0.5508 -0.3061
  642TIP3   OH226120   7.620   7.671  11.696  0.1308  0.5356  0.2556
  642TIP3    H126121   7.696   7.666  11.754  1.4479  0.1254 -1.4338
  642TIP3    H226122   7.637   7.748  11.642 -0.4245  0.1672 -0.4468
  643TIP3   OH226123   0.744   3.847  13.497 -0.0335  0.5573  0.3786
  643TIP3    H126124   0.796   3.798  13.434  0.4241 -1.1044  1.9724
  643TIP3    H226125   0.804   3.913  13.532 -0.3336  1.5923 -0.9597
  644TIP3   OH226126   0.545   4.548  10.816 -0.3039 -0.0438  0.3781
  644TIP3    H126127   0.493   4.624  10.788  0.4265  0.2501 -0.1948
  644TIP3    H226128   0.485   4.473  10.804  0.0783  0.0056 -2.4225
  645TIP3   OH226129   2.187   5.296  11.545  0.5402 -0.2724 -0.3424
  645TIP3    H126130   2.237   5.318  11.624 -0.6002 -0.9184  0.6076
  645TIP3    H226131   2.245   5.239  11.494  1.2556  0.0663  0.0821
  646TIP3   OH226132   0.916   6.923  10.885  0.1383  0.0672 -0.1261
  646TIP3    H126133   0.974   6.948  10.813  1.0695  0.3464  0.6941
  646TIP3    H226134   0.970   6.934  10.964  0.0928 -2.8956  0.4319
  647TIP3   OH226135   3.959   1.663  11.335  0.0914 -0.3777  0.2248
  647TIP3    H126136   3.950   1.743  11.387  0.3752  0.7020 -1.2989
  647TIP3    H226137   4.026   1.612  11.379  0.4802  0.6012  0.7973
  648TIP3   OH226138   3.322   7.641  11.812 -0.2463  0.4047 -0.5429
  648TIP3    H126139   3.374   7.704  11.863 -0.9765  1.3570 -0.9364
  648TIP3    H226140   3.386   7.598  11.755 -0.0152  2.6029 -2.1007
  649TIP3   OH226141   2.831   6.648  11.776  0.1964  0.1149  0.1208
  649TIP3    H126142   2.790   6.596  11.706 -1.8934  0.6756  0.8769
  649TIP3    H226143   2.833   6.590  11.852  2.1332 -0.3651 -0.2207
  650TIP3   OH226144   5.135   6.376  12.834 -0.6902 -0.5292 -0.1261
  650TIP3    H126145   5.169   6.443  12.892  0.8211 -0.4970 -1.0103
  650TIP3    H226146   5.134   6.296  12.888 -1.1543 -0.1100  0.5028
  651TIP3   OH226147   1.495   0.438  13.146  0.2539 -0.6282 -0.1346
  651TIP3    H126148   1.578   0.455  13.190 -0.2137 -0.7522  0.8060
  651TIP3    H226149   1.476   0.520  13.099 -0.0279  0.0800  1.1830
  652TIP3   OH226150   4.128   2.067  13.079 -0.1853  0.1334  0.0579
  652TIP3    H126151   4.108   2.161  13.076 -1.6452 -0.1267  0.8521
  652TIP3    H226152   4.051   2.024  13.043 -0.2620 -0.8328  1.3044
  653TIP3   OH226153   7.056   4.252  11.013  0.1268  0.0927  0.3563
  653TIP3    H126154   7.101   4.226  10.932  0.9553  1.7321  0.2447
  653TIP3    H226155   6.965   4.263  10.987  0.6760  2.4165 -0.8868
  654TIP3   OH226156   0.541   1.535  12.970  1.0074  0.1968  0.5112
  654TIP3    H126157   0.497   1.554  12.888 -0.0881 -1.5319  0.6436
  654TIP3    H226158   0.502   1.453  13.000  1.9180  0.3803  2.3759
  655TIP3   OH226159   6.962   2.836  13.570  0.1114  0.1889 -0.0668
  655TIP3    H126160   7.001   2.903  13.513 -0.6436  0.7062  0.0126
  655TIP3    H226161   6.988   2.861  13.658 -1.2230  1.1287  0.0862
  656TIP3   OH226162   6.672   2.840  11.717 -0.1562  0.1756  0.1951
  656TIP3    H126163   6.666   2.763  11.661 -1.1291 -1.0299  1.8870
  656TIP3    H226164   6.584   2.879  11.714 -0.1293  0.2780  0.6174
  657TIP3   OH226165   4.601   2.125  11.983  0.6472 -0.6502 -0.6426
  657TIP3    H126166   4.577   2.067  12.055 -0.8880  0.0058 -0.5855
  657TIP3    H226167   4.677   2.083  11.943  1.8280 -0.8289  1.5788
  658TIP3   OH226168   4.726   2.130  12.812  0.1977  0.0185  0.1521
  658TIP3    H126169   4.765   2.105  12.896  1.4811 -0.8586 -0.6688
  658TIP3    H226170   4.665   2.059  12.792 -1.4739  1.0904  1.1385
  659TIP3   OH226171   1.911   5.441  13.465 -0.5984 -0.4478 -0.5073
  659TIP3    H126172   1.901   5.369  13.403 -0.7878 -1.8033  1.0263
  659TIP3    H226173   1.999   5.474  13.450  0.6078 -2.8961  0.6066
  660TIP3   OH226174   0.469   0.343  11.651 -0.2191 -0.0869  0.0948
  660TIP3    H126175   0.434   0.396  11.579 -0.1889  0.7335  0.6761
  660TIP3    H226176   0.480   0.404  11.723 -0.4547 -0.9501  0.8790
  661TIP3   OH226177   3.966   3.438  13.525  0.1097  0.5305 -0.1727
  661TIP3    H126178   3.919   3.506  13.477 -0.7333  1.0106  1.2864
  661TIP3    H226179   4.037   3.483  13.570  1.1491  0.0188 -1.2234
  662TIP3   OH226180   1.206   7.392  11.848  0.1393 -0.1773  0.3445
  662TIP3    H126181   1.182   7.483  11.830  0.5198 -0.3152 -1.0009
  662TIP3    H226182   1.265   7.397  11.923 -0.1233  0.6471  0.5059
  663TIP3   OH226183   6.727   2.739  12.872 -0.4657  0.7360  0.2298
  663TIP3    H126184   6.800   2.792  12.903  0.2818 -0.1992  0.0983
  663TIP3    H226185   6.734   2.740  12.777 -1.2603  1.5087  0.1647
  664TIP3   OH226186   5.223   6.579  12.384 -0.3046  0.3816 -0.3169
  664TIP3    H126187   5.219   6.598  12.290 -0.3178 -0.8068 -0.5634
  664TIP3    H226188   5.254   6.489  12.389 -1.1190  0.1534  0.8107
  665TIP3   OH226189   0.919   3.074  11.706  0.1414  0.2563  0.4122
  665TIP3    H126190   0.944   3.161  11.674  0.4483 -0.2596 -0.8242
  665TIP3    H226191   0.847   3.047  11.649 -1.3649  0.5223  2.1052
  666TIP3   OH226192   6.210   5.876  11.677  0.3640  0.4385  0.0099
  666TIP3    H126193   6.220   5.785  11.651 -0.3948  0.3837 -0.1416
  666TIP3    H226194   6.210   5.924  11.594  1.3717  0.6463  0.1253
  667TIP3   OH226195   4.467   5.647  12.578 -0.2709 -0.3823  0.0833
  667TIP3    H126196   4.406   5.604  12.638 -0.7241 -0.7282 -0.6103
  667TIP3    H226197   4.432   5.629  12.491  2.2728 -3.0109 -0.5655
  668TIP3   OH226198   2.552   6.266  13.678 -0.3983  0.4317 -0.4489
  668TIP3    H126199   2.632   6.242  13.724 -0.1358 -0.7570 -1.4598
  668TIP3    H226200   2.577   6.269  13.586 -1.4480  0.3541 -0.7524
  669TIP3   OH226201   6.304   4.023  12.834 -0.1542  0.1838  0.2099
  669TIP3    H126202   6.209   4.033  12.829 -0.0968  0.6127 -0.0486
  669TIP3    H226203   6.331   4.086  12.902 -0.1243 -0.4056  0.7541
  670TIP3   OH226204   0.486   6.125  13.186  0.0653 -0.0553  0.1674
  670TIP3    H126205   0.484   6.041  13.139  0.6353  0.0743 -0.0990
  670TIP3    H226206   0.507   6.101  13.276 -2.3973 -0.4447  0.7218
  671TIP3   OH226207   5.407   4.967  10.649 -0.0816  0.5842 -0.2150
  671TIP3    H126208   5.417   5.045  10.595  0.9419 -0.6082 -1.8417
  671TIP3    H226209   5.461   4.984  10.727 -1.0132  2.0454  0.1366
  672TIP3   OH226210   6.348   4.313  12.967 -0.4921 -0.4032 -0.2802
  672TIP3    H126211   6.345   4.390  13.024 -0.7968 -1.4710  1.2274
  672TIP3    H226212   6.314   4.343  12.883  0.8585  1.4691 -0.2165
  673TIP3   OH226213   5.965   3.633  12.062 -0.0491  0.2904  0.4473
  673TIP3    H126214   5.905   3.682  12.005 -1.2384  0.6906  1.9924
  673TIP3    H226215   6.024   3.700  12.097  0.5032  0.0818 -0.0506
  674TIP3   OH226216   0.350   1.917  12.060 -0.0469  0.7148 -0.2445
  674TIP3    H126217   0.342   1.957  12.147 -2.8050  0.2812 -0.2207
  674TIP3    H226218   0.444   1.900  12.051  0.4528  1.6124  2.2442
  675TIP3   OH226219   2.148   3.881  13.129  0.2820  0.0215  0.2276
  675TIP3    H126220   2.072   3.937  13.145 -0.0101  0.0487 -1.1386
  675TIP3    H226221   2.146   3.817  13.201 -0.5033  0.5711  0.7101
  676TIP3   OH226222   5.761   6.681  12.579 -0.0928  0.3783  0.0787
  676TIP3    H126223   5.712   6.600  12.592 -0.2779  0.3403 -0.7853
  676TIP3    H226224   5.749   6.730  12.660  0.2376 -0.5641  0.7156
  677TIP3   OH226225   6.971   1.304  11.638 -0.0474 -0.0505 -0.0483
  677TIP3    H126226   6.977   1.301  11.543  0.1341  0.7216 -0.0698
  677TIP3    H226227   6.972   1.397  11.659  0.2234 -0.2204  0.7276
  678TIP3   OH226228   1.019   2.235  13.456 -0.0805  0.7022  0.0948
  678TIP3    H126229   0.999   2.263  13.367  1.5191  1.2318 -0.1322
  678TIP3    H226230   0.969   2.294  13.512 -2.0476 -0.3844 -0.4044
  679TIP3   OH226231   7.239   0.084  12.167  0.0374 -0.3724 -0.7162
  679TIP3    H126232   7.239   0.141  12.244  0.7138  2.0687 -2.3824
  679TIP3    H226233   7.298   0.012  12.190 -0.5783 -0.2720  1.3682
  680TIP3   OH226234   4.105   5.041  12.582 -0.2994  0.0325  0.2347
  680TIP3    H126235   4.172   5.109  12.590 -0.4159  0.2465 -0.5934
  680TIP3    H226236   4.079   5.043  12.491 -0.2552 -1.1760  0.1732
  681TIP3   OH226237   1.273   4.543  11.328  0.1838 -0.1722 -0.4282
  681TIP3    H126238   1.239   4.613  11.272 -0.3341 -0.2146 -0.1758
  681TIP3    H226239   1.368   4.547  11.317  0.2431  1.2434  0.3734
  682TIP3   OH226240   0.811   0.064  13.082  0.0764 -0.1630 -0.1102
  682TIP3    H126241   0.731   0.039  13.128  0.6138 -1.0226  0.3747
  682TIP3    H226242   0.794   0.039  12.991  0.4971 -2.1327  0.3133
  683TIP3   OH226243   2.550   7.677  12.758  0.0208 -0.0382 -0.2494
  683TIP3    H126244   2.562   7.652  12.849  0.9979  0.1170 -0.3333
  683TIP3    H226245   2.455   7.669  12.744  0.1643 -3.3854 -0.1956
  684TIP3   OH226246   0.066   6.128  13.135 -0.3272 -0.3792 -0.2748
  684TIP3    H126247   0.094   6.104  13.224 -0.2463  1.2360  0.1606
  684TIP3    H226248   0.145   6.163  13.094  0.1638 -2.9660 -1.7294
  685TIP3   OH226249   0.936   4.595  13.280 -0.4267  0.1777  0.0282
  685TIP3    H126250   0.965   4.685  13.262 -0.8887  0.1095 -1.1859
  685TIP3    H226251   0.959   4.546  13.200 -0.2468 -0.7669  0.6453
  686TIP3   OH226252   0.718   7.232  13.703 -0.2836  0.3980  0.3176
  686TIP3    H126253   0.730   7.140  13.725 -0.6837  0.2810  0.0732
  686TIP3    H226254   0.804   7.272  13.716  0.0677 -0.1498 -0.2400
  687TIP3   OH226255   4.336   4.537  13.459 -0.2674 -0.0129  0.2575
  687TIP3    H126256   4.351   4.618  13.411 -3.0173  0.5996  0.2652
  687TIP3    H226257   4.363   4.557  13.549  2.6987 -0.4282 -0.4364
  688TIP3   OH226258   7.124   2.131  12.650  0.4393  0.3690 -0.4694
  688TIP3    H126259   7.060   2.199  12.671 -1.5958 -1.6519  0.2819
  688TIP3    H226260   7.092   2.091  12.569 -0.1932 -1.6484  0.6969
  689TIP3   OH226261   2.609   1.875  12.065 -0.9320  0.3029  0.2269
  689TIP3    H126262   2.657   1.871  11.982 -1.0316  0.2749  0.1706
  689TIP3    H226263   2.653   1.944  12.115 -0.0274 -0.5667  0.6829
  690TIP3   OH226264   1.401   7.142  11.915 -0.5281 -0.1151  0.1233
  690TIP3    H126265   1.424   7.217  11.969 -0.8110 -0.1897  0.3545
  690TIP3    H226266   1.310   7.122  11.939  0.0753 -1.6077  1.3638
  691TIP3   OH226267   4.675   6.582  12.617  0.2008  0.3325 -0.6069
  691TIP3    H126268   4.610   6.614  12.679  0.0319 -1.0143 -0.0492
  691TIP3    H226269   4.733   6.657  12.601 -0.7912  1.2018 -0.2033
  692TIP3   OH226270   2.465   1.007  11.432  0.2795 -0.6492  0.5788
  692TIP3    H126271   2.425   1.039  11.352 -1.7263  0.9527  2.1052
  692TIP3    H226272   2.554   1.041  11.430  0.6111 -1.5344 -1.4118
  693TIP3   OH226273   0.886   3.410  12.452  0.5907  0.2539  0.1221
  693TIP3    H126274   0.827   3.443  12.519  2.2607  1.3868  1.0992
  693TIP3    H226275   0.969   3.396  12.497  1.3131 -0.5544 -1.3689
  694TIP3   OH226276   0.703   1.280  13.296 -0.1763 -0.3321  0.2393
  694TIP3    H126277   0.753   1.258  13.217  3.8049  2.4832  1.6246
  694TIP3    H226278   0.746   1.230  13.365  0.2453  1.4638  1.3500
  695TIP3   OH226279   6.813   5.243  13.287 -0.3347 -0.0378  0.1315
  695TIP3    H126280   6.747   5.225  13.355  0.6800 -2.1194  0.6455
  695TIP3    H226281   6.879   5.297  13.331  0.3844 -1.4877  0.9064
  696TIP3   OH226282   4.263   5.575  13.317 -0.3508  0.2837  0.1459
  696TIP3    H126283   4.327   5.569  13.246 -0.6758  0.8482 -0.2011
  696TIP3    H226284   4.179   5.557  13.274 -0.6802  1.7055  0.1635
  697TIP3   OH226285   4.515   2.007  10.867  0.6122  0.1549 -0.4991
  697TIP3    H126286   4.558   1.986  10.950  0.8278  0.7129 -0.4666
  697TIP3    H226287   4.469   1.926  10.843 -0.4849  0.3504  0.7876
  698TIP3   OH226288   3.315   3.208  12.791 -0.2277  0.7374  0.1296
  698TIP3    H126289   3.399   3.245  12.764 -0.4084  0.6002 -0.6513
  698TIP3    H226290   3.254   3.236  12.722 -0.3720 -0.9874 -0.5001
  699TIP3   OH226291   3.149   2.853  11.443 -0.5310  0.3661 -0.1013
  699TIP3    H126292   3.069   2.800  11.444 -0.3139  0.0366  0.4716
  699TIP3    H226293   3.124   2.933  11.398 -1.4135  0.6005  0.7591
  700TIP3   OH226294   5.650   1.077  13.468  0.1324 -0.1716 -0.6186
  700TIP3    H126295   5.707   1.029  13.408 -0.1158 -1.8089  0.4114
  700TIP3    H226296   5.619   1.011  13.530 -2.5384  0.7444 -0.8776
  701TIP3   OH226297   1.676   0.042  13.751  0.2275  0.3562  0.2675
  701TIP3    H126298   1.581   0.043  13.733  0.1148  1.5354  0.8165
  701TIP3    H226299   1.702   0.134  13.741  1.0565  0.2559  1.4383
  702TIP3   OH226300   1.078   2.182  11.439  0.0368  0.2408 -0.6716
  702TIP3    H126301   1.088   2.113  11.506  0.0463  1.3086  0.4622
  702TIP3    H226302   1.115   2.260  11.480 -0.1955  0.9846 -1.8511
  703TIP3   OH226303   5.684   2.231  12.738  0.1517 -0.2134  0.5906
  703TIP3    H126304   5.735   2.160  12.778 -1.0799 -1.5519 -0.1088
  703TIP3    H226305   5.593   2.209  12.758 -0.3187  0.5973 -0.5405
  704TIP3   OH226306   2.143   0.540  13.327 -0.5364 -0.5449 -0.2372
  704TIP3    H126307   2.200   0.591  13.385  1.2438 -0.6732 -1.7849
  704TIP3    H226308   2.183   0.453  13.326 -1.6960 -1.0948 -0.1484
  705TIP3   OH226309   0.351   7.433  13.637 -0.3425 -0.4359  0.2618
  705TIP3    H126310   0.337   7.405  13.547  1.1775  0.7111 -0.3733
  705TIP3    H226311   0.266   7.468  13.665 -0.5005  0.4165 -1.1965
  706TIP3   OH226312   2.314   5.075  11.103  0.0235 -0.1024  0.6520
  706TIP3    H126313   2.357   5.152  11.066  1.4980 -0.9663  0.4923
  706TIP3    H226314   2.324   5.007  11.035 -0.9914 -0.5256  0.9061
  707TIP3   OH226315   4.768   5.969  12.861 -0.5115  0.0078 -0.8233
  707TIP3    H126316   4.723   5.886  12.849  1.0404 -0.7113 -2.1526
  707TIP3    H226317   4.760   6.013  12.776 -0.5758  0.8413 -0.3973
  708TIP3   OH226318   1.403   6.229  13.451  0.1717  0.0838 -0.5778
  708TIP3    H126319   1.392   6.162  13.519 -0.8444  1.3112  0.5254
  708TIP3    H226320   1.457   6.296  13.493  0.5273  0.3201 -1.4003
  709TIP3   OH226321   3.435   3.543  12.501 -0.1868  0.1168  0.2772
  709TIP3    H126322   3.393   3.588  12.429  0.1136  0.4238  0.2919
  709TIP3    H226323   3.375   3.553  12.575  0.0514  0.8247  0.3826
  710TIP3   OH226324   3.523   6.265  14.047  0.3707 -0.4075 -0.7418
  710TIP3    H126325   3.546   6.323  13.974  3.2466 -0.8398 -0.2813
  710TIP3    H226326   3.497   6.324  14.117 -1.9288  0.0344 -1.8627
  711TIP3   OH226327   6.664   1.153  12.129  0.0815  0.3141 -0.0626
  711TIP3    H126328   6.651   1.227  12.069  0.7505 -1.0055 -1.9324
  711TIP3    H226329   6.641   1.188  12.215 -1.3519  2.1847 -1.1192
  712TIP3   OH226330   7.608   1.166  13.550  0.5969 -0.0330  0.1237
  712TIP3    H126331   7.642   1.138  13.634  0.9103  0.5096  0.1812
  712TIP3    H226332   7.515   1.181  13.566  0.4377 -0.9626  0.1052
  713TIP3   OH226333   7.256   3.137  12.483 -0.1545 -0.5292  0.1370
  713TIP3    H126334   7.268   3.232  12.478 -2.4011 -0.2775 -1.6328
  713TIP3    H226335   7.168   3.126  12.518  1.3437 -2.1142  3.9887
  714TIP3   OH226336   2.040   3.485  13.368  0.3637 -0.0192 -0.2156
  714TIP3    H126337   2.064   3.435  13.290 -1.3009  1.1835 -1.5527
  714TIP3    H226338   1.954   3.521  13.348 -0.1508  0.2569  2.2317
  715TIP3   OH226339   4.097   7.011  11.183 -0.1734  0.4645 -0.0794
  715TIP3    H126340   4.097   6.979  11.093  1.3980 -0.4574  0.1991
  715TIP3    H226341   4.135   6.939  11.234 -0.4546  1.2065  1.2270
  716TIP3   OH226342   2.506   1.119  12.935 -0.1066  0.0940  0.3892
  716TIP3    H126343   2.582   1.096  12.881  1.0631  1.8649  1.1750
  716TIP3    H226344   2.533   1.096  13.024 -0.8991 -0.1772  0.5623
  717TIP3   OH226345   6.081   1.393  12.948 -0.3844 -0.3242 -0.1747
  717TIP3    H126346   6.141   1.367  12.878  1.0667  0.0823  0.8737
  717TIP3    H226347   6.010   1.438  12.903  0.3158 -0.4195 -1.4159
  718TIP3   OH226348   5.889   6.442  11.476  0.0946  0.1298  0.3519
  718TIP3    H126349   5.916   6.514  11.418 -0.2604 -0.0585 -0.0553
  718TIP3    H226350   5.799   6.422  11.448  0.4159 -0.8975  0.0327
  719TIP3   OH226351   3.011   0.014  12.719  0.1141 -0.6200 -0.3356
  719TIP3    H126352   2.934   0.063  12.750 -0.1856 -1.8830  1.0321
  719TIP3    H226353   3.003   0.016  12.623  0.0338  1.8172 -0.3521
  720TIP3   OH226354   3.189   4.121  12.772 -0.2691 -0.9869  0.1272
  720TIP3    H126355   3.240   4.083  12.701  1.7773  2.4749 -0.5087
  720TIP3    H226356   3.242   4.106  12.850  1.3090  1.5143 -0.3440
  721TIP3   OH226357   4.137   7.475  11.761 -0.6995  0.1716  0.1026
  721TIP3    H126358   4.120   7.412  11.691 -2.2784  0.0578  0.5556
  721TIP3    H226359   4.201   7.536  11.724 -1.7007  0.2772 -1.5363
  722TIP3   OH226360   3.095   1.043  11.426 -0.7637  0.2021 -0.2517
  722TIP3    H126361   3.079   1.137  11.436  2.6638  0.9271 -0.3854
  722TIP3    H226362   3.098   1.009  11.516 -0.1409  0.6216 -0.1094
  723TIP3   OH226363   1.220   3.528  12.542 -0.1599 -0.6344  0.8049
  723TIP3    H126364   1.148   3.588  12.561 -0.7899 -1.5484  1.3696
  723TIP3    H226365   1.261   3.565  12.464 -1.4365 -0.2611  0.2768
  724TIP3   OH226366   2.773   6.553  11.522 -0.7493  0.0540 -0.2037
  724TIP3    H126367   2.693   6.581  11.477  0.4448  1.0428 -1.8486
  724TIP3    H226368   2.823   6.505  11.455  1.0384  1.4690  0.0337
  725TIP3   OH226369   0.473   7.281  11.385  0.1058  0.0027 -0.6048
  725TIP3    H126370   0.554   7.253  11.342  1.0735  0.1911  1.0118
  725TIP3    H226371   0.469   7.376  11.371 -0.3642 -0.1417 -1.5123
  726TIP3   OH226372   5.847   1.662  11.229 -0.2214 -0.4303 -0.1354
  726TIP3    H126373   5.910   1.682  11.159  2.9533  1.3414  2.8755
  726TIP3    H226374   5.874   1.575  11.261 -0.3594 -0.3669  0.1533
  727TIP3   OH226375   0.322   6.075  12.381  0.6233  0.7377  0.4600
  727TIP3    H126376   0.333   6.005  12.445  1.3441  1.1250  0.7748
  727TIP3    H226377   0.376   6.147  12.414  4.3331 -0.3253 -2.4871
  728TIP3   OH226378   6.968   4.106  11.927 -0.7803  0.2299  0.1071
  728TIP3    H126379   6.957   4.174  11.861 -0.6440  1.8217  1.6654
  728TIP3    H226380   6.882   4.065  11.935 -1.9436  2.7554  1.7625
  729TIP3   OH226381   4.885   1.753  12.761  0.0104 -0.1403  0.5170
  729TIP3    H126382   4.894   1.775  12.669 -1.3955  0.0379  0.3947
  729TIP3    H226383   4.808   1.696  12.764  0.2205 -0.3862  1.5439
  730TIP3   OH226384   7.630   1.475  12.967  0.1548  0.9462 -0.2440
  730TIP3    H126385   7.570   1.425  13.022 -0.3605  0.5854 -1.1103
  730TIP3    H226386   7.651   1.416  12.894  1.1409  1.2623 -0.2286
  731TIP3   OH226387   4.851   0.651  11.962 -0.6792 -0.0597 -0.2532
  731TIP3    H126388   4.929   0.606  11.930 -0.4275 -0.8197  1.3685
  731TIP3    H226389   4.879   0.742  11.976  0.0352 -0.4188  0.7087
  732TIP3   OH226390   6.298   1.972  11.714 -0.0878  0.2331 -0.1846
  732TIP3    H126391   6.296   1.899  11.653  0.3352  0.4861 -0.5061
  732TIP3    H226392   6.264   2.046  11.664 -0.0948  0.3564  0.0014
  733TIP3   OH226393   4.170   3.061  12.632 -0.7199  0.1931  0.0552
  733TIP3    H126394   4.229   3.001  12.586  1.3232  0.0985  2.5399
  733TIP3    H226395   4.227   3.132  12.660 -2.2712  1.2079  0.7513
  734TIP3   OH226396   0.364   5.361  12.457 -0.2003  0.6772  0.1218
  734TIP3    H126397   0.375   5.334  12.548 -1.0066  0.3761  0.1350
  734TIP3    H226398   0.438   5.320  12.411 -0.0944  0.3895  0.5461
  735TIP3   OH226399   2.999   3.265  12.160  0.0745 -0.6950  0.3999
  735TIP3    H126400   2.981   3.176  12.131 -0.3403 -0.7261  0.7484
  735TIP3    H226401   3.085   3.259  12.201  0.8238 -0.5847 -1.0753
  736TIP3   OH226402   1.914   0.900  13.476  0.0416  0.1936  0.4837
  736TIP3    H126403   1.876   0.911  13.389  1.4319  2.8526  0.0947
  736TIP3    H226404   1.871   0.966  13.530  0.1671 -0.5157  1.4910
  737TIP3   OH226405   0.271   2.545  13.522 -0.1376  0.3410 -0.0901
  737TIP3    H126406   0.220   2.589  13.590  0.9068 -0.1130  1.0229
  737TIP3    H226407   0.250   2.453  13.533 -1.3644  0.3963 -1.6113
  738TIP3   OH226408   5.828   0.702  13.654  0.0915 -0.5908  0.0906
  738TIP3    H126409   5.856   0.623  13.608 -0.2356 -0.6629  0.0181
  738TIP3    H226410   5.750   0.732  13.607  0.3538 -0.0864 -0.0319
  739TIP3   OH226411   2.790   5.821  13.407  0.0221  0.1154  0.2397
  739TIP3    H126412   2.871   5.852  13.446 -0.4598  0.8748  0.6576
  739TIP3    H226413   2.804   5.727  13.393  0.5427  0.0187  1.3547
  740TIP3   OH226414   6.349   4.860  11.165  0.4358 -0.2196  0.1865
  740TIP3    H126415   6.331   4.798  11.236  2.7944 -3.9059 -2.1039
  740TIP3    H226416   6.445   4.863  11.160  0.3530  1.4455 -1.6119
  741TIP3   OH226417   2.484   1.072  12.111  0.5109 -0.0909 -0.3797
  741TIP3    H126418   2.461   0.983  12.136 -2.2799  0.9955  1.3627
  741TIP3    H226419   2.423   1.093  12.040  1.1824  0.4275 -0.8102
  742TIP3   OH226420   0.638   6.358  13.396  0.6260  0.3373 -0.2019
  742TIP3    H126421   0.648   6.354  13.492 -0.3842 -0.2527 -0.1101
  742TIP3    H226422   0.611   6.449  13.380 -0.5202  0.0959  0.2283
  743TIP3   OH226423   6.532   0.274  13.466 -0.6089  0.1581 -0.3109
  743TIP3    H126424   6.444   0.238  13.455 -0.3136 -0.5081 -0.5620
  743TIP3    H226425   6.590   0.204  13.436 -0.0454  1.5118 -2.6465
  744TIP3   OH226426   6.064   5.012  12.067 -0.5997 -0.0915 -0.2942
  744TIP3    H126427   6.148   4.997  12.024  0.6548  0.8348  1.6779
  744TIP3    H226428   6.063   4.950  12.140 -0.8983  0.9679  0.6285
  745TIP3   OH226429   1.404   1.611  13.603 -0.3238  0.2959 -0.2629
  745TIP3    H126430   1.475   1.590  13.542 -2.5309  1.6961 -3.5410
  745TIP3    H226431   1.348   1.534  13.603 -0.6446  0.5290 -0.4751
  746TIP3   OH226432   5.015   5.327  12.044  0.1935  0.0657  0.5720
  746TIP3    H126433   4.942   5.349  12.102 -0.6203  0.3768 -0.5253
  746TIP3    H226434   4.980   5.343  11.956  1.5083 -0.0424  0.0167
  747TIP3   OH226435   6.008   6.898  12.562  0.0216 -0.2939  0.5346
  747TIP3    H126436   6.023   6.829  12.627  2.8604 -1.4060 -1.0903
  747TIP3    H226437   6.038   6.978  12.605  1.0950 -0.8789  0.9240
  748TIP3   OH226438   2.015   2.582  13.145 -0.4704 -0.1687  0.3115
  748TIP3    H126439   1.982   2.648  13.206 -0.2611  0.5178 -0.3067
  748TIP3    H226440   2.110   2.585  13.156 -0.4353 -0.0766 -0.0108
  749TIP3   OH226441   4.477   4.256  12.738 -0.1697  0.2724 -0.1781
  749TIP3    H126442   4.434   4.172  12.730  0.2536  0.1539 -1.3339
  749TIP3    H226443   4.456   4.285  12.827  0.3947 -1.4383  0.5567
  750TIP3   OH226444   1.696   1.965  12.757  0.4814 -0.5801 -0.7648
  750TIP3    H126445   1.789   1.951  12.739  1.0897  2.7988 -0.7734
  750TIP3    H226446   1.692   1.981  12.851  0.0183  0.0531 -0.8924
  751TIP3   OH226447   3.787   3.858  11.916 -1.0582  0.3199  0.5998
  751TIP3    H126448   3.775   3.821  12.004 -1.0128 -0.2802  0.3579
  751TIP3    H226449   3.865   3.912  11.923  0.4580 -1.7042  0.3343
  752TIP3   OH226450   3.214   2.556  11.567 -0.8060  0.1291  0.4440
  752TIP3    H126451   3.136   2.604  11.538 -0.9962 -0.7571 -0.5557
  752TIP3    H226452   3.242   2.507  11.490 -0.1961 -0.8043  1.2406
  753TIP3   OH226453   4.101   4.637  11.892  0.2283  0.4845 -0.1810
  753TIP3    H126454   4.177   4.584  11.917 -0.0808  0.1701  0.1170
  753TIP3    H226455   4.096   4.627  11.797 -1.2331 -2.0364  0.0559
  754TIP3   OH226456   3.828   4.852  12.266 -0.0093 -0.4975  0.0975
  754TIP3    H126457   3.770   4.776  12.262  0.1023 -0.5576 -0.3619
  754TIP3    H226458   3.916   4.815  12.277  0.3811 -0.5730 -2.6097
  755TIP3   OH226459   5.153   2.919  13.543 -0.0600  0.4249 -0.2367
  755TIP3    H126460   5.130   2.983  13.610 -1.3766 -0.3908  0.1343
  755TIP3    H226461   5.073   2.911  13.490 -0.8965 -2.7537  1.2773
  756TIP3   OH226462   2.742   4.842  12.813 -0.2806 -0.4102  0.4116
  756TIP3    H126463   2.771   4.899  12.742  1.3254 -0.0090  1.3123
  756TIP3    H226464   2.716   4.761  12.771  2.2993 -0.8333 -0.5592
  757TIP3   OH226465   3.799   2.683  12.163 -0.0213  0.1093  0.5197
  757TIP3    H126466   3.860   2.700  12.092  0.0773  0.5645  0.7134
  757TIP3    H226467   3.713   2.677  12.120  0.3419 -2.4259 -0.0315
  758TIP3   OH226468   2.045   4.305  13.239 -0.0658 -0.5922  0.0628
  758TIP3    H126469   1.952   4.323  13.233  0.0121 -0.3598 -0.5536
  758TIP3    H226470   2.051   4.223  13.288 -0.4959  0.3177  1.7187
  759TIP3   OH226471   0.358   0.079  12.447  0.4361 -0.4329  0.6783
  759TIP3    H126472   0.328   0.041  12.529 -0.2142 -0.5866  0.3766
  759TIP3    H226473   0.449   0.106  12.464 -0.3620  1.5480  2.1190
  760TIP3   OH226474   0.267   6.675  12.048 -0.6754 -0.4490  0.6003
  760TIP3    H126475   0.302   6.658  12.136 -0.8046  0.0368  0.7495
  760TIP3    H226476   0.175   6.695  12.063 -0.6589 -0.1984  0.3719
  761TIP3   OH226477   6.742   1.382  12.369 -0.4562 -0.0318 -0.0961
  761TIP3    H126478   6.727   1.363  12.462 -0.2067 -1.6356 -0.3662
  761TIP3    H226479   6.667   1.436  12.343 -0.1239  1.1203  1.2143
  762TIP3   OH226480   3.555   6.548  11.867 -0.0679  0.2568  0.3615
  762TIP3    H126481   3.604   6.627  11.889  1.2434 -0.6672  0.9012
  762TIP3    H226482   3.621   6.488  11.830 -1.1106 -0.4283 -0.4459
  763TIP3   OH226483   7.139   5.219  12.777 -0.1583  0.3464  0.0611
  763TIP3    H126484   7.195   5.285  12.736  1.2238 -0.2123  0.9971
  763TIP3    H226485   7.111   5.258  12.859 -2.3297  1.1680 -0.9831
  764TIP3   OH226486   6.931   3.313  12.357 -0.4830 -0.1521  0.0711
  764TIP3    H126487   6.927   3.260  12.437  1.3568 -0.7086 -0.1547
  764TIP3    H226488   6.996   3.269  12.303 -2.1286 -0.1364 -2.0418
  765TIP3   OH226489   2.684   4.758  13.445  0.5192 -0.6110 -0.2704
  765TIP3    H126490   2.644   4.701  13.511  0.8099 -0.2804  0.2045
  765TIP3    H226491   2.724   4.697  13.383 -0.9996 -0.9507 -0.9507
  766TIP3   OH226492   7.398   2.666  12.102  0.6792  1.3374 -0.1490
  766TIP3    H126493   7.358   2.683  12.017  0.1499 -0.3042 -0.2603
  766TIP3    H226494   7.492   2.667  12.085  0.5715 -0.2315 -1.0570
  767TIP3   OH226495   0.357   6.574  12.919  0.0969  0.5026 -0.1763
  767TIP3    H126496   0.383   6.644  12.978 -1.7767  0.2416  1.0464
  767TIP3    H226497   0.268   6.598  12.891 -0.5535 -1.3157  0.1888
  768TIP3   OH226498   4.114   5.983  12.134 -0.4596 -0.2352  0.4125
  768TIP3    H126499   4.184   5.925  12.163  0.9627  1.4414  0.4559
  768TIP3    H226500   4.063   5.930  12.073  2.2770 -0.7938 -1.5744
  769TIP3   OH226501   4.655   1.281  13.124 -0.3284 -0.8456 -0.6806
  769TIP3    H126502   4.656   1.354  13.186 -2.0317  0.2766 -1.8758
  769TIP3    H226503   4.725   1.224  13.154  2.7422  2.3661 -1.0368
  770TIP3   OH226504   2.493   5.103  12.193  0.8865  0.0918 -0.1942
  770TIP3    H126505   2.471   5.025  12.142 -2.2211  1.1293 -0.7105
  770TIP3    H226506   2.582   5.088  12.224  0.5122 -3.5412 -0.4447
  771TIP3   OH226507   0.996   1.953  12.783 -0.1577 -0.1246  0.2612
  771TIP3    H126508   0.938   1.939  12.858 -0.2874 -0.2222  0.1434
  771TIP3    H226509   0.975   2.042  12.754  0.6166  0.2977  0.9638
  772TIP3   OH226510   3.834   6.692  13.092  0.4380 -0.2193 -0.3783
  772TIP3    H126511   3.766   6.652  13.146  0.7682 -0.1053  0.1242
  772TIP3    H226512   3.797   6.777  13.067  1.3817  0.9723  2.0210
  773TIP3   OH226513   5.187   5.897  12.449 -0.1865 -0.0665  0.1621
  773TIP3    H126514   5.268   5.911  12.497 -0.5441 -1.3028  1.1649
  773TIP3    H226515   5.161   5.807  12.470 -0.0514 -0.9133 -2.8000
  774TIP3   OH226516   2.230   0.631  12.664  0.4270 -0.0727  0.2349
  774TIP3    H126517   2.277   0.608  12.745  0.8915 -0.0640 -0.0300
  774TIP3    H226518   2.219   0.547  12.619  0.3933 -0.0422  0.1874
  775TIP3   OH226519   2.726   4.787  13.075 -0.0897 -0.0091 -0.0056
  775TIP3    H126520   2.819   4.781  13.098 -0.8038 -2.6282  2.8158
  775TIP3    H226521   2.725   4.837  12.993  3.5692  2.2109  1.0657
  776TIP3   OH226522   0.201   6.294  11.062  0.4792 -0.1709  0.0568
  776TIP3    H126523   0.127   6.343  11.098  0.1494 -1.2509  0.9002
  776TIP3    H226524   0.236   6.351  10.994 -1.4543  0.1229 -0.7530
  777TIP3   OH226525   1.198   5.773  11.423  0.0456  0.4536  0.4335
  777TIP3    H126526   1.194   5.678  11.428  0.8008  0.3678 -0.3692
  777TIP3    H226527   1.290   5.794  11.436  0.0437  1.0021 -0.3374
  778TIP3   OH226528   0.616   5.861  11.582  0.3232 -0.1890  0.4403
  778TIP3    H126529   0.599   5.778  11.627 -0.8740  0.7634  1.8440
  778TIP3    H226530   0.668   5.911  11.644  0.4280  0.3871 -0.1066
  779TIP3   OH226531   6.440   2.874  12.688  0.3219  0.7807 -0.4756
  779TIP3    H126532   6.490   2.834  12.617  0.0747  0.1906 -0.3239
  779TIP3    H226533   6.349   2.860  12.664  0.2256  1.5738 -0.5955
  780TIP3   OH226534   1.302   1.096  13.574 -0.2262  0.1692 -0.3558
  780TIP3    H126535   1.279   1.050  13.494 -1.4468 -0.1686  0.1629
  780TIP3    H226536   1.218   1.110  13.618  0.3681  0.8486  0.5869
  781TIP3   OH226537   4.097   1.022  11.879 -0.5616 -0.1376 -0.1082
  781TIP3    H126538   4.041   0.991  11.807 -0.5987  1.0276 -0.5966
  781TIP3    H226539   4.181   0.978  11.863 -0.8539 -0.6393 -0.3031
  782TIP3   OH226540   5.659   2.717  11.634 -0.2618 -0.2301 -0.2947
  782TIP3    H126541   5.693   2.677  11.554 -0.3515  0.3000 -0.5966
  782TIP3    H226542   5.717   2.683  11.703 -0.2724 -0.7988 -0.5593
  783TIP3   OH226543   2.266   3.162  12.445 -0.5854 -0.0404  0.1163
  783TIP3    H126544   2.204   3.089  12.436 -1.9854  1.1418 -0.3068
  783TIP3    H226545   2.224   3.234  12.398  0.2541  1.3255  1.3890
  784TIP3   OH226546   5.821   5.339  12.687 -1.1141  0.5063  0.4997
  784TIP3    H126547   5.895   5.341  12.748 -1.1693  0.2488  0.5738
  784TIP3    H226548   5.774   5.258  12.708 -0.6297 -0.0428 -0.4965
  785TIP3   OH226549   2.187   0.405  12.544  0.4349  0.3235  0.1678
  785TIP3    H126550   2.125   0.386  12.474  0.9240 -0.0511 -0.1734
  785TIP3    H226551   2.245   0.329  12.546 -0.4403 -0.3601  1.9450
  786TIP3   OH226552   4.875   5.393  11.372  0.5903 -0.2748 -0.0898
  786TIP3    H126553   4.955   5.396  11.424  1.3993  1.8722 -1.3454
  786TIP3    H226554   4.813   5.448  11.419  0.7240  0.1933 -0.4566
  787TIP3   OH226555   3.774   6.072  12.805 -0.1944 -0.0381 -0.2417
  787TIP3    H126556   3.764   5.977  12.808 -0.6085 -0.0405 -1.2172
  787TIP3    H226557   3.830   6.093  12.880 -0.6147 -0.9721  0.3510
  788TIP3   OH226558   1.083   2.535  12.110 -0.7672 -0.1335  0.0079
  788TIP3    H126559   1.074   2.504  12.200  1.7287 -3.2438 -0.6203
  788TIP3    H226560   1.033   2.473  12.058  1.4949 -1.1848 -1.0448
  789TIP3   OH226561   0.770   4.601  12.527 -0.4256 -1.1210  0.0359
  789TIP3    H126562   0.814   4.595  12.612 -1.0394  1.1440  0.5753
  789TIP3    H226563   0.677   4.603  12.549 -0.6228 -1.3400 -0.7720
  790TIP3   OH226564   0.404   2.352  13.911  0.4707  0.3747  0.0108
  790TIP3    H126565   0.445   2.312  13.988  0.4428  0.5918  0.1396
  790TIP3    H226566   0.459   2.325  13.837  0.4192  0.0507  0.0873
  791TIP3   OH226567   5.983   1.038  12.009  0.4348  0.3778  0.1496
  791TIP3    H126568   6.009   1.033  12.101 -0.2036 -1.1656  0.2745
  791TIP3    H226569   6.004   0.951  11.974 -0.6065  0.4876 -0.7967
  792TIP3   OH226570   1.954   1.558  12.090  0.5063 -0.0423  0.0877
  792TIP3    H126571   1.999   1.610  12.157  1.9502 -2.6240  1.2714
  792TIP3    H226572   2.024   1.523  12.036 -0.5984  1.4085 -2.4894
  793TIP3   OH226573   2.965   2.372  12.872  0.4435 -0.7088 -0.2233
  793TIP3    H126574   2.948   2.435  12.802  1.4538 -0.8576 -0.6191
  793TIP3    H226575   2.907   2.299  12.854 -0.3798 -0.1137 -0.0450
  794TIP3   OH226576   1.966   1.464  11.283  0.1918  0.1239 -0.3010
  794TIP3    H126577   2.015   1.421  11.353 -0.0973  0.8717  0.3713
  794TIP3    H226578   2.030   1.521  11.240  0.6927 -1.2821 -1.4923
  795TIP3   OH226579   1.098   1.737  12.142 -0.2606 -0.0752  0.4734
  795TIP3    H126580   1.104   1.676  12.216 -0.9420  1.4737  1.8728
  795TIP3    H226581   1.165   1.707  12.081  1.8253 -0.2196  2.6573
  796TIP3   OH226582   1.816   0.938  13.220  0.0258  0.2175 -0.1457
  796TIP3    H126583   1.802   0.866  13.158 -0.4822  0.9079 -0.8371
  796TIP3    H226584   1.857   1.007  13.169 -2.7504  1.8150 -0.4209
  797TIP3   OH226585   1.015   1.979  13.561 -0.4902  0.2066  0.1165
  797TIP3    H126586   1.016   2.061  13.511 -0.7688 -0.1105 -0.4228
  797TIP3    H226587   1.107   1.954  13.567 -0.2625  1.3234  1.5872
  798TIP3   OH226588   4.260   3.817  13.668 -0.1014  0.5014 -0.0199
  798TIP3    H126589   4.250   3.824  13.763  0.4181  0.4540  0.0420
  798TIP3    H226590   4.244   3.906  13.636  1.2953  0.8811  0.2707
  799TIP3   OH226591   0.750   2.172  13.251  0.3674 -0.2753  0.0500
  799TIP3    H126592   0.694   2.248  13.269  1.0467 -0.0267  1.2446
  799TIP3    H226593   0.703   2.098  13.291 -1.0157 -0.8010 -2.3614
  800TIP3   OH226594   5.229   1.156  11.283 -0.4501 -0.3543  0.1150
  800TIP3    H126595   5.193   1.193  11.203  0.9064 -1.0468 -0.8517
  800TIP3    H226596   5.162   1.094  11.313 -0.5056 -0.9365 -1.1248
  801TIP3   OH226597   0.085   5.706  11.574 -0.1770 -0.5381  0.0389
  801TIP3    H126598   0.153   5.753  11.621 -1.4265  3.1027 -1.4653
  801TIP3    H226599   0.003   5.745  11.605 -1.5445 -3.1704  0.0981
  802TIP3   OH226600   1.447   7.342  13.153  0.3222 -0.0888  0.0745
  802TIP3    H126601   1.443   7.433  13.183 -0.4497 -0.4937  1.3043
  802TIP3    H226602   1.388   7.338  13.078 -2.1087 -0.1713  1.8613
  803TIP3   OH226603   5.015   1.691  12.342 -0.1615 -0.3869 -0.2145
  803TIP3    H126604   4.988   1.625  12.278  0.8024  0.6026 -1.6943
  803TIP3    H226605   5.065   1.755  12.291  0.1898  0.7164  1.4455
  804TIP3   OH226606   5.486   4.847  12.046 -0.2174 -0.1052  0.3895
  804TIP3    H126607   5.426   4.818  11.977 -0.0250 -1.3326  0.7142
  804TIP3    H226608   5.433   4.904  12.101 -0.3485  0.9791 -0.8127
  805TIP3   OH226609   2.211   0.843  12.399  0.3706  0.3643  0.6996
  805TIP3    H126610   2.130   0.873  12.357  0.7659  3.3449  1.8520
  805TIP3    H226611   2.185   0.763  12.445 -1.4242  0.1989 -0.4673
  806TIP3   OH226612   6.904   7.512  10.808  0.2811  0.5981 -0.5405
  806TIP3    H126613   6.818   7.472  10.799  0.6568 -0.3469  0.0137
  806TIP3    H226614   6.885   7.604  10.830 -0.5912  1.1845 -3.2911
  807TIP3   OH226615   2.691   1.571  13.059  0.1354  0.1883  0.3062
  807TIP3    H126616   2.618   1.597  13.003  1.0912  2.4069 -0.0134
  807TIP3    H226617   2.669   1.607  13.145  1.4295  2.1868 -0.1170
  808TIP3   OH226618   4.102   4.717  10.986  0.2350  0.0230 -0.3133
  808TIP3    H126619   4.079   4.624  10.991  0.2476  0.0619  0.7071
  808TIP3    H226620   4.034   4.761  11.038  0.5828  0.5138 -0.2717
  809TIP3   OH226621   3.364   6.530  11.637 -0.2729 -0.0723  1.1286
  809TIP3    H126622   3.442   6.474  11.632 -0.8138 -1.0302  2.6125
  809TIP3    H226623   3.345   6.536  11.731 -2.4971 -0.6311  0.7804
  810TIP3   OH226624   6.876   6.091  11.981  0.1653  0.2376 -0.2159
  810TIP3    H126625   6.842   6.018  12.032 -0.0233 -0.6594 -1.5772
  810TIP3    H226626   6.883   6.163  12.044  1.5676 -1.2607  1.4652
  811TIP3   OH226627   0.276   2.451  11.616 -0.4811  0.5649  0.0389
  811TIP3    H126628   0.289   2.370  11.666 -1.0831  1.4714  1.7688
  811TIP3    H226629   0.268   2.423  11.525  3.2603 -0.9795  0.0173
  812TIP3   OH226630   1.724   5.274  12.084  0.1235  0.2091 -0.0142
  812TIP3    H126631   1.816   5.255  12.066  0.6122  0.5433  1.8723
  812TIP3    H226632   1.682   5.187  12.086  0.6479 -0.0430  0.2833
  813TIP3   OH226633   2.692   6.268  12.165 -0.3769 -0.0143 -0.0254
  813TIP3    H126634   2.692   6.302  12.255  0.2655  0.1738 -0.0903
  813TIP3    H226635   2.700   6.346  12.110 -3.9148  0.2166 -0.4309
  814TIP3   OH226636   7.041   0.117  11.063 -0.1021 -0.3121  0.0462
  814TIP3    H126637   7.109   0.072  11.014 -0.8295 -0.1523 -1.1423
  814TIP3    H226638   6.960   0.098  11.016 -0.5125  1.7352 -0.1843
  815TIP3   OH226639   0.792   6.471  13.934  0.5455  0.3947  0.2229
  815TIP3    H126640   0.849   6.448  14.007  0.0616  1.0547  0.8253
  815TIP3    H226641   0.745   6.390  13.914  0.5126  0.2670  0.8005
  816TIP3   OH226642   6.157   0.653  10.728 -0.2948  0.8117 -0.3016
  816TIP3    H126643   6.186   0.731  10.681  2.3782  0.0599 -0.0703
  816TIP3    H226644   6.092   0.613  10.671  1.1977  1.1288 -2.3464
  817TIP3   OH226645   5.788   7.526  11.445 -0.2337  0.0967 -0.0478
  817TIP3    H126646   5.784   7.432  11.429 -0.4233  0.1106 -0.0930
  817TIP3    H226647   5.696   7.554  11.439 -0.6151 -0.2061  3.0381
  818TIP3   OH226648   7.522   5.809  11.654 -0.0759 -0.0284  0.6558
  818TIP3    H126649   7.507   5.867  11.580  0.8951 -0.0601  0.4122
  818TIP3    H226650   7.436   5.795  11.692 -0.6761 -0.4043 -0.7624
  819TIP3   OH226651   7.029   0.839  13.029 -0.0011 -0.2686 -0.7243
  819TIP3    H126652   7.049   0.814  13.119 -2.0991  0.4932  0.0044
  819TIP3    H226653   7.079   0.919  13.015 -1.3856  0.9052  0.6178
  820TIP3   OH226654   0.638   3.525  13.713 -0.2331 -0.0976  0.0103
  820TIP3    H126655   0.562   3.486  13.755 -1.3180  0.5476 -1.2891
  820TIP3    H226656   0.606   3.607  13.676  0.5910 -0.7327 -2.2679
  821TIP3   OH226657   5.409   6.473  12.972  0.1069 -0.3251 -0.3288
  821TIP3    H126658   5.453   6.527  12.907  2.3627 -0.4760  0.9775
  821TIP3    H226659   5.413   6.384  12.936  0.5066 -0.2806 -0.3935
  822TIP3   OH226660   3.014   3.881  13.202  0.4097  0.4254 -0.0032
  822TIP3    H126661   2.949   3.940  13.165  1.2484  1.9289  0.8389
  822TIP3    H226662   3.094   3.933  13.206  1.6331 -1.3080 -0.8058
  823TIP3   OH226663   6.064   7.121  12.678 -0.2468  0.0799 -0.8165
  823TIP3    H126664   6.058   7.214  12.700  1.2938  0.1681 -0.6119
  823TIP3    H226665   6.148   7.113  12.633 -2.0206 -0.5979 -4.3619
  824TIP3   OH226666   4.822   6.669  13.222  0.1426 -0.3678 -0.6877
  824TIP3    H126667   4.766   6.655  13.299  1.5058  0.1378  0.4424
  824TIP3    H226668   4.833   6.764  13.218  0.8802 -0.4581 -0.9072
  825TIP3   OH226669   0.296   1.081  13.630  0.6315  0.4599 -0.5049
  825TIP3    H126670   0.357   1.155  13.625  0.4316  0.5696 -2.0417
  825TIP3    H226671   0.248   1.085  13.547  0.6912 -1.4774 -0.6740
  826TIP3   OH226672   2.754   4.655  12.330  0.1757 -0.1498  0.4626
  826TIP3    H126673   2.828   4.637  12.388  0.4951 -0.1381  0.0605
  826TIP3    H226674   2.788   4.642  12.242 -0.7150 -1.7492  0.3032
  827TIP3   OH226675   5.447   5.996  28.457 -0.1463 -0.0267  0.0514
  827TIP3    H126676   5.441   5.995  28.552 -0.6762  0.8063  0.0364
  827TIP3    H226677   5.541   6.001  28.439 -0.0512 -0.0981  0.5256
  828TIP3   OH226678   2.963   5.604  11.976  0.1762  0.2781 -0.2322
  828TIP3    H126679   2.950   5.632  12.066 -0.6348 -2.0655  0.4569
  828TIP3    H226680   2.999   5.515  11.983  1.3859  0.5573 -2.2251
  829TIP3   OH226681   4.464   4.935  12.718 -0.1116  0.8035 -0.2172
  829TIP3    H126682   4.559   4.928  12.715 -0.1094 -0.3322  1.2986
  829TIP3    H226683   4.435   4.903  12.633  0.8096 -0.7238  0.0055
  830TIP3   OH226684   1.734   6.409  12.131  0.0551 -0.1208 -0.2102
  830TIP3    H126685   1.811   6.355  12.152  0.3770  1.2893  2.7179
  830TIP3    H226686   1.761   6.498  12.151 -2.0892  0.5168  0.0407
  831TIP3   OH226687   3.523   4.964  10.903 -0.5308 -0.2687  0.1246
  831TIP3    H126688   3.609   5.004  10.922 -0.9724  0.7804 -0.0128
  831TIP3    H226689   3.467   5.038  10.879 -1.4016 -0.9791 -0.0832
  832TIP3   OH226690   6.786   4.938  12.850 -0.0840 -0.3701  0.2245
  832TIP3    H126691   6.738   4.905  12.926  0.0469 -1.7140 -0.2452
  832TIP3    H226692   6.725   4.929  12.777  0.6831 -1.6723 -0.2943
  833TIP3   OH226693   0.668   1.003  11.561 -0.0777  0.4531  0.0743
  833TIP3    H126694   0.754   1.042  11.546  0.6738 -1.6916 -1.8433
  833TIP3    H226695   0.685   0.910  11.573 -2.0786  0.1030  0.5847
  834TIP3   OH226696   2.060   3.339  12.262 -0.0743  0.3210 -0.4048
  834TIP3    H126697   2.094   3.325  12.174 -0.5141 -0.0197 -0.5238
  834TIP3    H226698   1.965   3.329  12.253 -0.0369 -0.9192  0.3250
  835TIP3   OH226699   1.981   1.734  13.260  0.4401 -0.4622 -0.0033
  835TIP3    H126700   1.999   1.640  13.257  0.4940 -0.5199  1.4984
  835TIP3    H226701   2.057   1.775  13.217  0.3416 -1.1008 -0.8010
  836TIP3   OH226702   4.681   0.268  11.991  0.4718  0.3933 -0.4410
  836TIP3    H126703   4.671   0.308  12.078 -0.5823  1.4275 -0.9995
  836TIP3    H226704   4.594   0.274  11.952  0.9819  0.1631 -1.6628
  837TIP3   OH226705   6.730   3.833  12.583  1.0526  0.8948  0.3349
  837TIP3    H126706   6.761   3.873  12.501  1.1149 -1.0800 -0.6679
  837TIP3    H226707   6.644   3.871  12.597 -0.3169 -0.9273 -2.3818
  838TIP3   OH226708   2.558   7.480  13.727  0.0539  0.1345  0.1907
  838TIP3    H126709   2.638   7.427  13.720 -0.5345 -0.6121 -1.4493
  838TIP3    H226710   2.589   7.566  13.754  1.7296  0.4750 -2.4174
  839TIP3   OH226711   2.088   6.749  11.910 -0.0301 -0.3129  0.0463
  839TIP3    H126712   2.144   6.791  11.975  0.8904 -1.1858 -0.1650
  839TIP3    H226713   2.001   6.750  11.950  0.5969 -1.2579  1.5081
  840TIP3   OH226714   3.136   3.611  12.016 -0.0458 -0.1894  0.5551
  840TIP3    H126715   3.210   3.558  12.045 -0.6196 -1.1710  0.2698
  840TIP3    H226716   3.172   3.665  11.945  0.1360 -1.5189 -0.3942
  841TIP3   OH226717   5.871   5.001  12.387  0.9716  0.2682  0.7301
  841TIP3    H126718   5.868   4.953  12.470  0.7196 -2.0225 -0.5372
  841TIP3    H226719   5.945   4.963  12.340 -0.1731  0.0265 -0.9425
  842TIP3   OH226720   6.856   0.592  11.931 -0.3120  0.2191 -0.1831
  842TIP3    H126721   6.906   0.656  11.982  0.3165 -0.9349  0.6936
  842TIP3    H226722   6.810   0.644  11.866  0.0564  1.5844  0.6085
  843TIP3   OH226723   6.016   3.528  12.400  0.3341  0.0864  0.6317
  843TIP3    H126724   5.939   3.493  12.444  0.3664  0.5249  1.0406
  843TIP3    H226725   6.044   3.458  12.341 -1.1508  0.4223 -0.5101
  844TIP3   OH226726   0.037   0.673  10.870 -0.2590 -0.4935 -0.2813
  844TIP3    H126727  -0.056   0.683  10.888 -0.2723  1.3290 -1.0910
  844TIP3    H226728   0.059   0.748  10.814  1.7190 -0.7941 -0.0015
  845TIP3   OH226729   2.678   2.757  13.475 -0.1005 -0.4366 -0.4922
  845TIP3    H126730   2.737   2.732  13.546  1.1878  0.0483 -1.3561
  845TIP3    H226731   2.734   2.764  13.398 -1.1374  0.9318 -1.1664
  846TIP3   OH226732   3.233   2.927  12.472  0.1062  0.4797  0.7799
  846TIP3    H126733   3.297   2.974  12.419 -0.6089  2.0863  1.2675
  846TIP3    H226734   3.157   2.917  12.415  0.0314  0.4898  0.8773
  847TIP3   OH226735   5.441   3.058  12.057 -0.0920 -0.4276  0.3357
  847TIP3    H126736   5.353   3.029  12.080 -0.0849  0.1186  1.0775
  847TIP3    H226737   5.473   3.104  12.135  0.9486 -0.8353  0.1673
  848TIP3   OH226738   3.555   2.532  13.367 -0.5187  0.2001  0.1435
  848TIP3    H126739   3.514   2.601  13.315 -0.0088  0.5371  0.1915
  848TIP3    H226740   3.591   2.577  13.443  1.7702  0.2430 -0.8894
  849TIP3   OH226741   3.951   0.082  12.439 -0.2026  0.1660  0.5595
  849TIP3    H126742   4.028   0.045  12.483  1.4659 -1.5210 -3.2500
  849TIP3    H226743   3.981   0.168  12.408 -0.6232  0.4376  0.9024
  850TIP3   OH226744   0.372   2.960  12.935 -0.0873  0.2667  0.3961
  850TIP3    H126745   0.279   2.977  12.922 -0.9583 -2.9347  1.4634
  850TIP3    H226746   0.383   2.957  13.030  0.9564  0.0208  0.2783
  851TIP3   OH226747   1.208   0.775  11.833 -0.3579  0.6177  0.4833
  851TIP3    H126748   1.246   0.722  11.904  0.0632  0.7022  0.3210
  851TIP3    H226749   1.178   0.710  11.769 -0.6123  0.5460  0.6707
  852TIP3   OH226750   5.160   2.602  11.872  0.4022  0.4771 -0.3836
  852TIP3    H126751   5.076   2.643  11.854 -0.7857 -1.7668 -0.3526
  852TIP3    H226752   5.170   2.536  11.803  0.5961 -1.4035  1.3515
  853TIP3   OH226753   6.140   5.526  10.820  0.3568 -0.4132 -0.0730
  853TIP3    H126754   6.084   5.595  10.785 -0.8370 -1.6426 -0.6989
  853TIP3    H226755   6.194   5.569  10.886 -1.3737  0.8167  0.5947
  854TIP3   OH226756   4.485   5.809  13.735  0.1520 -0.4193 -0.3790
  854TIP3    H126757   4.459   5.884  13.681 -0.1335 -0.2244  0.0274
  854TIP3    H226758   4.438   5.820  13.817  1.3853 -0.1338  0.3223
  855TIP3   OH226759   2.302   4.602  13.642 -0.3700  0.3037 -0.2675
  855TIP3    H126760   2.335   4.575  13.556 -0.0623 -0.9289  0.2213
  855TIP3    H226761   2.219   4.556  13.650 -1.1560  1.6098 -0.5215
  856TIP3   OH226762   1.783   2.557  12.093 -0.5714  1.0836  0.0152
  856TIP3    H126763   1.787   2.474  12.047  0.1061  0.8267  0.5232
  856TIP3    H226764   1.783   2.623  12.024 -0.7864  0.6723 -0.3789
  857TIP3   OH226765   3.441   0.460  12.768 -0.1388 -0.5908  0.5722
  857TIP3    H126766   3.526   0.457  12.724  0.1596 -1.0365  1.1704
  857TIP3    H226767   3.448   0.395  12.838 -1.0668 -0.8119  0.4598
  858TIP3   OH226768   6.735   0.353  12.031  0.4330 -0.6504  0.8558
  858TIP3    H126769   6.773   0.423  11.977  0.0851  0.0344  1.4754
  858TIP3    H226770   6.772   0.367  12.118 -0.1977 -0.7956  1.1524
  859TIP3   OH226771   3.455   1.195  12.382 -0.2112 -0.2317  0.0775
  859TIP3    H126772   3.446   1.134  12.455 -1.6231 -0.6161 -0.3727
  859TIP3    H226773   3.517   1.153  12.323  0.3309 -0.2939  0.6843
  860TIP3   OH226774   3.942   4.361  13.058 -0.0102  0.2754  0.0390
  860TIP3    H126775   3.871   4.352  13.123 -1.4071 -0.5350 -1.5260
  860TIP3    H226776   3.959   4.271  13.030  0.4324  0.6329 -0.8542
  861TIP3   OH226777   7.438   5.510  11.512 -0.2029 -0.3982  0.0009
  861TIP3    H126778   7.385   5.533  11.588  0.3273 -0.0881  0.2824
  861TIP3    H226779   7.376   5.471  11.450 -0.7917  0.1416  0.2426
  862TIP3   OH226780   7.479   2.233  13.962 -0.0910 -0.2683  0.1184
  862TIP3    H126781   7.488   2.199  14.051 -2.4740  2.7261  1.6854
  862TIP3    H226782   7.545   2.302  13.956 -0.5410  0.1451 -0.1049
  863TIP3   OH226783   5.291   0.785  13.205 -0.2302  0.3058  0.3542
  863TIP3    H126784   5.325   0.696  13.192 -0.6326 -0.0626  1.6910
  863TIP3    H226785   5.357   0.841  13.164  0.2967 -0.5730 -0.0487
  864TIP3   OH226786   5.262   6.603  11.611 -0.6091  0.3282 -0.3712
  864TIP3    H126787   5.246   6.690  11.574 -1.2924  0.0866 -0.6687
  864TIP3    H226788   5.197   6.547  11.568  0.0114 -0.3887 -0.3931
  865TIP3   OH226789   7.502   7.012  13.881  0.1207  0.0509 -0.2406
  865TIP3    H126790   7.559   7.002  13.805  0.1553 -1.9027 -0.0009
  865TIP3    H226791   7.530   7.095  13.921  1.5716  0.0277 -1.1296
  866TIP3   OH226792   6.093   0.978  12.270 -0.0052 -0.5568  0.5469
  866TIP3    H126793   6.182   0.972  12.236 -0.0003 -0.0451  0.4662
  866TIP3    H226794   6.101   1.026  12.352 -0.4223  1.0478 -0.3229
  867TIP3   OH226795   5.471   3.190  11.647  0.0695  0.5806 -0.3418
  867TIP3    H126796   5.547   3.234  11.609 -0.0138  0.4401 -0.6757
  867TIP3    H226797   5.464   3.225  11.736  1.3729 -0.4404  0.2007
  868TIP3   OH226798   3.428   6.413  11.242 -0.5358  0.0948 -0.0811
  868TIP3    H126799   3.404   6.433  11.151  0.1340 -0.7429 -0.4587
  868TIP3    H226800   3.508   6.462  11.258 -0.8405  0.5162  0.1840
  869TIP3   OH226801   4.532   1.940  12.780  0.3097  0.1134  0.1083
  869TIP3    H126802   4.449   1.928  12.733  0.5349 -1.5901  0.0733
  869TIP3    H226803   4.567   1.851  12.789  1.2222  0.6063  1.7820
  870TIP3   OH226804   2.979   6.880  11.152 -0.1028  0.0579  0.5055
  870TIP3    H126805   2.957   6.933  11.075 -3.3263  0.6529  1.6721
  870TIP3    H226806   3.057   6.922  11.189  1.3284 -0.0465 -2.1410
  871TIP3   OH226807   7.560   3.546  12.733  0.3009 -0.3505 -0.2262
  871TIP3    H126808   7.632   3.581  12.681  0.6754 -0.2825  0.3282
  871TIP3    H226809   7.548   3.610  12.803 -0.5286 -0.1922 -0.5055
  872TIP3   OH226810   4.915   7.022  12.940  0.3715  0.2152 -0.8532
  872TIP3    H126811   4.956   7.108  12.929 -0.2537  0.5233 -0.8551
  872TIP3    H226812   4.988   6.961  12.947  0.8803  0.9289  0.6967
  873TIP3   OH226813   6.521   4.138  11.798  0.1939 -0.0331 -0.2207
  873TIP3    H126814   6.575   4.085  11.857  1.1064 -1.1703 -2.0174
  873TIP3    H226815   6.437   4.093  11.797 -0.0014  0.2863  0.5797
  874TIP3   OH226816   5.279   1.592  13.136  0.0188  0.1130 -0.7375
  874TIP3    H126817   5.264   1.506  13.176 -1.8900  0.6667 -0.1186
  874TIP3    H226818   5.214   1.597  13.065 -0.0167  1.1052 -0.6496
  875TIP3   OH226819   0.886   4.807  12.082  0.4225  0.2171 -0.2136
  875TIP3    H126820   0.932   4.891  12.083 -0.6645  0.8362 -0.4789
  875TIP3    H226821   0.858   4.794  12.172 -1.6136  1.4320 -0.6033
  876TIP3   OH226822   6.192   1.251  13.669 -0.4147 -0.0312 -0.1685
  876TIP3    H126823   6.113   1.271  13.720  0.3101  2.0193  0.2289
  876TIP3    H226824   6.174   1.287  13.583 -0.5347 -1.0506 -0.5905
  877TIP3   OH226825   0.539   7.087  13.336  0.3824  0.4039 -0.9780
  877TIP3    H126826   0.599   7.067  13.263 -0.2792  2.7616 -2.2749
  877TIP3    H226827   0.570   7.171  13.369 -0.1649 -0.0035  0.6230
  878TIP3   OH226828   4.764   6.238  12.248  0.1770 -0.8105 -0.0338
  878TIP3    H126829   4.680   6.213  12.286  1.0657 -0.0164  2.6465
  878TIP3    H226830   4.750   6.325  12.213 -0.3959 -1.1442 -0.6596
  879TIP3   OH226831   1.252   1.037  12.836 -0.6151  0.3117 -0.1927
  879TIP3    H126832   1.218   0.992  12.914 -1.9693  2.1095  0.3262
  879TIP3    H226833   1.205   1.121  12.835  0.7176  1.0862 -1.9363
  880TIP3   OH226834   6.957   7.587  13.516 -0.0442  0.4593  0.0061
  880TIP3    H126835   6.899   7.549  13.582 -1.5443 -0.0372 -1.5156
  880TIP3    H226836   6.997   7.512  13.472 -0.8368  0.6490 -1.1172
  881TIP3   OH226837   7.477   0.770  11.855  0.1616 -0.0311  0.0942
  881TIP3    H126838   7.564   0.734  11.871 -0.3364 -0.5412  1.8631
  881TIP3    H226839   7.446   0.797  11.942 -0.9384  1.3346 -0.6806
  882TIP3   OH226840   5.161   2.405  13.252  0.3193  0.2015 -0.2537
  882TIP3    H126841   5.082   2.355  13.273  1.9084 -2.5778 -0.5147
  882TIP3    H226842   5.202   2.421  13.337 -0.2367  1.2404 -0.1609
  883TIP3   OH226843   1.454   0.298  13.650 -0.3329  0.0522  0.8187
  883TIP3    H126844   1.445   0.335  13.738 -1.6310  1.4645  0.1415
  883TIP3    H226845   1.483   0.372  13.596 -5.0648  0.9188 -1.0198
  884TIP3   OH226846   5.977   0.199  13.375  0.4740 -0.2366  0.3282
  884TIP3    H126847   5.959   0.182  13.467 -1.0483  1.3697  0.3778
  884TIP3    H226848   5.915   0.144  13.328  0.1899  0.1035  0.3056
  885TIP3   OH226849   2.710   5.312  12.413 -0.0865  0.5253  0.5797
  885TIP3    H126850   2.728   5.246  12.347  1.3442  1.3468  0.0944
  885TIP3    H226851   2.769   5.291  12.485  0.7561  1.5405  0.2119
  886TIP3   OH226852   1.727   1.710  12.370  0.2540  0.3888 -0.5570
  886TIP3    H126853   1.815   1.674  12.378  0.5735  1.1217 -0.7271
  886TIP3    H226854   1.671   1.633  12.357  0.9849 -0.0234 -1.3768
  887TIP3   OH226855   6.995   1.850  12.190  0.1883  0.1781  0.1787
  887TIP3    H126856   7.081   1.825  12.224  1.1382  0.0778 -2.1584
  887TIP3    H226857   6.941   1.772  12.201  0.9172 -0.3570 -0.0298
  888TIP3   OH226858   3.960   0.358  12.747 -0.2779  0.5067  0.3370
  888TIP3    H126859   4.039   0.371  12.800 -1.3279  2.4492  1.5409
  888TIP3    H226860   3.942   0.264  12.754  2.5807 -0.2552 -1.0304
  889TIP3   OH226861   3.488   0.811  13.313 -0.0080  0.0754  0.0482
  889TIP3    H126862   3.435   0.826  13.235 -1.6592 -1.1575  0.8952
  889TIP3    H226863   3.440   0.855  13.384  0.7374 -0.0199  0.6306
  890TIP3   OH226864   1.245   3.956  11.356  0.1156 -0.0040 -0.9133
  890TIP3    H126865   1.287   3.975  11.271 -0.0623 -0.2124 -1.0493
  890TIP3    H226866   1.160   4.000  11.351  0.1434  0.0602 -0.8079
  891TIP3   OH226867   2.889   5.954  12.343  0.1443 -0.3033  0.3743
  891TIP3    H126868   2.921   5.972  12.432  1.0095  0.8222 -0.1421
  891TIP3    H226869   2.921   6.028  12.291  1.7458 -2.1047 -1.3738
  892TIP3   OH226870   0.348   0.260  12.011 -0.5236 -0.7821  0.2026
  892TIP3    H126871   0.329   0.195  12.079 -2.5112 -0.3599  0.1089
  892TIP3    H226872   0.391   0.210  11.942  1.7846 -1.1678  1.8268
  893TIP3   OH226873   6.764   4.794  11.444  0.2564  0.2267  0.1419
  893TIP3    H126874   6.767   4.882  11.480  0.2253 -0.0735  0.8929
  893TIP3    H226875   6.856   4.767  11.436  0.2489 -0.0180  0.7956
  894TIP3   OH226876   4.687   4.320  12.320 -0.1426 -0.2273 -0.3464
  894TIP3    H126877   4.741   4.260  12.269 -0.8260 -0.4364 -0.8372
  894TIP3    H226878   4.732   4.329  12.404  0.4752 -0.6520 -0.6334
  895TIP3   OH226879   4.788   3.222  12.726 -0.2030  0.0599  0.2197
  895TIP3    H126880   4.749   3.232  12.813 -0.5442  0.7364 -0.0013
  895TIP3    H226881   4.736   3.154  12.684  0.1277 -0.4544  0.6333
  896TIP3   OH226882   6.588   6.171  12.221  0.4164  0.6814  0.2125
  896TIP3    H126883   6.624   6.117  12.291  0.1305  0.5782  0.2807
  896TIP3    H226884   6.522   6.116  12.178  0.6944  0.6892 -0.2358
  897TIP3   OH226885   7.388   6.996  12.451  0.6438  0.0985  0.4130
  897TIP3    H126886   7.362   6.966  12.538  1.2818  1.0943  0.9699
  897TIP3    H226887   7.426   7.083  12.465  1.3818  0.0057 -0.7693
  898TIP3   OH226888   1.464   3.289  11.026  0.0746 -0.1009 -0.0414
  898TIP3    H126889   1.382   3.285  10.976 -1.2658  0.4126  1.9805
  898TIP3    H226890   1.519   3.350  10.978  0.1389 -2.0220 -2.5883
  899TIP3   OH226891   2.317   2.982  13.363  0.1011  0.4589  0.1382
  899TIP3    H126892   2.335   3.071  13.395 -1.6524  1.3629 -1.2388
  899TIP3    H226893   2.361   2.978  13.278  2.0978 -0.8570  1.1287
  900TIP3   OH226894   0.736   1.138  13.071 -0.2631 -0.4368 -0.1520
  900TIP3    H126895   0.772   1.111  12.986  1.0786 -1.2708  0.6379
  900TIP3    H226896   0.709   1.056  13.112 -0.1454 -0.1314  0.5465
  901TIP3   OH226897   2.156   1.437  11.952 -0.2602  0.1732  0.7801
  901TIP3    H126898   2.201   1.356  11.927  0.4950  0.6188  0.6536
  901TIP3    H226899   2.113   1.466  11.871  0.5862  0.5977  0.4682
  902TIP3   OH226900   6.875   0.656  12.472  0.0714 -0.0832  0.1464
  902TIP3    H126901   6.911   0.736  12.510 -0.3803  0.6506 -0.9101
  902TIP3    H226902   6.783   0.677  12.454  0.0769 -0.6623 -0.6117
  903TIP3   OH226903   3.475   2.767  12.298 -0.1571 -0.5990 -0.2966
  903TIP3    H126904   3.520   2.777  12.215 -2.0694 -0.7008 -1.4180
  903TIP3    H226905   3.462   2.856  12.331  2.5785 -0.6215  1.1044
  904TIP3   OH226906   1.469   4.143  12.440  0.3370 -0.3518 -0.0973
  904TIP3    H126907   1.405   4.178  12.502  0.3966  1.7511 -1.1500
  904TIP3    H226908   1.554   4.155  12.484  0.3618  0.9401 -0.4638
  905TIP3   OH226909   7.575   0.092  12.461  0.1822  0.2038 -0.3451
  905TIP3    H126910   7.636   0.129  12.397 -1.7304  2.5426 -0.9713
  905TIP3    H226911   7.576   0.155  12.533 -0.6167 -0.3572  0.1629
  906TIP3   OH226912   0.665   7.493  13.825  0.1057  0.0251  0.6577
  906TIP3    H126913   0.618   7.411  13.840  1.0968 -1.3779 -2.8019
  906TIP3    H226914   0.757   7.467  13.819  0.4813  1.4253 -0.0882
  907TIP3   OH226915   6.322   3.179  11.954  0.2589  0.5731 -0.1806
  907TIP3    H126916   6.310   3.265  11.995 -1.2457  1.1310 -1.6999
  907TIP3    H226917   6.236   3.156  11.920  0.1930 -2.3432  1.6185
  908TIP3   OH226918   1.920   0.195  13.202 -0.5740  0.0549 -0.5948
  908TIP3    H126919   1.941   0.115  13.250  0.8004  0.9625  0.3890
  908TIP3    H226920   1.857   0.240  13.258  0.7460  0.9376  0.2228
  909TIP3   OH226921   5.077   6.466  11.461  0.0611 -0.2226 -0.2069
  909TIP3    H126922   5.007   6.489  11.400 -0.6789 -1.2979  0.2034
  909TIP3    H226923   5.036   6.405  11.523  0.1209  2.4546  2.7282
  910TIP3   OH226924   3.410   3.924  12.416  0.7569 -0.2951  0.0254
  910TIP3    H126925   3.392   3.911  12.509 -0.3604  0.3858 -0.0837
  910TIP3    H226926   3.504   3.906  12.407  1.2093  1.0507  1.5484
  911TIP3   OH226927   4.514   6.867  11.612  0.2917  0.4104 -0.4840
  911TIP3    H126928   4.502   6.930  11.683  1.9654 -0.7083  0.8544
  911TIP3    H226929   4.447   6.801  11.626  0.2974  0.4545 -0.2483
  912TIP3   OH226930   1.559   2.466  13.501  0.1548  0.6213 -0.2983
  912TIP3    H126931   1.629   2.511  13.549  1.1563 -1.9067  0.8194
  912TIP3    H226932   1.604   2.418  13.432 -0.1664 -2.0926  1.2296
  913TIP3   OH226933   0.329   6.409  10.818 -0.6744 -0.4903  0.0200
  913TIP3    H126934   0.351   6.353  10.743  0.4646 -0.2093  0.1309
  913TIP3    H226935   0.299   6.491  10.778 -0.9372 -0.6575 -0.1299
  914TIP3   OH226936   3.825   1.947  11.732 -0.2094 -0.3810  0.1627
  914TIP3    H126937   3.732   1.933  11.747 -0.0806  0.5927  2.3254
  914TIP3    H226938   3.867   1.869  11.768 -0.1090  0.2817  1.5813
  915TIP3   OH226939   1.621   0.552  13.500 -0.3260 -0.0776 -0.0358
  915TIP3    H126940   1.641   0.510  13.416 -0.6158  0.8194 -0.5663
  915TIP3    H226941   1.706   0.585  13.530 -0.4692  1.0184 -0.7815
  916TIP3   OH226942   2.635   0.063  12.489  0.2603 -0.0618  0.0929
  916TIP3    H126943   2.648  -0.012  12.432  3.3116 -0.5289  1.1971
  916TIP3    H226944   2.642   0.027  12.578  0.9920  1.3447  0.6548
  917TIP3   OH226945   7.179   6.239  13.052  0.5896  0.4750 -0.4587
  917TIP3    H126946   7.099   6.203  13.091  0.1265  0.4054 -1.4417
  917TIP3    H226947   7.248   6.178  13.078  0.8030  1.7028  2.3205
  918TIP3   OH226948   3.343   2.119  12.976 -0.0082 -0.5765 -0.1490
  918TIP3    H126949   3.269   2.165  13.017  0.1446 -1.4212  1.1280
  918TIP3    H226950   3.303   2.064  12.909 -0.1146  2.1531 -2.5515
  919TIP3   OH226951   6.534   4.342  11.462 -0.2008 -0.4717 -0.1298
  919TIP3    H126952   6.615   4.381  11.431 -0.3219 -0.2530 -0.1755
  919TIP3    H226953   6.501   4.292  11.387 -0.0861 -0.5932 -0.0971
  920TIP3   OH226954   2.439   6.406  12.355 -0.1207  0.4532  0.5835
  920TIP3    H126955   2.407   6.333  12.302 -0.0367  1.7034 -1.2717
  920TIP3    H226956   2.360   6.446  12.392 -0.5018  1.4222 -1.1582
  921TIP3   OH226957   6.471   5.060  12.905 -0.3240  0.2730  0.5848
  921TIP3    H126958   6.436   5.131  12.851 -0.7721  0.5126  1.1794
  921TIP3    H226959   6.491   5.100  12.989 -1.2997 -0.4348  1.1870
  922TIP3   OH226960   7.627   1.783  10.601  0.2423  0.0895 -0.5087
  922TIP3    H126961   7.707   1.806  10.554  0.3445 -1.0917 -0.9267
  922TIP3    H226962   7.629   1.839  10.680  1.8167 -0.4027 -0.1668
  923TIP3   OH226963   0.914   6.392  12.288 -0.2265 -0.6367 -0.3515
  923TIP3    H126964   0.931   6.368  12.197 -1.0663  1.5232 -1.1371
  923TIP3    H226965   0.821   6.414  12.289 -0.1969 -0.5114  1.0205
  924TIP3   OH226966   0.046   4.422  12.443 -0.1435 -0.0305  0.0683
  924TIP3    H126967   0.077   4.511  12.426  1.6471 -0.6855 -0.3208
  924TIP3    H226968  -0.023   4.408  12.378 -0.1725  0.9411 -0.1198
  925TIP3   OH226969   2.046   5.958  12.336 -0.2920  0.2130 -0.1326
  925TIP3    H126970   2.044   5.946  12.431  1.1732  0.8343  0.0042
  925TIP3    H226971   2.022   5.873  12.300  0.8227 -0.5334  0.8072
  926TIP3   OH226972   2.518   5.289  11.231  0.1119  0.2080 -0.1547
  926TIP3    H126973   2.509   5.380  11.257  0.7780  0.0202  0.7568
  926TIP3    H226974   2.500   5.290  11.137  0.1320  1.2756 -0.1624
  927TIP3   OH226975   2.447   6.995  13.188  0.3975 -0.6643 -0.4002
  927TIP3    H126976   2.369   7.017  13.136  0.2762 -1.0474 -0.3871
  927TIP3    H226977   2.412   6.970  13.274  0.5053 -1.1509 -0.4929
  928TIP3   OH226978   6.849   3.146  13.030  0.1214  0.2125 -0.1326
  928TIP3    H126979   6.844   3.151  13.125  0.2909 -0.4170 -0.0831
  928TIP3    H226980   6.784   3.209  12.999 -1.0216 -0.6452  0.4229
  929TIP3   OH226981   6.581   4.386  12.845  0.2059  0.8944 -0.0203
  929TIP3    H126982   6.573   4.360  12.753 -1.2514 -1.0645  0.5986
  929TIP3    H226983   6.501   4.353  12.886  0.6922  1.9839  1.9080
  930TIP3   OH226984   5.747   0.094  11.750 -0.3711 -0.0816  0.1941
  930TIP3    H126985   5.762   0.170  11.694 -1.6222 -1.3317 -1.9734
  930TIP3    H226986   5.686   0.125  11.818  0.4770  1.2355  0.3954
  931TIP3   OH226987   5.848   4.423  12.791  0.0242 -0.5806 -0.1987
  931TIP3    H126988   5.911   4.368  12.745 -0.9918 -0.6814 -1.5287
  931TIP3    H226989   5.881   4.427  12.881  2.2716 -0.1114 -0.9654
  932TIP3   OH226990   3.948   5.618  13.638 -0.8842  0.3548  0.3024
  932TIP3    H126991   4.017   5.553  13.626 -1.0241  0.6503 -3.1178
  932TIP3    H226992   3.991   5.692  13.681  0.6337  0.0200 -0.5814
  933TIP3   OH226993   0.879   5.699  12.166 -0.3255  0.8636 -0.1862
  933TIP3    H126994   0.931   5.734  12.239  1.2242  0.9785 -1.2931
  933TIP3    H226995   0.818   5.770  12.145 -0.3643  1.0728  0.5700
  934TIP3   OH226996   0.333   4.612  12.218 -0.6415 -0.4674  0.0540
  934TIP3    H126997   0.298   4.617  12.129 -0.0883  3.3937 -0.1120
  934TIP3    H226998   0.391   4.688  12.225 -1.2194 -0.2216  3.9442
  935TIP3   OH226999   6.601   6.919  13.333  0.7462  0.4398 -0.0192
  935TIP3    H127000   6.694   6.921  13.314  0.4937 -1.9457 -1.8048
  935TIP3    H227001   6.563   6.861  13.267 -1.8135  0.2646  1.4690
  936TIP3   OH227002   4.545   6.217  11.663 -0.1491 -0.3119  0.1650
  936TIP3    H127003   4.491   6.180  11.733 -0.7797 -0.2054 -0.2653
  936TIP3    H227004   4.556   6.309  11.688 -2.4230  0.3749 -1.0856
  937TIP3   OH227005   3.427   0.059  13.582 -0.0716 -0.2925 -0.0287
  937TIP3    H127006   3.421   0.011  13.665  0.8331 -0.9476 -0.3184
  937TIP3    H227007   3.421  -0.008  13.515  1.3874 -0.0424 -0.4424
  938TIP3   OH227008   6.184   5.547  12.730  0.9059 -0.5550 -0.4700
  938TIP3    H127009   6.134   5.468  12.751 -1.3325  0.3052 -2.0967
  938TIP3    H227010   6.274   5.517  12.721  0.3364 -2.6589  0.2842
  939TIP3   OH227011   2.388   4.870  13.236  0.5123  0.2745 -0.6070
  939TIP3    H127012   2.433   4.797  13.194  0.5602 -0.4952  0.7287
  939TIP3    H227013   2.398   4.943  13.174  0.5921 -0.7912 -1.8889
  940TIP3   OH227014   1.330   1.588  11.869  0.1696  0.2473 -0.2195
  940TIP3    H127015   1.395   1.641  11.915 -0.2317 -0.0352  0.7105
  940TIP3    H227016   1.313   1.514  11.928 -0.1831 -0.2672 -0.9400
  941TIP3   OH227017   0.177   0.458  13.895  0.0178 -0.0318  0.0139
  941TIP3    H127018   0.257   0.445  13.845 -0.3369  2.0237 -1.2318
  941TIP3    H227019   0.188   0.406  13.974  2.0065 -0.8158 -0.7372
  942TIP3   OH227020   2.746   6.414  12.987 -0.6985 -0.3821 -0.2360
  942TIP3    H127021   2.789   6.499  12.983 -1.8906  0.1844 -1.7960
  942TIP3    H227022   2.797   6.358  12.928  0.4070 -0.9477  1.1964
  943TIP3   OH227023   2.737   3.805  12.062  0.1997  0.0846 -0.0476
  943TIP3    H127024   2.690   3.884  12.035  1.9869  1.3728  0.4431
  943TIP3    H227025   2.673   3.756  12.113 -0.5811  1.8966  0.8106
  944TIP3   OH227026   3.860   5.797  11.971  0.1407 -0.1204 -0.1606
  944TIP3    H127027   3.895   5.728  12.027 -0.0599 -0.9050 -0.9766
  944TIP3    H227028   3.790   5.837  12.024 -1.2408 -1.9971 -0.4492
  945TIP3   OH227029   1.108   4.112  12.968 -0.0712 -0.7412 -0.1370
  945TIP3    H127030   1.176   4.071  12.915  1.3473  1.7041 -0.3493
  945TIP3    H227031   1.052   4.156  12.904  0.7337  0.9126  0.2590
  946TIP3   OH227032   0.672   5.909  12.110  0.0776  0.0172  0.0112
  946TIP3    H127033   0.707   5.998  12.114  1.6057 -0.5390 -0.4192
  946TIP3    H227034   0.604   5.907  12.177  0.0402  1.5005  0.0369
  947TIP3   OH227035   4.218   7.481  12.319 -0.6254  0.3083  0.5513
  947TIP3    H127036   4.265   7.398  12.306 -1.7010 -0.2311 -0.0939
  947TIP3    H227037   4.186   7.504  12.232 -3.0589 -0.3150  1.1950
  948TIP3   OH227038   2.930   6.410  12.588  0.1772  0.0699 -0.4315
  948TIP3    H127039   2.843   6.435  12.619  0.3650  0.2410 -0.0287
  948TIP3    H227040   2.981   6.491  12.595  0.1557  0.1854 -1.4662
  949TIP3   OH227041   5.625   4.273  11.754  0.1336 -0.4050 -0.4384
  949TIP3    H127042   5.643   4.245  11.664  1.1060 -1.1484 -0.0342
  949TIP3    H227043   5.649   4.365  11.755 -0.7707 -0.1440 -1.1670
  950TIP3   OH227044   5.159   3.318  11.979  0.3441 -0.3401 -0.3722
  950TIP3    H127045   5.233   3.273  12.019  0.1079  0.1206  0.6155
  950TIP3    H227046   5.118   3.252  11.923  0.9149 -0.8896 -0.1528
  951TIP3   OH227047   2.083   2.910  11.210 -0.3502  0.1325 -0.4796
  951TIP3    H127048   1.996   2.910  11.249 -1.1885  1.3362 -2.2325
  951TIP3    H227049   2.105   3.002  11.198  1.5441 -0.1054  0.6122
  952TIP3   OH227050   2.238   6.201  11.506  0.1864  0.1869  0.1962
  952TIP3    H127051   2.208   6.202  11.415 -0.5409 -1.5901  0.3709
  952TIP3    H227052   2.329   6.230  11.502 -0.2201  1.4122 -0.9101
  953TIP3   OH227053   7.119   6.123  11.834  0.4644  0.0088 -0.4171
  953TIP3    H127054   7.077   6.186  11.775 -0.5088  0.2354  0.4769
  953TIP3    H227055   7.046   6.073  11.870  1.2160 -1.5728 -1.0184
  954TIP3   OH227056   1.134   1.528  12.321  0.4492  0.2767 -0.1267
  954TIP3    H127057   1.105   1.502  12.408 -0.1717  1.1452 -0.0601
  954TIP3    H227058   1.112   1.453  12.265 -1.8147  0.7842 -0.0431
  955TIP3   OH227059   3.836   2.003  12.049 -0.0005 -0.5601  0.1100
  955TIP3    H127060   3.792   1.922  12.023  2.2814 -1.9168  0.1642
  955TIP3    H227061   3.925   1.994  12.015  0.5150  1.6725  0.6614
  956TIP3   OH227062   2.456   5.574  13.349  0.1101  0.2079  0.5250
  956TIP3    H127063   2.551   5.582  13.357  0.6223 -2.3480 -1.4358
  956TIP3    H227064   2.441   5.480  13.336 -2.7831  0.4268  1.4946
  957TIP3   OH227065   6.244   4.674  11.727  0.4699  0.3248 -0.4669
  957TIP3    H127066   6.303   4.748  11.713  1.5030 -0.6021 -1.2559
  957TIP3    H227067   6.260   4.617  11.651 -1.3673 -0.0220 -0.6375
  958TIP3   OH227068   0.964   2.397  13.217  0.5219  0.1635  0.6198
  958TIP3    H127069   1.059   2.405  13.232  0.4007 -0.0746  1.5839
  958TIP3    H227070   0.939   2.481  13.177  1.6212 -0.8475 -2.5378
  959TIP3   OH227071   0.925   0.492  11.386 -0.0709  0.0281 -0.0060
  959TIP3    H127072   0.860   0.494  11.316 -0.3521  0.7213  0.2688
  959TIP3    H227073   1.004   0.456  11.345 -0.3931 -0.0777 -0.5376
  960TIP3   OH227074   5.979   0.678  13.166  0.4812 -0.1798 -0.6450
  960TIP3    H127075   5.931   0.617  13.111 -0.1567  1.3096 -1.7819
  960TIP3    H227076   6.065   0.637  13.178 -0.5060 -2.1532  0.1643
  961TIP3   OH227077   2.404   0.227  12.507 -0.6714  0.2253  0.2541
  961TIP3    H127078   2.485   0.177  12.499  0.9399  2.7052 -0.0967
  961TIP3    H227079   2.383   0.254  12.418 -1.2554  0.5393  0.4807
  962TIP3   OH227080   2.463   3.635  13.550  0.3075  0.3376 -0.1235
  962TIP3    H127081   2.544   3.589  13.528  0.2632 -1.7250  3.3271
  962TIP3    H227082   2.399   3.565  13.562 -1.1456  1.7177  0.3894
  963TIP3   OH227083   4.226   4.028  12.621  0.2175 -0.4878  0.2940
  963TIP3    H127084   4.151   3.992  12.575 -0.2879  0.8554  0.0225
  963TIP3    H227085   4.301   4.006  12.566 -0.3665  1.0552 -1.2257
  964TIP3   OH227086   0.002   5.106  13.013 -0.1582  0.3150  0.6414
  964TIP3    H127087   0.089   5.095  13.050 -0.0686 -0.1438  0.3061
  964TIP3    H227088  -0.048   5.030  13.045 -0.1093 -0.0323 -0.0767
  965TIP3   OH227089   5.026   1.603  12.005 -0.1126 -0.6062  0.7425
  965TIP3    H127090   5.080   1.608  11.926  1.2129  0.4619  1.6838
  965TIP3    H227091   4.969   1.679  12.001 -0.6515 -1.0227  0.3981
  966TIP3   OH227092   6.967   5.628  13.684  0.3289  0.4297 -0.5723
  966TIP3    H127093   6.960   5.625  13.780 -0.0264 -2.7944 -0.5793
  966TIP3    H227094   7.036   5.565  13.663 -0.2638  0.3413 -2.4481
  967TIP3   OH227095   7.373   4.875  11.121 -0.0376  0.1479 -0.8684
  967TIP3    H127096   7.388   4.913  11.034 -0.5878  3.2852  0.2742
  967TIP3    H227097   7.289   4.910  11.148  1.1728  1.2471  1.8489
  968TIP3   OH227098   4.961   4.217  11.093 -0.2618  0.1380  0.4836
  968TIP3    H127099   5.053   4.212  11.068 -0.1925 -1.2993  0.9469
  968TIP3    H227100   4.916   4.243  11.013  0.5907  1.5672  0.4141
  969TIP3   OH227101   6.408   0.238  12.865 -0.2581 -0.4861  0.1588
  969TIP3    H127102   6.489   0.252  12.816 -0.7874 -0.0772 -0.6223
  969TIP3    H227103   6.428   0.266  12.954  1.4627 -3.5006  0.8462
  970TIP3   OH227104   7.620   7.072  11.833  0.0357 -0.0304  0.2358
  970TIP3    H127105   7.615   7.129  11.756  0.6833 -1.2325 -0.7261
  970TIP3    H227106   7.554   7.005  11.819 -0.6842  0.4137  1.3388
  971TIP3   OH227107   4.953   2.592  10.927  0.3978  0.1670  0.6342
  971TIP3    H127108   4.892   2.538  10.877 -0.9578  1.4418  0.8050
  971TIP3    H227109   4.994   2.532  10.989  0.4006 -0.9994 -0.4656
  972TIP3   OH227110   3.908   1.697  11.072  0.1712 -0.4802  0.2621
  972TIP3    H127111   3.884   1.788  11.055 -0.8387 -0.6992  0.4664
  972TIP3    H227112   3.900   1.687  11.167  2.2361 -0.2520  0.5044
  973TIP3   OH227113   7.582   2.691  12.553  0.7509 -0.1645 -0.1784
  973TIP3    H127114   7.566   2.734  12.637  0.2047 -0.5162 -0.0961
  973TIP3    H227115   7.658   2.736  12.517 -0.3695  1.5444 -0.5447
  974TIP3   OH227116   3.960   3.347  12.445  0.1195 -0.8028  0.1512
  974TIP3    H127117   4.032   3.297  12.483  1.2011  1.9204  1.9340
  974TIP3    H227118   3.929   3.403  12.516 -2.9720 -0.9620 -0.9283
  975TIP3   OH227119   3.811   1.231  11.848  0.5452 -0.5280  0.3163
  975TIP3    H127120   3.877   1.220  11.780  0.0956  0.5888 -0.3276
  975TIP3    H227121   3.738   1.176  11.820  0.4277 -0.2023 -0.0280
  976TIP3   OH227122   1.664   4.193  11.224 -0.3411  0.3417 -0.2707
  976TIP3    H127123   1.671   4.267  11.164  0.0877  0.2923 -0.2813
  976TIP3    H227124   1.753   4.161  11.234 -0.6569 -0.8618 -1.1223
  977TIP3   OH227125   6.525   1.517  12.262 -0.0207  0.1589 -0.3570
  977TIP3    H127126   6.446   1.466  12.274 -0.6264  1.3601  1.1197
  977TIP3    H227127   6.525   1.541  12.169 -1.1377 -0.2639 -0.4780
  978TIP3   OH227128   6.280   2.396  13.206  0.2048  0.3407  0.4972
  978TIP3    H127129   6.280   2.359  13.294 -1.3876 -0.9050  0.0187
  978TIP3    H227130   6.208   2.458  13.205 -1.9345 -1.9899 -0.7650
  979TIP3   OH227131   3.904   1.951  12.971  0.2396 -0.2401 -0.1071
  979TIP3    H127132   3.832   1.960  13.032  0.8484  0.8079  0.4892
  979TIP3    H227133   3.871   1.893  12.902 -1.3813  0.7284 -0.1849
  980TIP3   OH227134   7.195   2.754  11.659  0.0265 -0.2264 -0.5040
  980TIP3    H127135   7.135   2.826  11.639 -0.3233 -0.8872 -1.9630
  980TIP3    H227136   7.243   2.739  11.578  1.4290 -0.4305  0.3238
  981TIP3   OH227137   4.296   5.644  12.360 -0.5358  0.0229 -0.1418
  981TIP3    H127138   4.204   5.616  12.353 -0.3868 -1.1363  1.8208
  981TIP3    H227139   4.345   5.576  12.313 -0.5572 -0.3849  0.4137
  982TIP3   OH227140   6.594   1.471  12.978  0.5348  0.5919  0.0399
  982TIP3    H127141   6.637   1.456  13.062 -1.0019 -0.6435  0.6606
  982TIP3    H227142   6.574   1.565  12.978 -0.2069  0.4689  1.4728
  983TIP3   OH227143   5.484   5.900  11.167 -0.4497 -0.1682 -0.6056
  983TIP3    H127144   5.406   5.849  11.141 -1.1863  1.1466 -1.0419
  983TIP3    H227145   5.542   5.894  11.091  0.6844 -2.5786  0.3395
  984TIP3   OH227146   2.271   7.362  11.239 -0.2066 -0.2195 -0.2405
  984TIP3    H127147   2.356   7.383  11.277 -0.6139  1.7270 -0.3072
  984TIP3    H227148   2.288   7.349  11.146  0.0125  0.2477 -0.2675
  985TIP3   OH227149   1.802   6.690  13.341  0.1173 -0.3086 -0.5770
  985TIP3    H127150   1.777   6.767  13.291 -0.2629 -0.5311 -0.7413
  985TIP3    H227151   1.718   6.647  13.361  0.2297 -0.0491  0.5365
  986TIP3   OH227152   2.817   0.042  12.159 -0.0433  0.2231 -0.8776
  986TIP3    H127153   2.827   0.111  12.225 -1.4842  0.1620 -0.5562
  986TIP3    H227154   2.894  -0.014  12.170  0.9006  1.4877 -0.8145
  987TIP3   OH227155   4.638   7.635  13.333 -0.3443  0.0848 -0.4617
  987TIP3    H127156   4.690   7.715  13.339 -0.9671  0.5327 -0.9917
  987TIP3    H227157   4.698   7.571  13.295 -0.1651  0.5941 -1.0595
  988TIP3   OH227158   6.867   2.450  11.213  0.1976  0.1297  0.2343
  988TIP3    H127159   6.892   2.541  11.195  1.4397 -0.0732  0.8555
  988TIP3    H227160   6.917   2.398  11.150 -0.5480 -0.1275 -0.1534
  989TIP3   OH227161   1.897   6.181  12.186 -0.2864 -0.1491  0.1294
  989TIP3    H127162   1.942   6.201  12.104 -1.3136  0.3147 -0.3521
  989TIP3    H227163   1.962   6.138  12.241  0.5954  0.1139 -0.6974
  990TIP3   OH227164   0.668   7.586  11.596  0.6992 -0.5070 -0.1519
  990TIP3    H127165   0.643   7.560  11.685  0.7563  0.7861  0.2763
  990TIP3    H227166   0.661   7.682  11.597 -1.9656 -0.5350 -2.3408
  991TIP3   OH227167   0.212   4.026  12.793 -0.0481 -0.1249 -0.3401
  991TIP3    H127168   0.218   4.003  12.700 -1.2777 -0.8169 -0.2710
  991TIP3    H227169   0.124   4.063  12.803 -0.3239 -1.0240  0.7398
  992TIP3   OH227170   1.832   3.562  13.203 -0.5167  0.8545 -0.5760
  992TIP3    H127171   1.781   3.544  13.124  2.3043 -0.7733 -2.1537
  992TIP3    H227172   1.888   3.636  13.179  1.4971 -0.6649 -0.7173
  993TIP3   OH227173   7.358   1.251  12.826 -0.4639 -0.1476  0.5408
  993TIP3    H127174   7.280   1.236  12.772  0.0189 -0.9760  0.0393
  993TIP3    H227175   7.377   1.344  12.816 -0.0184 -0.3941 -1.2812
  994TIP3   OH227176   5.058   4.768  11.640 -0.2128 -0.2222  0.2014
  994TIP3    H127177   5.069   4.692  11.697 -1.7122 -0.6913 -0.1139
  994TIP3    H227178   5.068   4.734  11.552  0.0279  0.1315  0.0886
  995TIP3   OH227179   2.283   5.238  12.336 -0.6554 -0.3214 -0.7884
  995TIP3    H127180   2.363   5.200  12.300 -0.2122 -1.6655  1.4315
  995TIP3    H227181   2.313   5.309  12.393 -0.9363 -1.2442  0.5616
  996TIP3   OH227182   2.270   6.028  12.157  0.2821 -0.3046  0.0658
  996TIP3    H127183   2.209   6.018  12.230 -0.0211  0.5151 -0.0583
  996TIP3    H227184   2.347   5.977  12.183 -0.5957 -1.6930  0.0437
  997TIP3   OH227185   3.404   3.135  11.553  0.2190 -0.1906 -0.2056
  997TIP3    H127186   3.450   3.197  11.610  0.9564 -0.5674 -0.3789
  997TIP3    H227187   3.347   3.189  11.499 -1.2370  0.1230  1.5192
  998TIP3   OH227188   6.850   4.773  11.743  0.6628 -0.3347  0.2916
  998TIP3    H127189   6.890   4.730  11.818  2.3314  0.7503  0.0716
  998TIP3    H227190   6.910   4.845  11.721 -0.9397  0.7746 -0.6649
  999TIP3   OH227191   3.450   1.575  12.279  0.2149  0.5147  0.1317
  999TIP3    H127192   3.535   1.604  12.245 -0.1997  0.4523 -0.9892
  999TIP3    H227193   3.392   1.649  12.260 -0.2032  0.1382 -0.0432
 1000TIP3   OH227194   0.904   2.204  12.709 -0.2081 -0.1964  0.1730
 1000TIP3    H127195   0.817   2.211  12.670 -1.1481 -4.1027  1.1195
 1000TIP3    H227196   0.905   2.271  12.778 -2.1669  0.4184 -0.3277
 1001TIP3   OH227197   4.870   6.498  13.555  0.0856  0.1952  0.1354
 1001TIP3    H127198   4.794   6.555  13.569  0.6728  0.9815  0.2151
 1001TIP3    H227199   4.838   6.410  13.575 -0.9635  0.4282 -0.3946
 1002TIP3   OH227200   0.914   0.093  11.780 -0.3441  0.3519  0.5239
 1002TIP3    H127201   0.930   0.168  11.838  0.0879  0.5985  0.1001
 1002TIP3    H227202   0.840   0.121  11.725  0.1569  0.6935  0.0058
 1003TIP3   OH227203   6.440   6.394  12.291  0.0586  0.0460  0.1749
 1003TIP3    H127204   6.510   6.447  12.330  0.8205 -0.7577 -0.0726
 1003TIP3    H227205   6.481   6.310  12.272 -1.1173 -0.6239  0.5090
 1004TIP3   OH227206   6.659   7.509  11.924 -0.0040 -0.5460  0.0661
 1004TIP3    H127207   6.634   7.479  11.836 -1.0110 -2.0482  0.8282
 1004TIP3    H227208   6.657   7.605  11.918 -1.4779 -0.6066 -1.1816
 1005TIP3   OH227209   4.004   0.731  13.054  0.1693 -0.3192  0.8102
 1005TIP3    H127210   4.045   0.799  13.108  2.4462 -0.8929 -0.0844
 1005TIP3    H227211   3.914   0.729  13.084  0.6661  1.2835  2.6721
 1006TIP3   OH227212   7.242   0.196  12.673  0.2895  0.0827  0.1832
 1006TIP3    H127213   7.310   0.155  12.727 -0.8888 -1.8958  0.2996
 1006TIP3    H227214   7.171   0.215  12.735 -0.4482 -0.7558 -0.3622
 1007TIP3   OH227215   2.978   6.153  12.118 -0.6288  0.0686 -0.0550
 1007TIP3    H127216   3.007   6.220  12.057  0.8623 -0.5647 -0.0818
 1007TIP3    H227217   2.959   6.200  12.200  0.6808  0.4966  0.0178
 1008TIP3   OH227218   1.802   4.367  10.870  0.1874 -0.3013 -0.1662
 1008TIP3    H127219   1.751   4.380  10.951 -1.2014 -0.3225 -1.0049
 1008TIP3    H227220   1.766   4.287  10.832  1.1997 -0.5837 -0.5556
 1009TIP3   OH227221   3.962   1.051  12.370 -0.3696 -0.2143  0.5025
 1009TIP3    H127222   4.019   0.979  12.397  0.5530  0.1587 -0.3568
 1009TIP3    H227223   3.956   1.042  12.275 -1.0551  0.2628  0.4939
 1010TIP3   OH227224   5.739   5.450  11.490  0.2260  0.4595 -0.6101
 1010TIP3    H127225   5.834   5.435  11.497  0.0874 -0.3436 -0.3868
 1010TIP3    H227226   5.729   5.543  11.509  0.7863  0.1565  1.4167
 1011TIP3   OH227227   7.441   5.500  13.490 -0.4672  0.2759 -0.0654
 1011TIP3    H127228   7.402   5.476  13.407 -0.9749  1.2500 -0.1304
 1011TIP3    H227229   7.436   5.596  13.492  0.1397  0.3063  0.7934
 1012TIP3   OH227230   3.309   5.696  11.897  0.0795  0.2292 -0.0224
 1012TIP3    H127231   3.355   5.711  11.980  1.0945  0.5766 -0.6352
 1012TIP3    H227232   3.217   5.684  11.923  0.7337 -2.3989  1.4181
 1013TIP3   OH227233   7.288   6.872  13.353 -0.1144  0.2651 -0.7055
 1013TIP3    H127234   7.346   6.812  13.399 -0.9459 -1.4480 -1.8045
 1013TIP3    H227235   7.299   6.956  13.399  0.9084 -0.7589  1.0112
 1014TIP3   OH227236   0.018   0.295  12.771  0.2822 -0.2203 -0.1283
 1014TIP3    H127237  -0.037   0.369  12.796  0.1392 -0.3298 -0.1164
 1014TIP3    H227238   0.104   0.333  12.755  0.3920 -0.1507  0.5874
 1015TIP3   OH227239   4.712   7.392  11.879 -0.0502 -0.2594 -0.0177
 1015TIP3    H127240   4.617   7.388  11.869  0.1593 -0.1903 -2.6423
 1015TIP3    H227241   4.728   7.470  11.932 -1.4780 -1.1490  1.8374
 1016TIP3   OH227242   5.893   5.659  10.796 -0.7814  0.0341  0.0396
 1016TIP3    H127243   5.817   5.601  10.789 -0.3918 -0.4880  0.0763
 1016TIP3    H227244   5.862   5.743  10.763 -1.6020  0.0453  0.8140
 1017TIP3   OH227245   2.423   3.371  11.241 -0.2643 -0.1686 -0.3328
 1017TIP3    H127246   2.477   3.342  11.314  0.0543 -0.1759 -0.5704
 1017TIP3    H227247   2.484   3.411  11.179 -0.4883 -0.4499 -0.7403
 1018TIP3   OH227248   4.571   5.717  13.107 -0.0007 -0.2833  0.4070
 1018TIP3    H127249   4.531   5.631  13.090 -0.4120  0.3638 -2.3633
 1018TIP3    H227250   4.563   5.729  13.202 -0.4971 -3.0123  0.7916
 1019TIP3   OH227251   2.001   3.800  11.894 -0.2883  0.0470 -0.4107
 1019TIP3    H127252   1.959   3.867  11.947  0.7576  0.5291 -0.1698
 1019TIP3    H227253   1.958   3.807  11.809  0.4684  1.7236 -0.6999
 1020TIP3   OH227254   7.228   4.038  11.975  0.1031 -0.0908 -0.0190
 1020TIP3    H127255   7.135   4.056  11.958  0.2404  0.9278  0.2473
 1020TIP3    H227256   7.274   4.085  11.906  0.4833  0.5607  0.6730
 1021TIP3   OH227257   1.476   1.753  11.423  0.0157 -0.4613  0.0632
 1021TIP3    H127258   1.537   1.705  11.367  0.0906 -0.8957  0.5178
 1021TIP3    H227259   1.436   1.687  11.479 -0.3644 -0.0841  0.2443
 1022TIP3   OH227260   3.730   1.539  12.502  0.0845 -0.0949 -0.4750
 1022TIP3    H127261   3.699   1.536  12.592 -0.0762  1.0934 -0.4711
 1022TIP3    H227262   3.761   1.450  12.483  0.3028 -0.3003  0.8055
 1023TIP3   OH227263   2.691   6.147  13.078 -0.5902 -0.2157  0.3000
 1023TIP3    H127264   2.713   6.231  13.118 -2.9123 -0.2092  1.7734
 1023TIP3    H227265   2.595   6.148  13.072 -0.6860 -2.7301  0.3218
 1024TIP3   OH227266   6.416   0.421  12.530  0.0484 -0.0619  0.2836
 1024TIP3    H127267   6.353   0.350  12.536  0.4120 -0.3320  1.1735
 1024TIP3    H227268   6.490   0.392  12.584  0.0560  1.1308  0.9669
 1025TIP3   OH227269   2.077   6.824  11.285  0.4255  0.1841  0.5569
 1025TIP3    H127270   2.149   6.804  11.344 -0.3451 -1.9707  0.8439
 1025TIP3    H227271   2.111   6.803  11.198  0.2540 -0.5733  0.6652
 1026TIP3   OH227272   4.158   0.971  13.138 -0.9733 -0.2926  0.3483
 1026TIP3    H127273   4.112   0.999  13.217 -0.4161  2.3378 -0.1736
 1026TIP3    H227274   4.246   1.006  13.149  0.0737 -2.5598 -0.1031
 1027TIP3   OH227275   0.887   4.497  12.140  0.2527  0.0665  0.0211
 1027TIP3    H127276   0.979   4.484  12.163  0.5751  0.6686 -0.8668
 1027TIP3    H227277   0.838   4.448  12.207  1.1442  1.2757  1.6208
 1028TIP3   OH227278   0.095   0.389  11.942  0.2205  1.4110  0.1047
 1028TIP3    H127279   0.046   0.343  12.010  1.6722  0.9096  0.8646
 1028TIP3    H227280   0.177   0.340  11.934  1.4021  3.2487  0.2291
 1029TIP3   OH227281   5.122   6.760  11.428 -0.2481 -0.0711 -0.2378
 1029TIP3    H127282   5.065   6.813  11.372  1.4487  0.4457 -1.5948
 1029TIP3    H227283   5.089   6.671  11.419 -1.8216  0.4135  0.3500
 1030TIP3   OH227284   0.069   5.803  12.772 -0.2698  0.3184 -0.5761
 1030TIP3    H127285   0.156   5.788  12.736 -0.4852 -0.6914 -0.7126
 1030TIP3    H227286   0.014   5.819  12.695 -0.5274 -0.7854 -0.6373
 1031TIP3   OH227287   1.011   1.499  13.017  0.4043 -0.2852 -0.9594
 1031TIP3    H127288   0.934   1.443  13.016 -0.0307  0.3096 -1.9014
 1031TIP3    H227289   0.986   1.576  12.968  1.7223 -0.2454 -1.6257
 1032TIP3   OH227290   1.686   6.328  12.904  0.3870  0.4848 -0.7328
 1032TIP3    H127291   1.775   6.294  12.910  0.2708  0.4454  2.1290
 1032TIP3    H227292   1.647   6.280  12.831  1.9061 -1.4490 -0.3545
 1033TIP3   OH227293   5.523   7.386  12.418 -0.8945  0.5546  0.6074
 1033TIP3    H127294   5.480   7.303  12.395  0.4064 -0.8554  2.8585
 1033TIP3    H227295   5.531   7.432  12.335 -1.1145 -1.8539 -0.8577
 1034TIP3   OH227296   6.949   0.462  12.696 -0.5672 -0.0651  0.1616
 1034TIP3    H127297   6.919   0.530  12.635  1.4898 -0.7329 -1.7259
 1034TIP3    H227298   7.005   0.509  12.759 -1.4309  0.3917  0.5981
 1035TIP3   OH227299   2.316   7.457  13.401 -0.0484 -0.9449  0.3293
 1035TIP3    H127300   2.309   7.540  13.354 -0.0170 -0.3024  1.4069
 1035TIP3    H227301   2.300   7.481  13.493 -0.7425 -2.2436  0.5745
 1036TIP3   OH227302   3.881   4.971  13.173  0.1599  0.5541 -0.3399
 1036TIP3    H127303   3.876   5.000  13.264  0.7731  0.8841 -0.4037
 1036TIP3    H227304   3.869   5.051  13.121  2.2192  0.8101 -0.5133
 1037TIP3   OH227305   7.412   0.984  13.363 -0.1088  0.0514 -0.3693
 1037TIP3    H127306   7.361   1.065  13.374  1.6552  1.1099  0.5421
 1037TIP3    H227307   7.450   0.992  13.276 -2.7028 -1.5471 -1.7831
 1038TIP3   OH227308   2.395   6.822  12.600  0.0989  0.2994  0.2332
 1038TIP3    H127309   2.398   6.917  12.603  1.1666  0.2675  2.2579
 1038TIP3    H227310   2.486   6.794  12.597 -0.1230 -0.6415  1.3107
 1039TIP3   OH227311   1.538   0.268  12.911  0.4574 -0.0970 -0.1177
 1039TIP3    H127312   1.508   0.340  12.965  1.1400 -0.2965  0.5468
 1039TIP3    H227313   1.480   0.195  12.933  3.0562 -1.3889  3.4052
 1040TIP3   OH227314   3.654   1.980  12.529 -0.3235  0.1982 -0.4068
 1040TIP3    H127315   3.684   1.986  12.439 -0.2553 -1.3697 -0.5222
 1040TIP3    H227316   3.583   1.915  12.527  0.7668 -1.0996  0.8980
 1041TIP3   OH227317   5.465   2.251  13.543  0.1285  0.2295  0.1677
 1041TIP3    H127318   5.462   2.168  13.496 -0.7256  0.2424  0.1736
 1041TIP3    H227319   5.558   2.272  13.550  0.3063 -0.1533 -0.8470
 1042TIP3   OH227320   2.974   2.880  10.882  0.1876 -0.3116 -0.5506
 1042TIP3    H127321   3.053   2.888  10.828  0.2046  0.4248 -0.4355
 1042TIP3    H227322   2.934   2.798  10.855  0.0400  0.1809 -1.9090
 1043TIP3   OH227323   3.222   0.688  13.488  0.4527 -0.7818 -0.5663
 1043TIP3    H127324   3.286   0.621  13.511  1.2894 -0.3211 -1.4726
 1043TIP3    H227325   3.138   0.644  13.492  0.9952 -1.9170 -1.2446
 1044TIP3   OH227326   2.337   6.448  13.663  0.2747  0.1897 -1.0687
 1044TIP3    H127327   2.303   6.420  13.577 -0.7214 -1.7753 -0.1023
 1044TIP3    H227328   2.411   6.390  13.680 -0.8790 -0.9398  0.3234
 1045TIP3   OH227329   4.360   5.054  12.124  0.2463 -0.0153 -0.3562
 1045TIP3    H127330   4.426   5.116  12.091  0.0143  0.1223 -0.5652
 1045TIP3    H227331   4.366   4.979  12.064 -1.9997  1.3080 -2.4094
 1046TIP3   OH227332   6.526   1.254  11.887  0.5895 -0.2522 -0.3184
 1046TIP3    H127333   6.601   1.214  11.844  1.4686  2.6218 -1.7034
 1046TIP3    H227334   6.487   1.311  11.821  0.8609  2.9430  2.0154
 1047TIP3   OH227335   4.458   4.965  12.364 -0.4718  0.1887 -1.1700
 1047TIP3    H127336   4.527   5.031  12.367  0.5074 -0.8159 -1.0607
 1047TIP3    H227337   4.433   4.961  12.271 -1.3778  1.5339 -1.0076
 1048TIP3   OH227338   6.220   3.039  13.280 -0.2515  0.0577 -0.3655
 1048TIP3    H127339   6.255   3.090  13.207 -0.6180 -1.8895 -2.0032
 1048TIP3    H227340   6.135   3.007  13.249 -0.2831 -1.0603  0.7852
 1049TIP3   OH227341   3.469   0.918  12.288 -0.0587 -0.4193  0.2022
 1049TIP3    H127342   3.394   0.933  12.345 -0.2900 -0.9602  0.0431
 1049TIP3    H227343   3.521   0.852  12.334  1.0495  0.9453  0.9907
 1050TIP3   OH227344   6.947   2.331  12.642  0.2163 -0.2580 -0.2351
 1050TIP3    H127345   6.930   2.339  12.549 -0.3026 -1.5140 -0.2592
 1050TIP3    H227346   7.008   2.403  12.661 -0.2692  0.4850 -1.3682
 1051TIP3   OH227347   5.283   2.380  12.747 -0.1362 -0.3840 -0.1812
 1051TIP3    H127348   5.249   2.290  12.742 -0.4236 -0.3346  0.6872
 1051TIP3    H227349   5.300   2.394  12.841 -2.2048  1.2169  0.0194
 1052TIP3   OH227350   6.575   5.148  11.321 -0.7659 -0.8240 -0.8191
 1052TIP3    H127351   6.564   5.212  11.392  1.3110  0.5803 -1.6608
 1052TIP3    H227352   6.493   5.099  11.320 -2.1236  1.2466  0.4717
 1053TIP3   OH227353   3.693   6.779  12.605  0.6607 -0.4776 -0.4395
 1053TIP3    H127354   3.677   6.688  12.578 -0.8250 -0.3430 -0.1320
 1053TIP3    H227355   3.643   6.789  12.686  1.5450  0.3665  0.0197
 1054TIP3   OH227356   0.526   1.803  13.070 -0.8029  0.1417 -1.0328
 1054TIP3    H127357   0.436   1.782  13.093 -0.2314  0.0153  1.3690
 1054TIP3    H227358   0.552   1.736  13.008 -2.3265  0.1596 -1.7277
 1055TIP3   OH227359   5.268   1.438  12.052  0.3544 -0.5440 -0.1227
 1055TIP3    H127360   5.254   1.354  12.009  0.1392 -0.7388  0.3140
 1055TIP3    H227361   5.183   1.482  12.046  0.7026  0.0084 -1.1138
 1056TIP3   OH227362   4.914   3.445  11.907 -0.7874 -0.6634  0.4532
 1056TIP3    H127363   4.929   3.536  11.931 -2.4417 -0.2614  0.0893
 1056TIP3    H227364   4.977   3.396  11.961 -0.7303  0.5937  1.5955
 1057TIP3   OH227365   2.598   7.005  12.459 -0.0247 -0.1712 -0.1237
 1057TIP3    H127366   2.656   7.042  12.391  1.0937  0.0411  0.9078
 1057TIP3    H227367   2.526   7.068  12.465  0.9284  0.9300  0.3133
 1058TIP3   OH227368   5.981   2.200  13.246 -0.0861  0.3313 -0.0579
 1058TIP3    H127369   5.922   2.126  13.234  1.5003 -0.7689 -1.5800
 1058TIP3    H227370   5.974   2.251  13.165  0.8013  0.3495 -0.1365
 1059TIP3   OH227371   6.085   6.885  11.654  0.0458  0.3320  0.3433
 1059TIP3    H127372   6.117   6.869  11.565  0.8223  0.0112  0.6713
 1059TIP3    H227373   6.007   6.939  11.642 -0.5889 -0.7550 -0.6001
 1060TIP3   OH227374   5.304   6.742  11.873  0.5246  0.1310  0.0871
 1060TIP3    H127375   5.290   6.683  11.799  0.8025 -0.5159  0.5338
 1060TIP3    H227376   5.391   6.780  11.858 -0.3791  1.8320 -1.1270
 1061TIP3   OH227377   0.498   4.271  12.636 -0.3754  0.2895  0.4126
 1061TIP3    H127378   0.555   4.332  12.589 -0.5920 -0.6577 -1.1280
 1061TIP3    H227379   0.409   4.303  12.619 -0.4767 -0.3063 -0.2125
 1062TIP3   OH227380   1.674   7.193  12.472  1.0593 -0.6912  0.2044
 1062TIP3    H127381   1.667   7.283  12.503 -1.4919 -0.2262 -1.4041
 1062TIP3    H227382   1.744   7.195  12.406  0.1802  0.4458 -0.7375
 1063TIP3   OH227383   7.182   5.306  11.413  0.0882 -0.3392 -0.0353
 1063TIP3    H127384   7.106   5.320  11.468  1.4837  4.3706  1.1430
 1063TIP3    H227385   7.150   5.317  11.324 -0.8323  0.3437  0.3691
 1064TIP3   OH227386   3.597   0.321  11.926 -0.0872  0.2693 -0.3698
 1064TIP3    H127387   3.615   0.310  11.833 -0.7507 -1.3133 -0.3448
 1064TIP3    H227388   3.682   0.310  11.969 -0.2154 -2.2297 -0.5995
 1065TIP3   OH227389   3.741   6.320  11.816  0.2944 -0.2285 -0.2966
 1065TIP3    H127390   3.809   6.283  11.873 -0.4063  0.4701  1.0578
 1065TIP3    H227391   3.790   6.362  11.745  1.2255 -0.7397  0.0153
 1066TIP3   OH227392   0.182   4.075  11.584 -0.2137  0.6401 -0.0567
 1066TIP3    H127393   0.171   4.032  11.500  0.9751 -1.1828  0.6559
 1066TIP3    H227394   0.139   4.160  11.574 -1.1855 -0.0385 -2.0688
 1067TIP3   OH227395   1.217   6.871  11.929 -0.3582 -0.1502  0.3029
 1067TIP3    H127396   1.155   6.916  11.871  0.5310 -0.2453 -0.7625
 1067TIP3    H227397   1.166   6.849  12.007 -1.2574  1.1359  0.1006
 1068TIP3   OH227398   4.635   4.826  13.007 -0.0194  0.1104  0.0581
 1068TIP3    H127399   4.613   4.766  12.936 -1.3223  0.5097  0.1043
 1068TIP3    H227400   4.602   4.784  13.086 -2.4358  1.5263 -0.0763
 1069TIP3   OH227401   2.789   0.846  12.398  0.2037 -0.2290  0.0640
 1069TIP3    H127402   2.826   0.917  12.345 -1.1770  0.7860  0.4054
 1069TIP3    H227403   2.763   0.780  12.334  0.6578 -0.0324 -0.3362
 1070TIP3   OH227404   6.188   2.940  12.545 -0.0833  0.4035 -0.0018
 1070TIP3    H127405   6.158   2.930  12.636  0.2096  2.1306  0.3390
 1070TIP3    H227406   6.231   3.026  12.545  1.1376 -0.1678 -1.4608
 1071TIP3   OH227407   7.495   4.138  12.188  0.1308  0.0146 -0.2887
 1071TIP3    H127408   7.439   4.116  12.113 -0.6693  0.5703  0.1350
 1071TIP3    H227409   7.452   4.214  12.229  0.3288 -0.5281  0.9702
 1072TIP3   OH227410   0.153   3.590  12.277  0.0135  0.3265  0.2369
 1072TIP3    H127411   0.247   3.574  12.277 -0.0127  0.1604 -0.4436
 1072TIP3    H227412   0.134   3.621  12.366  0.7801  0.7733  0.2548
 1073TIP3   OH227413   5.318   4.149  10.844  0.1015 -0.0750 -0.1417
 1073TIP3    H127414   5.287   4.211  10.778  0.1104 -1.0796 -1.1103
 1073TIP3    H227415   5.392   4.194  10.886 -1.3434  1.5302  0.8356
 1074TIP3   OH227416   2.253   4.874  13.710 -0.0576 -0.2968 -0.6842
 1074TIP3    H127417   2.210   4.856  13.626  0.5977 -0.2841 -1.0381
 1074TIP3    H227418   2.278   4.787  13.742  0.5743 -0.2390 -0.9972
 1075TIP3   OH227419   3.037   4.496  11.219  0.3491  0.7732  0.1717
 1075TIP3    H127420   2.946   4.498  11.245 -0.0505  1.3112 -1.1594
 1075TIP3    H227421   3.057   4.587  11.193  1.0690  0.5387 -0.1358
 1076TIP3   OH227422   2.227   5.343  13.213  0.6576 -0.2687  0.1264
 1076TIP3    H127423   2.312   5.371  13.179  0.8660  0.8900  1.5372
 1076TIP3    H227424   2.247   5.290  13.289  0.1204 -0.1210  0.3756
 1077TIP3   OH227425   2.758   0.955  13.473 -0.3965  0.4438 -0.3022
 1077TIP3    H127426   2.669   0.979  13.498 -0.2429  1.0409 -0.3188
 1077TIP3    H227427   2.747   0.900  13.395 -0.7543  0.3910 -0.2174
 1078TIP3   OH227428   4.441   4.224  12.216 -0.5114 -0.5378 -0.0861
 1078TIP3    H127429   4.449   4.274  12.135 -1.5615 -0.2445 -0.0304
 1078TIP3    H227430   4.523   4.241  12.263  1.8879 -3.7209 -2.6399
 1079TIP3   OH227431   1.872   5.302  13.208  0.0172  0.6492 -0.0643
 1079TIP3    H127432   1.949   5.332  13.160  0.5299 -0.8046 -0.2221
 1079TIP3    H227433   1.891   5.210  13.227 -1.2952  0.5149  0.6919
 1080TIP3   OH227434   7.110   6.737  12.501  0.0249 -0.3145 -0.0738
 1080TIP3    H127435   7.083   6.723  12.410  0.7705  1.0976 -0.5505
 1080TIP3    H227436   7.202   6.714  12.502 -0.1150 -0.8649  0.4768
 1081TIP3   OH227437   6.567   5.341  11.520  0.0417  0.4481 -0.1200
 1081TIP3    H127438   6.580   5.316  11.611 -1.5173  2.0668  0.5953
 1081TIP3    H227439   6.640   5.399  11.500 -0.0918  0.7986  0.3949
 1082TIP3   OH227440   2.694   1.943  11.679 -0.0204  0.4355 -0.1186
 1082TIP3    H127441   2.754   1.902  11.742  1.1197  2.2873  0.0678
 1082TIP3    H227442   2.683   1.877  11.610  0.4275 -0.7952  0.9321
 1083TIP3   OH227443   2.451   0.195  13.051 -0.2080 -0.6102  0.0034
 1083TIP3    H127444   2.414   0.228  12.970 -0.8778 -0.1183  0.5016
 1083TIP3    H227445   2.390   0.222  13.119  0.9271 -0.0030  0.8271
 1084TIP3   OH227446   2.922   6.442  11.043 -0.5224 -0.5557  0.6816
 1084TIP3    H127447   2.988   6.454  10.975  0.0223 -2.6785  0.7895
 1084TIP3    H227448   2.955   6.491  11.118 -0.7784  1.2062 -0.3052
 1085TIP3   OH227449   5.093   0.163  12.062  0.0946  0.2415  0.0660
 1085TIP3    H127450   5.185   0.175  12.041  0.0804 -1.3314 -1.0922
 1085TIP3    H227451   5.045   0.199  11.988 -0.0750 -1.8163 -0.9043
 1086TIP3   OH227452   2.178   5.525  13.489 -0.5880  0.0121 -0.6490
 1086TIP3    H127453   2.250   5.550  13.431  0.3726 -1.2967 -0.0780
 1086TIP3    H227454   2.180   5.429  13.488 -1.2531 -0.0275  0.6990
 1087TIP3   OH227455   1.669   5.963  12.039 -0.0904 -0.0054  0.8038
 1087TIP3    H127456   1.673   6.018  11.961  3.5622 -0.0921  0.7533
 1087TIP3    H227457   1.677   6.024  12.112 -0.2910 -0.1789  0.9748
 1088TIP3   OH227458   7.610   0.589  12.441 -0.3272  0.2003  0.5090
 1088TIP3    H127459   7.695   0.556  12.413 -0.3602 -0.1187  0.7897
 1088TIP3    H227460   7.581   0.528  12.508 -0.4929  0.6663  0.8648
 1089TIP3   OH227461   0.205   6.539  13.200 -0.7787  0.0481  0.2560
 1089TIP3    H127462   0.241   6.458  13.237  2.2932  1.4479  0.6734
 1089TIP3    H227463   0.153   6.577  13.270  0.2099 -0.1605  1.1288
 1090TIP3   OH227464   6.679   4.331  13.255 -0.2178  0.2032  0.0700
 1090TIP3    H127465   6.712   4.389  13.324 -0.5660 -0.9237  1.2222
 1090TIP3    H227466   6.655   4.390  13.184 -0.6192  1.4875  1.2157
 1091TIP3   OH227467   5.681   6.532  11.908  0.3780 -0.3148 -0.1433
 1091TIP3    H127468   5.661   6.528  11.814  0.5288 -0.6052 -0.1641
 1091TIP3    H227469   5.776   6.535  11.913  0.3551  0.4657 -0.0211
 1092TIP3   OH227470   1.696   3.076  13.345 -0.4647 -0.5758  0.1689
 1092TIP3    H127471   1.704   3.054  13.252  3.5193 -4.2205  1.0254
 1092TIP3    H227472   1.639   3.007  13.381  0.7183 -1.2440  0.8375
 1093TIP3   OH227473   2.392   4.523  11.555 -0.1037 -0.2467 -0.1289
 1093TIP3    H127474   2.375   4.430  11.571  0.1700 -0.6901 -2.1015
 1093TIP3    H227475   2.463   4.523  11.490 -0.6336  1.3209 -0.7433
 1094TIP3   OH227476   0.436   3.183  11.639 -0.0552 -0.3379  0.0288
 1094TIP3    H127477   0.488   3.217  11.566 -1.1812 -0.5648 -0.9113
 1094TIP3    H227478   0.497   3.181  11.712  1.6751 -1.9662 -1.3551
 1095TIP3   OH227479   2.870   6.162  11.120 -0.3605 -0.0749  0.2910
 1095TIP3    H127480   2.911   6.085  11.158 -1.1636 -1.1123 -0.8711
 1095TIP3    H227481   2.943   6.221  11.101  0.4097 -1.0974 -0.0210
 1096TIP3   OH227482   2.881   7.410  12.885  0.4408 -0.4173  0.1828
 1096TIP3    H127483   2.842   7.460  12.957 -2.1984 -0.3611 -1.1512
 1096TIP3    H227484   2.917   7.476  12.826 -0.7601 -0.1693 -0.3183
 1097TIP3   OH227485   3.282   0.380  11.549 -0.1981 -0.4767  0.6089
 1097TIP3    H127486   3.361   0.400  11.599  0.6866 -0.1350 -0.8745
 1097TIP3    H227487   3.234   0.464  11.546 -0.1646 -0.4536  0.7222
 1098TIP3   OH227488   5.424   6.195  12.953 -0.6371 -0.0918  0.4730
 1098TIP3    H127489   5.339   6.150  12.958 -0.2494 -0.7129  2.2132
 1098TIP3    H227490   5.470   6.168  13.033  0.3750  1.9204  0.6224
 1099TIP3   OH227491   1.315   4.003  12.795 -0.2872 -0.3372 -0.5199
 1099TIP3    H127492   1.302   4.080  12.739  2.2543 -0.4947 -1.4748
 1099TIP3    H227493   1.257   3.937  12.759 -2.4512  1.0431  0.2539
 1100TIP3   OH227494   2.395   6.907  11.261 -0.1648 -0.2462  0.3576
 1100TIP3    H127495   2.488   6.900  11.241 -0.2773 -0.6797 -0.0583
 1100TIP3    H227496   2.354   6.839  11.206 -0.6956 -0.2166  0.7072
 1101TIP3   OH227497   1.774   1.354  12.691  0.1304  0.1352 -0.0606
 1101TIP3    H127498   1.814   1.426  12.738  1.2525 -0.3377 -0.2639
 1101TIP3    H227499   1.742   1.295  12.760 -0.4306  0.6192  0.1013
 1102TIP3   OH227500   6.434   6.435  10.771  0.2517 -0.4728 -0.4494
 1102TIP3    H127501   6.495   6.402  10.837  1.4568 -0.0264 -1.3181
 1102TIP3    H227502   6.381   6.359  10.747 -0.4578 -0.5699  1.2521
 1103TIP3   OH227503   5.301   6.286  11.668  0.3270  0.3865  0.0205
 1103TIP3    H127504   5.392   6.309  11.655  0.4985  0.3179  1.0580
 1103TIP3    H227505   5.253   6.368  11.657  0.2371  0.0538 -2.7943
 1104TIP3   OH227506   5.971   3.180  12.357 -0.0624  0.7854 -0.1941
 1104TIP3    H127507   6.011   3.259  12.321 -0.1573  0.0292 -2.0740
 1104TIP3    H227508   5.933   3.208  12.440  0.1543  2.6466 -0.6748
 1105TIP3   OH227509   0.327   2.200  12.960  0.2160  0.2575 -0.6045
 1105TIP3    H127510   0.260   2.133  12.951 -1.6959  2.1570 -1.6608
 1105TIP3    H227511   0.339   2.234  12.872  1.4638  0.9698 -0.1831
 1106TIP3   OH227512   6.391   7.460  13.607 -0.1605 -0.0014 -0.4365
 1106TIP3    H127513   6.318   7.499  13.558  0.7769 -0.2440 -2.0997
 1106TIP3    H227514   6.363   7.370  13.623 -0.6967  0.2295 -0.0246
 1107TIP3   OH227515   0.639   4.762  13.586  0.0720 -0.2387 -0.3031
 1107TIP3    H127516   0.586   4.841  13.576  0.3420  0.1136  0.8465
 1107TIP3    H227517   0.635   4.719  13.501  0.7359  1.5172 -1.2640
 1108TIP3   OH227518   2.420   1.788  12.211  0.4839  0.6204 -0.2373
 1108TIP3    H127519   2.390   1.712  12.161  1.7043 -0.5599  0.7377
 1108TIP3    H227520   2.496   1.820  12.163  1.3281 -0.1846  0.5056
 1109TIP3   OH227521   7.431   7.250  13.224 -0.4779 -0.2588 -0.3223
 1109TIP3    H127522   7.476   7.333  13.214 -0.6452 -0.1060  0.1737
 1109TIP3    H227523   7.493   7.194  13.271 -0.4692 -0.3330 -0.4200
 1110TIP3   OH227524   6.322   6.391  13.298 -0.0199  0.2981 -0.4747
 1110TIP3    H127525   6.291   6.482  13.302 -1.3428 -0.1107 -0.8518
 1110TIP3    H227526   6.253   6.345  13.250  0.7318 -0.8719 -0.4554
 1111TIP3   OH227527   3.592   7.281  12.419 -0.2267  0.7263  0.4345
 1111TIP3    H127528   3.650   7.321  12.483  0.5256  0.7512 -0.2400
 1111TIP3    H227529   3.613   7.325  12.337 -1.2210  0.7447  0.1790
 1112TIP3   OH227530   7.332   0.598  12.674 -0.2785  0.4449 -0.1437
 1112TIP3    H127531   7.337   0.683  12.630 -1.3111  1.0497  0.8534
 1112TIP3    H227532   7.255   0.604  12.730  0.9426 -0.2981  1.7051
 1113TIP3   OH227533   0.526   5.065  11.564  0.1360 -0.1497  0.5250
 1113TIP3    H127534   0.610   5.022  11.578 -0.2692 -1.6063 -1.1059
 1113TIP3    H227535   0.528   5.091  11.472 -1.8402 -1.8658 -0.0889
 1114TIP3   OH227536   6.591   6.791  11.790 -0.5758  0.0654  0.4974
 1114TIP3    H127537   6.563   6.715  11.842 -1.4061  0.0189 -0.0177
 1114TIP3    H227538   6.634   6.753  11.713 -1.7740  0.0879 -0.2032
 1115TIP3   OH227539   7.262   2.783  12.801 -0.9065 -0.2470  0.0679
 1115TIP3    H127540   7.217   2.867  12.802  0.1451  0.3444  1.4631
 1115TIP3    H227541   7.355   2.805  12.806 -0.6587 -1.4610  2.2855
 1116TIP3   OH227542   7.424   2.603  10.933  0.4710  0.1457  0.3496
 1116TIP3    H127543   7.393   2.619  10.844 -0.2062 -3.2103 -0.1563
 1116TIP3    H227544   7.515   2.633  10.933  0.6080 -0.1560 -1.6126
 1117TIP3   OH227545   0.390   6.028  12.864  0.2570  0.3549 -0.7103
 1117TIP3    H127546   0.380   6.107  12.917 -1.9312  0.0344 -0.5434
 1117TIP3    H227547   0.399   5.958  12.929 -0.9469  0.1345 -0.7590
 1118TIP3   OH227548   6.419   2.275  12.671  0.0008  0.2620 -0.2227
 1118TIP3    H127549   6.428   2.312  12.759  1.3787 -0.2127 -0.1387
 1118TIP3    H227550   6.399   2.350  12.615  0.2805  0.7458  0.3176
 1119TIP3   OH227551   7.169   6.730  13.149  0.4793 -0.2500 -0.3979
 1119TIP3    H127552   7.112   6.784  13.094  1.2001  0.0370 -0.8834
 1119TIP3    H227553   7.189   6.786  13.225  0.5877 -0.1309 -0.5144
 1120TIP3   OH227554   6.360   1.635  10.744  0.2646  0.0579  0.1608
 1120TIP3    H127555   6.340   1.728  10.753  1.8919  0.4381  0.2752
 1120TIP3    H227556   6.386   1.625  10.652  0.3738 -0.2178  0.2207
 1121TIP3   OH227557   4.678   5.751  11.115 -0.0310 -0.1576 -0.2346
 1121TIP3    H127558   4.753   5.803  11.083  0.7129 -2.0904 -1.8412
 1121TIP3    H227559   4.714   5.701  11.188 -0.6869  1.3365  1.1618
 1122TIP3   OH227560   5.148   4.229  12.026 -0.5229  0.3400 -0.1998
 1122TIP3    H127561   5.097   4.174  11.968 -1.4518  0.2248  0.6934
 1122TIP3    H227562   5.169   4.307  11.975 -0.1625 -0.3416 -1.1050
 1123TIP3   OH227563   4.737   2.993  12.970  0.0375  0.3449  0.4022
 1123TIP3    H127564   4.670   2.970  13.034  0.2300  0.2226  0.5612
 1123TIP3    H227565   4.758   3.085  12.988 -1.9082  1.2067 -1.2854
 1124TIP3   OH227566   5.038   0.340  12.728  0.2886 -0.3998 -0.6459
 1124TIP3    H127567   5.078   0.276  12.787  0.8785  0.8119  0.3404
 1124TIP3    H227568   5.096   0.342  12.652  0.6243 -0.5869 -0.4011
 1125TIP3   OH227569   1.213   2.550  11.811 -0.3659 -0.9948  0.3673
 1125TIP3    H127570   1.280   2.557  11.879 -2.1355  0.2358  2.1141
 1125TIP3    H227571   1.141   2.504  11.853 -1.6909  0.2027 -0.4895
 1126TIP3   OH227572   5.893   5.063  11.678  0.1736 -0.1617  0.2166
 1126TIP3    H127573   5.842   5.142  11.696 -0.5140 -0.3020 -1.0533
 1126TIP3    H227574   5.848   4.994  11.726 -0.1937 -0.0855 -0.0191
 1127TIP3   OH227575   5.943   0.516  12.919  0.1867 -0.2908  0.3224
 1127TIP3    H127576   5.891   0.593  12.897  0.1819 -0.2242  0.5673
 1127TIP3    H227577   6.024   0.527  12.868 -0.0099 -0.3616 -0.0069
 1128TIP3   OH227578   2.907   5.295  13.495 -0.2401 -0.3609  0.6296
 1128TIP3    H127579   2.987   5.297  13.547  0.3093 -0.9459 -0.1718
 1128TIP3    H227580   2.874   5.206  13.504  0.7109 -0.9511 -1.2403
 1129TIP3   OH227581   0.794   6.709  11.554  0.7761  0.3033  0.0726
 1129TIP3    H127582   0.822   6.748  11.471 -0.0515  2.0968  0.5771
 1129TIP3    H227583   0.838   6.761  11.621  0.1295 -0.0377  0.7765
 1130TIP3   OH227584   5.476   1.344  12.243  0.0750 -0.0067  0.3382
 1130TIP3    H127585   5.400   1.388  12.205 -0.1205  0.0397  0.7771
 1130TIP3    H227586   5.537   1.414  12.265  0.2746 -0.0492 -0.0779
 1131TIP3   OH227587   6.222   0.972  13.670  0.3740  0.5056  0.0643
 1131TIP3    H127588   6.222   1.068  13.670 -0.6390  0.5459 -1.7502
 1131TIP3    H227589   6.144   0.949  13.722 -2.4282  0.8583 -3.6047
 1132TIP3   OH227590   4.293   2.627  10.645 -0.2286 -0.3493 -0.2373
 1132TIP3    H127591   4.365   2.572  10.613  1.4223  1.7346 -0.3132
 1132TIP3    H227592   4.305   2.628  10.740 -0.6099 -0.5596 -0.1847
 1133TIP3   OH227593   3.682   3.827  12.185 -0.8124 -0.3970 -0.3015
 1133TIP3    H127594   3.645   3.915  12.188 -2.0923 -0.9248  0.3814
 1133TIP3    H227595   3.690   3.801  12.277  0.7113 -0.5511 -0.4443
 1134TIP3   OH227596   5.857   3.151  12.917  0.3075 -0.3727 -0.1751
 1134TIP3    H127597   5.864   3.228  12.974 -1.5752 -0.6334  0.4785
 1134TIP3    H227598   5.766   3.153  12.885  1.2348 -0.2714 -3.1625
 1135TIP3   OH227599   5.776   5.945  12.566  0.1729 -0.6001 -0.0168
 1135TIP3    H127600   5.831   5.955  12.643  1.8796  2.2556 -1.4565
 1135TIP3    H227601   5.787   5.853  12.541  0.5616 -1.2587  2.3835
 1136TIP3   OH227602   0.146   1.672  11.074 -0.4079  0.0454 -0.6780
 1136TIP3    H127603   0.168   1.645  10.985  1.5799  1.2335 -0.5896
 1136TIP3    H227604   0.120   1.764  11.066 -1.0575 -0.0821 -0.1292
 1137TIP3   OH227605   1.399   4.729  13.882  0.2013  0.4968 -0.5887
 1137TIP3    H127606   1.363   4.818  13.881  0.5963  0.6745  0.0681
 1137TIP3    H227607   1.493   4.742  13.864  0.1893  0.1757 -0.8873
 1138TIP3   OH227608   5.614   6.375  11.367 -0.3606 -0.1932  0.2711
 1138TIP3    H127609   5.638   6.449  11.311 -1.0641  0.5700  0.9623
 1138TIP3    H227610   5.540   6.334  11.321 -0.0545 -0.4066 -0.0434
 1139TIP3   OH227611   7.410   6.563  13.187 -0.1201 -0.0053 -0.4337
 1139TIP3    H127612   7.445   6.507  13.118 -0.9234 -0.3256 -0.5966
 1139TIP3    H227613   7.345   6.618  13.143  1.2476  1.6846 -0.4502
 1140TIP3   OH227614   6.673   1.063  11.255  0.0833  0.1370  0.8535
 1140TIP3    H127615   6.748   1.011  11.226  0.8569  0.9333  1.3847
 1140TIP3    H227616   6.661   1.129  11.186 -2.9151 -2.5235 -1.5240
 1141TIP3   OH227617   6.827   0.258  11.626  0.0512 -0.2073 -0.4851
 1141TIP3    H127618   6.753   0.282  11.681  0.1115 -0.3005 -0.3645
 1141TIP3    H227619   6.898   0.314  11.655  0.7244 -1.7684  1.0472
 1142TIP3   OH227620   0.127   0.515  13.067  0.2717 -0.4110  0.1845
 1142TIP3    H127621   0.114   0.420  13.061  0.8667 -0.4414 -0.7989
 1142TIP3    H227622   0.050   0.546  13.115  0.5392 -1.4950  1.3836
 1143TIP3   OH227623   5.083   3.910  12.081 -0.0058  0.2378  0.3400
 1143TIP3    H127624   5.148   3.862  12.029 -2.3017 -0.9955 -1.5988
 1143TIP3    H227625   5.031   3.958  12.016 -1.7683  0.2354  1.6697
 1144TIP3   OH227626   3.019   7.380  13.439  0.0901  0.2459  0.9656
 1144TIP3    H127627   2.947   7.371  13.502 -1.1172  2.0827 -0.0585
 1144TIP3    H227628   3.090   7.419  13.490  1.0777 -3.0719  2.4002
 1145TIP3   OH227629   5.190   2.117  12.729  0.3274  0.2485 -0.4034
 1145TIP3    H127630   5.133   2.070  12.791 -2.1474  3.1772 -0.2078
 1145TIP3    H227631   5.149   2.103  12.644 -0.1766  1.5627 -0.3999
 1146TIP3   OH227632   7.501   2.148  11.137  0.1977 -0.7200 -0.0101
 1146TIP3    H127633   7.408   2.128  11.128  0.6054 -1.8192 -3.4866
 1146TIP3    H227634   7.504   2.242  11.151 -1.4712 -0.2544 -2.1834
 1147TIP3   OH227635   6.326   0.729  11.221  0.4043 -0.4928 -0.3510
 1147TIP3    H127636   6.280   0.718  11.304 -0.2197  0.5101 -0.5496
 1147TIP3    H227637   6.264   0.698  11.155  0.7592 -0.9405 -0.4818
 1148TIP3   OH227638   0.706   4.811  11.326 -0.2705 -0.1513  0.0330
 1148TIP3    H127639   0.712   4.770  11.240 -0.9651 -0.7679  0.2711
 1148TIP3    H227640   0.796   4.839  11.345 -0.0343 -0.3874 -0.7040
 1149TIP3   OH227641   0.184   5.802  12.211  0.1409  0.2000 -0.5031
 1149TIP3    H127642   0.239   5.777  12.285  0.2290  0.4421 -0.4853
 1149TIP3    H227643   0.244   5.842  12.148 -0.2672  2.3979  0.3911
 1150TIP3   OH227644   4.233   1.556  12.830 -0.3551  0.0842 -0.0514
 1150TIP3    H127645   4.250   1.634  12.884 -0.2010  0.5196 -0.7147
 1150TIP3    H227646   4.166   1.585  12.767 -1.5388 -0.8105  0.7544
 1151TIP3   OH227647   4.856   1.862  12.086  0.2221  0.0574  0.0260
 1151TIP3    H127648   4.776   1.865  12.139  0.6073  2.7043  0.5733
 1151TIP3    H227649   4.828   1.887  11.998  0.3356  0.3871  0.0812
 1152TIP3   OH227650   0.136   3.854  12.023  0.2009 -0.4904  0.3498
 1152TIP3    H127651   0.208   3.854  11.960 -0.7642 -1.8833 -0.8551
 1152TIP3    H227652   0.107   3.945  12.027  1.4480 -0.0661  0.1840
 1153TIP3   OH227653   6.624   4.398  12.182  0.4016  0.4718  0.0426
 1153TIP3    H127654   6.699   4.391  12.241 -0.2682 -0.3184  0.8102
 1153TIP3    H227655   6.663   4.419  12.097  1.5895 -0.9865  0.1847
 1154TIP3   OH227656   6.701   2.400  12.382  0.0234 -0.3557 -0.1389
 1154TIP3    H127657   6.749   2.463  12.436  0.0900  1.0543 -1.7391
 1154TIP3    H227658   6.691   2.444  12.297 -1.1847 -1.9589 -0.8886
 1155TIP3   OH227659   7.020   2.189  13.205 -0.3880  0.4871  0.2822
 1155TIP3    H127660   7.051   2.221  13.290 -0.5961  0.8619  0.2163
 1155TIP3    H227661   6.926   2.174  13.217 -0.0527 -1.5667  0.7718
 1156TIP3   OH227662   4.524   0.854  12.301 -0.0233 -0.0489 -0.1711
 1156TIP3    H127663   4.578   0.931  12.283 -1.0736  0.8129  0.2670
 1156TIP3    H227664   4.552   0.790  12.236 -0.1737  1.2311 -1.5585
 1157TIP3   OH227665   5.513   5.358  12.325 -0.1567  0.4099  0.1693
 1157TIP3    H127666   5.444   5.327  12.266  0.2750  2.0917 -1.2778
 1157TIP3    H227667   5.550   5.277  12.361 -1.0750 -0.6359 -1.1061
 1158TIP3   OH227668   7.135   6.998  10.532 -0.5459  0.3399 -0.3090
 1158TIP3    H127669   7.045   6.965  10.529  0.3134 -2.1990 -0.7929
 1158TIP3    H227670   7.183   6.930  10.580  1.6359  0.2397 -2.4800
 1159TIP3   OH227671   5.476   5.321  12.851  0.1675  0.0481 -0.0434
 1159TIP3    H127672   5.546   5.377  12.886  0.6529  0.1066 -1.0841
 1159TIP3    H227673   5.521   5.243  12.820 -0.4131 -0.5705  0.6092
 1160TIP3   OH227674   7.571   6.832  13.156 -0.0507 -0.0833  0.1223
 1160TIP3    H127675   7.619   6.884  13.091 -0.1895  0.4525  0.4406
 1160TIP3    H227676   7.571   6.743  13.121  0.8341 -0.0136 -0.0791
 1161TIP3   OH227677   1.508   4.641  12.301  0.1948 -0.4870 -0.0124
 1161TIP3    H127678   1.576   4.578  12.323  0.3380  0.0256  1.0988
 1161TIP3    H227679   1.500   4.696  12.380  0.1910  0.9776 -0.9985
 1162TIP3   OH227680   5.162   7.032  12.744 -0.2587  0.1609 -0.0136
 1162TIP3    H127681   5.242   7.031  12.692 -1.4485 -0.9868 -1.9392
 1162TIP3    H227682   5.146   6.940  12.765 -0.1432  0.5475  1.9348
 1163TIP3   OH227683   1.494   5.225  12.671 -0.7274 -0.1178  0.2806
 1163TIP3    H127684   1.509   5.317  12.652  0.6329 -0.0830  1.3883
 1163TIP3    H227685   1.557   5.178  12.616 -0.6240 -0.3252  0.5747
 1164TIP3   OH227686   2.420   4.862  10.904  0.0701 -0.0463  1.0300
 1164TIP3    H127687   2.512   4.879  10.884 -0.0429  1.3262  1.5432
 1164TIP3    H227688   2.384   4.829  10.822  0.5775  1.3912  0.1852
 1165TIP3   OH227689   6.322   3.370  12.150  0.2336 -0.5844 -0.2252
 1165TIP3    H127690   6.229   3.353  12.139 -0.0667  1.4319 -1.1977
 1165TIP3    H227691   6.341   3.342  12.240 -1.7493  0.7716  0.6713
 1166TIP3   OH227692   2.680   3.355  12.448  0.4557 -0.2652 -0.0056
 1166TIP3    H127693   2.585   3.366  12.447  0.6745  1.9580 -0.0438
 1166TIP3    H227694   2.702   3.327  12.359 -0.2161 -1.6260  0.2345
 1167TIP3   OH227695   1.993   1.758  11.167 -0.2910  0.5142 -0.0727
 1167TIP3    H127696   2.003   1.802  11.082 -0.1133  0.2606 -0.1835
 1167TIP3    H227697   1.973   1.829  11.228 -0.7030  0.6660 -0.3776
 1168TIP3   OH227698   0.290   2.350  13.207 -0.3960 -0.2634  0.1128
 1168TIP3    H127699   0.325   2.270  13.167  0.5643  0.4909 -0.6136
 1168TIP3    H227700   0.241   2.392  13.136 -3.2668 -1.5101  1.2242
 1169TIP3   OH227701   6.877   7.551  12.515 -0.2690 -0.3717 -0.4674
 1169TIP3    H127702   6.849   7.476  12.567 -0.3719  1.0943  1.7299
 1169TIP3    H227703   6.904   7.514  12.431 -0.8772 -2.7635  0.3257
 1170TIP3   OH227704   1.614   1.389  12.984  0.3213  0.3107  0.6558
 1170TIP3    H127705   1.624   1.479  12.953 -0.3633  0.9157  2.1343
 1170TIP3    H227706   1.701   1.350  12.971  0.3738  0.8680 -0.8830
 1171TIP3   OH227707   3.978   1.519  10.872  0.0627  0.4774 -0.0622
 1171TIP3    H127708   3.955   1.452  10.937  1.2295  0.1404  0.0230
 1171TIP3    H227709   3.951   1.602  10.912  0.6958  0.2690  0.8383
 1172TIP3   OH227710   0.295   4.949  12.038 -0.1339 -0.0652 -0.7407
 1172TIP3    H127711   0.274   4.863  12.002 -0.1092 -0.0829 -0.7130
 1172TIP3    H227712   0.211   4.993  12.048 -0.1883 -0.2713 -0.2862
 1173TIP3   OH227713   4.482   0.701  12.510 -0.5151  0.7334  0.0075
 1173TIP3    H127714   4.548   0.633  12.498  0.9488  1.8460  1.4376
 1173TIP3    H227715   4.502   0.766  12.443  0.5318  1.5442  1.0594
 1174TIP3   OH227716   0.321   4.777  13.336 -0.4945 -0.1120  0.5907
 1174TIP3    H127717   0.270   4.711  13.382  0.1845 -1.9933 -1.2318
 1174TIP3    H227718   0.259   4.848  13.320 -2.5650 -2.1957 -1.3144
 1175TIP3   OH227719   5.418   6.169  13.289 -0.5025  0.5943 -0.0840
 1175TIP3    H127720   5.370   6.101  13.337 -1.2418  1.4838  0.4840
 1175TIP3    H227721   5.349   6.222  13.250  0.0366  1.5245  0.2056
 1176TIP3   OH227722   0.787   6.039  12.784 -0.5418 -0.1824 -0.3105
 1176TIP3    H127723   0.803   6.133  12.788 -0.7263 -0.0898 -1.4802
 1176TIP3    H227724   0.867   6.002  12.748 -0.4373 -0.4914  0.2289
 1177TIP3   OH227725   0.334   4.365  10.815 -0.0807 -0.1676 -0.8631
 1177TIP3    H127726   0.278   4.371  10.892  1.1299  2.6216 -0.0697
 1177TIP3    H227727   0.272   4.360  10.741 -1.3081 -0.1791  0.1291
 1178TIP3   OH227728   5.983   2.955  12.206  0.0888  0.4030 -0.0966
 1178TIP3    H127729   6.052   2.986  12.148 -0.9536  2.0516 -0.5185
 1178TIP3    H227730   5.970   3.026  12.268 -2.2814  0.8343 -1.0004
 1179TIP3   OH227731   0.968   3.562  11.593 -0.2081 -0.2115 -0.3767
 1179TIP3    H127732   0.877   3.565  11.620 -0.9254 -1.4730 -2.3864
 1179TIP3    H227733   1.014   3.622  11.652 -2.0340 -0.7890  1.7078
 1180TIP3   OH227734   6.621   5.768  11.370  0.1191  0.0335 -0.1609
 1180TIP3    H127735   6.702   5.752  11.418  0.1699 -0.1961 -0.3231
 1180TIP3    H227736   6.581   5.842  11.416  0.1061 -0.2633  0.3104
 1181TIP3   OH227737   1.132   3.354  13.619 -0.1508 -0.3666  0.0349
 1181TIP3    H127738   1.044   3.333  13.648  0.2918 -0.0478  1.7088
 1181TIP3    H227739   1.181   3.272  13.626 -0.4090 -0.6539 -1.3389
 1182TIP3   OH227740   1.827   6.503  13.693  0.3406  0.0425 -0.3759
 1182TIP3    H127741   1.905   6.498  13.748 -0.4046 -1.4901  0.6031
 1182TIP3    H227742   1.847   6.450  13.617  0.5367  0.2809 -0.4894
 1183TIP3   OH227743   4.020   4.692  12.392 -0.8373 -0.8738 -0.2866
 1183TIP3    H127744   4.081   4.733  12.453 -1.4707  3.3156 -2.0981
 1183TIP3    H227745   3.950   4.656  12.447 -0.9581  1.9465  1.6088
 1184TIP3   OH227746   5.851   7.403  12.254 -0.0598  0.1750  0.0611
 1184TIP3    H127747   5.764   7.440  12.249  0.2361  1.0202  0.8905
 1184TIP3    H227748   5.905   7.459  12.199  0.0079 -0.1983 -0.2542
 1185TIP3   OH227749   5.614   4.262  13.019  0.1725  0.2641  0.6594
 1185TIP3    H127750   5.611   4.255  13.114  0.2452 -1.1055  0.5755
 1185TIP3    H227751   5.547   4.201  12.988  0.3363  0.4910 -0.1729
 1186TIP3   OH227752   3.479   0.667  12.477 -0.0687 -0.0884 -0.1700
 1186TIP3    H127753   3.459   0.577  12.451 -0.2120 -0.5675  1.5241
 1186TIP3    H227754   3.574   0.673  12.473 -0.0857 -0.1350 -0.8033
 1187TIP3   OH227755   2.729   1.387  13.380 -0.1551  0.1918  0.0312
 1187TIP3    H127756   2.707   1.479  13.388  0.3932  0.4942 -1.4804
 1187TIP3    H227757   2.697   1.362  13.293 -0.4263 -1.0860  0.4682
 1188TIP3   OH227758   0.325   5.752  12.702  0.3589  0.1164 -0.3130
 1188TIP3    H127759   0.349   5.677  12.756 -0.3957  0.1445  0.0746
 1188TIP3    H227760   0.409   5.795  12.683  0.5870  0.5685  1.5171
 1189TIP3   OH227761   5.678   0.221  12.003 -0.3103 -0.4093  0.1676
 1189TIP3    H127762   5.648   0.311  12.018 -0.3670 -0.3311 -0.3815
 1189TIP3    H227763   5.598   0.170  11.995 -0.3114 -0.9843  3.0144
 1190TIP3   OH227764   1.352   7.398  11.579  0.2019 -0.3474 -0.2027
 1190TIP3    H127765   1.298   7.369  11.653 -1.7655  1.8723 -0.6576
 1190TIP3    H227766   1.401   7.472  11.613  1.6913 -1.2391 -0.3132
 1191TIP3   OH227767   0.637   6.741  11.956 -0.6045 -0.3233  0.1234
 1191TIP3    H127768   0.543   6.737  11.941 -0.8160  1.5512  0.7665
 1191TIP3    H227769   0.658   6.834  11.957  1.3474 -0.7032 -0.4501
 1192TIP3   OH227770   4.830   0.381  12.550  0.4132 -0.4172 -0.3264
 1192TIP3    H127771   4.848   0.470  12.518  0.6798 -0.7404 -1.0803
 1192TIP3    H227772   4.886   0.372  12.627  1.5365 -0.4665 -1.1310
 1193TIP3   OH227773   0.104   3.693  13.301  0.1048  0.1816  0.7656
 1193TIP3    H127774   0.046   3.621  13.328  0.2430 -0.0177  0.5393
 1193TIP3    H227775   0.109   3.750  13.377 -0.9933  0.5966  0.5310
 1194TIP3   OH227776   2.762   5.333  11.352  0.3097 -0.1252 -0.6043
 1194TIP3    H127777   2.763   5.344  11.257 -0.7597  1.4878 -0.4703
 1194TIP3    H227778   2.672   5.306  11.372  0.2275  0.6046  0.0309
 1195TIP3   OH227779   7.126   1.455  11.194  0.2478  0.4070 -0.0331
 1195TIP3    H127780   7.222   1.449  11.189  0.3433  1.1535  0.7100
 1195TIP3    H227781   7.106   1.540  11.155 -0.0191  0.7128  0.7549
 1196TIP3   OH227782   6.255   5.915  13.378 -0.0079  0.2145 -0.0625
 1196TIP3    H127783   6.313   5.978  13.334 -2.0693  2.1489 -0.2147
 1196TIP3    H227784   6.287   5.911  13.468  0.6416  0.9217 -0.2520
 1197TIP3   OH227785   4.530   5.340  12.459  0.0658 -0.5315 -0.2234
 1197TIP3    H127786   4.590   5.277  12.420  0.9731  1.0500 -1.4593
 1197TIP3    H227787   4.583   5.417  12.477 -1.3193  0.4554 -0.1907
 1198TIP3   OH227788   3.948   6.109  11.647  0.2874  0.7962  0.1570
 1198TIP3    H127789   3.942   6.198  11.611  2.8411  1.0136  0.0732
 1198TIP3    H227790   3.968   6.123  11.740 -1.0758  0.2758  0.5401
 1199TIP3   OH227791   3.270   6.430  12.559 -0.0707 -0.0196  0.2096
 1199TIP3    H127792   3.238   6.349  12.598  0.5828 -0.1768  0.4396
 1199TIP3    H227793   3.219   6.499  12.602  1.3434 -0.0998  2.1968
 1200TIP3   OH227794   5.432   4.165  12.070  0.2983  0.4125  0.0762
 1200TIP3    H127795   5.337   4.169  12.066  0.1749  1.2909  2.3099
 1200TIP3    H227796   5.451   4.073  12.089 -0.0845  0.2190 -0.4621
 1201TIP3   OH227797   1.327   6.219  12.584 -0.0741 -0.4166 -0.0850
 1201TIP3    H127798   1.246   6.214  12.633  0.7127 -2.5390  1.1189
 1201TIP3    H227799   1.301   6.254  12.498 -2.1772 -0.7402  0.3721
 1202TIP3   OH227800   3.162   1.605  11.221  0.1751  0.3959  0.4806
 1202TIP3    H127801   3.135   1.690  11.186  0.5449  0.6475  0.7841
 1202TIP3    H227802   3.257   1.603  11.207  0.2070  0.1542  0.7250
 1203TIP3   OH227803   1.338   5.895  12.046 -0.3504  0.2224  0.0831
 1203TIP3    H127804   1.293   5.824  12.092 -1.6954  1.1669  0.3159
 1203TIP3    H227805   1.424   5.899  12.087 -0.0731 -1.5385 -0.2424
 1204TIP3   OH227806   6.125   3.169  11.595  0.4930 -0.5211 -0.5196
 1204TIP3    H127807   6.044   3.119  11.591  1.1966 -1.8504  0.7853
 1204TIP3    H227808   6.157   3.171  11.504 -0.3937 -1.0077 -0.8502
 1205TIP3   OH227809   3.636   4.459  12.319 -0.1699  0.4912  0.2389
 1205TIP3    H127810   3.554   4.417  12.346 -0.4735  0.5269 -0.5767
 1205TIP3    H227811   3.694   4.386  12.295 -0.0477  0.4738  0.5873
 1206TIP3   OH227812   5.743   0.893  10.806  0.3295  0.1232 -0.3468
 1206TIP3    H127813   5.705   0.870  10.722 -0.3464  1.4240 -0.4287
 1206TIP3    H227814   5.738   0.989  10.809 -2.5682  0.0496  2.4549
 1207TIP3   OH227815   1.887   3.556  13.750 -0.2140  0.4173 -0.1830
 1207TIP3    H127816   1.914   3.469  13.720  0.3965 -0.4444  2.5987
 1207TIP3    H227817   1.806   3.574  13.701 -0.2453 -1.6060 -0.9733
 1208TIP3   OH227818   3.578   2.735  12.682  0.8503  0.5853  0.0482
 1208TIP3    H127819   3.573   2.641  12.699  0.1994  0.8077  1.1475
 1208TIP3    H227820   3.626   2.741  12.599  0.8993 -0.7086 -0.0444
 1209TIP3   OH227821   2.560   7.590  12.102  0.2616  0.4036 -0.8108
 1209TIP3    H127822   2.650   7.623  12.097 -0.1217  1.2706 -3.3343
 1209TIP3    H227823   2.546   7.574  12.195  3.2075 -0.3163 -0.3893
 1210TIP3   OH227824   6.257   0.527  12.893  0.1614  0.2337  0.2466
 1210TIP3    H127825   6.272   0.432  12.893  1.7651  0.4433 -0.8454
 1210TIP3    H227826   6.329   0.562  12.840 -2.7964  1.6597 -3.2752
 1211TIP3   OH227827   3.715   6.139  13.856 -0.0493  0.3518 -0.3996
 1211TIP3    H127828   3.693   6.163  13.947 -1.1685 -0.0971 -0.5460
 1211TIP3    H227829   3.672   6.206  13.803 -1.2659 -0.6321 -0.6968
 1212TIP3   OH227830   2.553   6.515  11.945  0.3269  0.1224  0.0167
 1212TIP3    H127831   2.540   6.568  12.024 -2.2288  0.4547 -0.5197
 1212TIP3    H227832   2.647   6.513  11.932  0.7302  1.0809  2.3838
 1213TIP3   OH227833   7.316   5.390  12.620  0.6284  0.1281  0.0988
 1213TIP3    H127834   7.343   5.307  12.582 -5.0665 -1.1352 -2.2068
 1213TIP3    H227835   7.326   5.454  12.549 -1.6314 -0.2911 -0.6740
 1214TIP3   OH227836   1.618   5.852  11.200 -0.1544  0.2767 -0.6214
 1214TIP3    H127837   1.691   5.792  11.184 -1.0619 -1.1377  0.3385
 1214TIP3    H227838   1.648   5.907  11.273 -0.1083 -0.4205 -0.1094
 1215TIP3   OH227839   2.553   7.457  11.875  0.1165  0.6434  0.1374
 1215TIP3    H127840   2.558   7.495  11.962  0.2210 -1.4070  1.0816
 1215TIP3    H227841   2.631   7.489  11.830  0.8074  0.6005  1.2848
 1216TIP3   OH227842   3.504   3.058  12.250 -0.9439 -0.6025  0.5658
 1216TIP3    H127843   3.517   3.135  12.306  0.5696 -2.0663  2.3451
 1216TIP3    H227844   3.581   3.057  12.193 -0.1935 -1.5866  1.5677
 1217TIP3   OH227845   1.895   1.914  13.455  0.5010 -0.5516  0.0776
 1217TIP3    H127846   1.930   1.857  13.387 -0.0800 -2.1382  1.0624
 1217TIP3    H227847   1.814   1.949  13.417 -0.1191 -1.8691  0.1178
 1218TIP3   OH227848   5.324   2.043  11.939 -0.2880 -0.0286  0.0864
 1218TIP3    H127849   5.320   1.979  12.010 -3.8276 -1.1885 -0.9899
 1218TIP3    H227850   5.275   2.118  11.972 -0.8073 -0.0549 -0.6071
 1219TIP3   OH227851   2.402   2.931  12.166  0.1540  0.5491  0.1381
 1219TIP3    H127852   2.322   2.903  12.210 -0.2967  0.5554 -0.6476
 1219TIP3    H227853   2.375   3.006  12.113  0.6123  0.3799 -0.3471
 1220TIP3   OH227854   0.901   0.486  11.655  0.0238  0.4193 -0.4469
 1220TIP3    H127855   0.816   0.526  11.672  0.3377  0.6847  0.5545
 1220TIP3    H227856   0.904   0.476  11.560 -1.0626  0.5359 -0.5015
 1221TIP3   OH227857   0.692   2.669  12.249 -0.1006  0.2908  0.0763
 1221TIP3    H127858   0.602   2.647  12.227 -0.1884 -0.8565  1.4574
 1221TIP3    H227859   0.691   2.688  12.343  1.1672 -0.2437  0.2225
 1222TIP3   OH227860   1.278   2.790  12.464  0.8982  0.0143 -0.3477
 1222TIP3    H127861   1.213   2.748  12.519  1.6936 -0.7721  0.0234
 1222TIP3    H227862   1.249   2.772  12.374  0.4709 -0.1063 -0.1862
 1223TIP3   OH227863   2.506   1.070  11.734  1.0425 -0.2345 -0.0066
 1223TIP3    H127864   2.503   0.981  11.700 -1.0064 -0.4822  0.7305
 1223TIP3    H227865   2.444   1.071  11.806  1.9331  1.4861  0.8109
 1224TIP3   OH227866   6.575   3.321  13.264  0.8363 -0.2581  0.1622
 1224TIP3    H127867   6.591   3.287  13.176  1.4003 -1.5508  0.7391
 1224TIP3    H227868   6.651   3.377  13.283 -0.4643  2.0760 -1.0911
 1225TIP3   OH227869   6.059   0.217  11.599  0.1001  0.0485 -0.2694
 1225TIP3    H127870   5.980   0.266  11.619 -0.0585  0.4237 -1.7096
 1225TIP3    H227871   6.075   0.163  11.677 -1.3049  0.2985  0.2103
 1226TIP3   OH227872   1.748   7.119  13.398  0.1178  0.3525 -0.4755
 1226TIP3    H127873   1.822   7.079  13.443 -0.3496  0.0893  0.0833
 1226TIP3    H227874   1.744   7.075  13.313  1.4567  1.3631 -1.0982
 1227TIP3   OH227875   7.533   4.166  11.450  0.0200 -0.4551 -0.0825
 1227TIP3    H127876   7.598   4.231  11.475  0.4942 -0.3611 -1.4643
 1227TIP3    H227877   7.548   4.152  11.356 -0.4945 -2.0854  0.0459
 1228TIP3   OH227878   4.434   3.833  11.765 -0.0003 -0.0894  0.7149
 1228TIP3    H127879   4.487   3.764  11.804  1.8755  0.7545 -0.2124
 1228TIP3    H227880   4.466   3.841  11.675 -2.4817 -0.2633 -0.2773
 1229TIP3   OH227881   2.032   6.578  12.754  0.0058  0.2779  0.1730
 1229TIP3    H127882   1.945   6.604  12.784 -0.7571  0.6725 -2.1706
 1229TIP3    H227883   2.085   6.657  12.767 -0.1909  0.3261  0.7547
 1230TIP3   OH227884   3.811   6.989  12.498  0.0494  0.1442  0.1203
 1230TIP3    H127885   3.801   6.996  12.403 -0.1502 -1.6771 -0.0383
 1230TIP3    H227886   3.768   6.906  12.520  0.3449  0.3963  1.7638
 1231TIP3   OH227887   4.786   3.258  13.035  0.0563  0.1634  0.6629
 1231TIP3    H127888   4.712   3.313  13.062  0.1813  1.1317 -0.7951
 1231TIP3    H227889   4.860   3.289  13.087  0.6584  3.0569 -1.5986
 1232TIP3   OH227890   3.076   4.556  12.368  0.5692 -0.4359  0.5178
 1232TIP3    H127891   3.053   4.544  12.460 -1.0311  0.5990  0.2846
 1232TIP3    H227892   3.154   4.611  12.369  0.0672  0.2856  1.2533
 1233TIP3   OH227893   4.213   7.388  13.245  0.5673  0.1262 -0.0983
 1233TIP3    H127894   4.271   7.435  13.305  0.5427 -0.2151  0.1959
 1233TIP3    H227895   4.175   7.457  13.190 -0.2412  0.5588  0.9814
 1234TIP3   OH227896   2.463   7.011  11.985  0.1929 -0.4577  0.1361
 1234TIP3    H127897   2.547   7.031  12.027  0.5367 -1.0897 -0.2277
 1234TIP3    H227898   2.476   7.035  11.893  0.3927 -1.6698 -0.1732
 1235TIP3   OH227899   6.977   6.379  11.429  0.6939  0.1770  0.4960
 1235TIP3    H127900   7.016   6.295  11.407 -1.3862 -0.8291  0.3488
 1235TIP3    H227901   6.937   6.410  11.347  0.5411  0.7897  0.7913
 1236TIP3   OH227902   1.884   3.782  11.404 -0.1520  0.3486  0.6519
 1236TIP3    H127903   1.898   3.777  11.499 -1.6153 -0.3975  0.8582
 1236TIP3    H227904   1.793   3.811  11.395 -1.1900 -2.8987 -0.4498
 1237TIP3   OH227905   4.915   7.333  11.672  0.5253  0.2815  0.3006
 1237TIP3    H127906   4.986   7.338  11.736 -0.8290  0.0040  1.9057
 1237TIP3    H227907   4.835   7.346  11.724 -0.6432 -0.0197 -1.3370
 1238TIP3   OH227908   6.357   4.644  11.397  0.4272 -0.6204 -0.3585
 1238TIP3    H127909   6.377   4.705  11.468  1.8173  0.9780 -2.0405
 1238TIP3    H227910   6.364   4.557  11.438  1.5204  0.2425  1.3824
 1239TIP3   OH227911   6.897   4.623  13.102  0.1747 -0.1784  0.1704
 1239TIP3    H127912   6.860   4.617  13.015  1.8598  2.1905 -0.8315
 1239TIP3    H227913   6.833   4.672  13.153 -0.9197 -1.7727  0.3966
 1240TIP3   OH227914   0.683   7.455  13.264 -0.3304 -0.1974  0.3238
 1240TIP3    H127915   0.661   7.548  13.262 -0.4129 -0.2142 -1.3886
 1240TIP3    H227916   0.643   7.422  13.345 -1.3375  1.0098  0.3513
 1241TIP3   OH227917   7.644   5.020  10.686 -0.1667 -0.5514 -0.5182
 1241TIP3    H127918   7.596   5.101  10.673  0.3228 -0.4645 -1.9511
 1241TIP3    H227919   7.711   5.042  10.751 -1.4372 -0.4340  0.7941
 1242TIP3   OH227920   6.743   6.121  13.427 -0.0562  0.7520  0.2335
 1242TIP3    H127921   6.718   6.212  13.413 -0.4444  0.6195  0.0457
 1242TIP3    H227922   6.834   6.116  13.398  0.0327  1.1283  0.4492
 1243TIP3   OH227923   1.708   4.104  12.587  0.0944  0.1550 -0.0522
 1243TIP3    H127924   1.693   4.068  12.675 -0.1264 -0.2363 -0.2472
 1243TIP3    H227925   1.780   4.052  12.552  0.5021  0.6279  0.0768
 1244TIP3   OH227926   7.276   0.385  11.845 -0.1555  0.9139  0.1216
 1244TIP3    H127927   7.240   0.298  11.863 -0.7641  1.5470  2.3358
 1244TIP3    H227928   7.370   0.372  11.842 -0.2994 -0.0491 -1.2087
 1245TIP3   OH227929   2.914   0.174  10.967  0.3559 -0.2258  0.0942
 1245TIP3    H127930   2.824   0.144  10.955  0.3055 -0.8569  1.7682
 1245TIP3    H227931   2.939   0.211  10.882 -1.2223 -0.6993 -0.6069
 1246TIP3   OH227932   1.578   5.664  11.708 -0.1564 -0.0169  0.1950
 1246TIP3    H127933   1.573   5.687  11.801 -1.8634  2.3168 -0.4123
 1246TIP3    H227934   1.515   5.593  11.698  0.7618 -0.9797  0.9653
 1247TIP3   OH227935   5.660   7.403  12.651 -0.6673 -0.2028  0.0684
 1247TIP3    H127936   5.741   7.449  12.628 -0.8063  1.5884  2.7984
 1247TIP3    H227937   5.600   7.422  12.579  0.2120  1.5090 -0.2487
 1248TIP3   OH227938   2.890   3.512  13.167  0.0068  0.1563  0.5651
 1248TIP3    H127939   2.809   3.468  13.142  0.7992 -0.7644 -0.5085
 1248TIP3    H227940   2.940   3.518  13.086  1.1561  0.3890  1.2685
 1249TIP3   OH227941   2.391   2.046  12.400 -0.8050  0.2467  0.7254
 1249TIP3    H127942   2.309   2.051  12.352 -0.9201 -1.7277  0.6705
 1249TIP3    H227943   2.457   2.026  12.333 -0.4151  0.8709  0.9108
 1250TIP3   OH227944   4.232   6.178  12.430  0.1020 -0.1956  0.2188
 1250TIP3    H127945   4.151   6.197  12.477 -1.8591 -1.5183 -2.3784
 1250TIP3    H227946   4.252   6.087  12.452  1.8719  0.5429  2.0451
 1251TIP3   OH227947   3.238   5.563  13.408 -0.6323  0.1599 -0.0005
 1251TIP3    H127948   3.287   5.487  13.376  0.1928  1.3219 -1.6470
 1251TIP3    H227949   3.298   5.605  13.469 -0.6496  0.1010  0.0573
 1252TIP3   OH227950   3.724   0.744  12.658 -0.2270  0.0004 -0.2009
 1252TIP3    H127951   3.807   0.756  12.704 -0.0480  0.0915 -0.5489
 1252TIP3    H227952   3.709   0.828  12.613 -0.2209 -0.2137 -0.6031
 1253TIP3   OH227953   2.731   6.940  12.864  0.0160  0.2118  0.3212
 1253TIP3    H127954   2.791   7.013  12.849  0.3761 -0.2060 -0.3123
 1253TIP3    H227955   2.701   6.951  12.954  0.2178  1.0287  0.2937
 1254TIP3   OH227956   5.154   0.097  12.801  0.2380  0.0796 -0.2955
 1254TIP3    H127957   5.137   0.033  12.870  2.4195  0.2171  0.4608
 1254TIP3    H227958   5.135   0.051  12.720 -0.5576 -0.7069  0.3176
 1255TIP3   OH227959   2.215   2.069  12.200  0.0100  0.3424 -0.4921
 1255TIP3    H127960   2.261   2.035  12.123  0.0252  0.1182 -0.3846
 1255TIP3    H227961   2.204   2.162  12.182  1.0281  0.5179 -0.2628
 1256TIP3   OH227962   4.843   5.722  12.057  0.3074 -0.1628  0.8929
 1256TIP3    H127963   4.888   5.665  11.995 -1.8482 -0.8649 -0.1543
 1256TIP3    H227964   4.848   5.810  12.018  0.1089 -0.3718  0.3964
 1257TIP3   OH227965   2.023   6.160  11.674 -0.0071  0.3042  0.6886
 1257TIP3    H127966   2.095   6.179  11.614  1.8046 -1.1369  2.2830
 1257TIP3    H227967   1.996   6.071  11.653 -1.1961  0.7334  0.2925
 1258TIP3   OH227968   6.402   3.698  12.520 -0.0597 -0.7253  0.0063
 1258TIP3    H127969   6.347   3.735  12.451  1.0300  0.0913 -0.4523
 1258TIP3    H227970   6.347   3.702  12.598 -1.1060 -1.1190 -0.6837
 1259TIP3   OH227971   0.701   3.500  12.721 -0.4656 -0.2987  0.0903
 1259TIP3    H127972   0.644   3.449  12.779 -1.8221  1.2148  0.1476
 1259TIP3    H227973   0.647   3.574  12.694  0.6652 -0.1529 -1.8879
 1260TIP3   OH227974   0.783   2.911  12.968  0.0440 -0.1780 -0.0450
 1260TIP3    H127975   0.876   2.915  12.944 -0.1437 -0.9808 -0.9814
 1260TIP3    H227976   0.740   2.875  12.891 -1.0660  0.2348  0.3595
 1261TIP3   OH227977   6.101   6.542  12.477 -0.0808  0.7430 -0.3695
 1261TIP3    H127978   6.028   6.544  12.415  0.2432 -0.8200 -0.8390
 1261TIP3    H227979   6.105   6.451  12.506  0.4858  1.2091  1.1113
 1262TIP3   OH227980   0.854   1.735  11.245  0.4583  0.1968 -0.6054
 1262TIP3    H127981   0.906   1.811  11.218 -1.5810  1.6513 -0.7429
 1262TIP3    H227982   0.909   1.660  11.227  2.2146  1.6002 -1.3779
 1263TIP3   OH227983   3.136   5.803  13.343  0.3819  0.1082  0.2256
 1263TIP3    H127984   3.117   5.784  13.251  0.7485  1.3911 -0.1396
 1263TIP3    H227985   3.164   5.719  13.380  0.8581 -0.2919 -0.9906
 1264TIP3   OH227986   7.419   2.387  12.640 -0.6339 -0.0704 -0.6755
 1264TIP3    H127987   7.437   2.298  12.671 -1.2407  0.6392  1.9124
 1264TIP3    H227988   7.505   2.420  12.612 -0.0180 -0.7405  0.3520
 1265TIP3   OH227989   0.414   0.102  11.774 -0.3469 -0.0549  0.2580
 1265TIP3    H127990   0.432   0.183  11.726  0.5848  0.4497  1.3968
 1265TIP3    H227991   0.378   0.043  11.709 -2.5264  1.7512 -0.3120
 1266TIP3   OH227992   4.557   3.931  12.723  0.5072  0.2853 -0.7061
 1266TIP3    H127993   4.627   3.945  12.659 -0.3659  1.1633 -1.5011
 1266TIP3    H227994   4.597   3.953  12.807  0.9889  1.5196 -1.2347
 1267TIP3   OH227995   0.082   2.907  12.408  0.5222  0.1147  0.2841
 1267TIP3    H127996   0.139   2.902  12.331  0.9550  2.0712  0.3994
 1267TIP3    H227997  -0.002   2.938  12.374  0.3846 -0.0741  0.4544
 1268TIP3   OH227998   3.659   1.692  12.151  0.6179 -0.6025  0.6147
 1268TIP3    H127999   3.666   1.761  12.216  2.2794 -0.1394  0.0087
 1268TIP3    H228000   3.749   1.662  12.138  0.0479 -2.2543  0.1917
 1269TIP3   OH228001   6.457   0.162  11.479 -0.3487  0.5823  0.5860
 1269TIP3    H128002   6.429   0.099  11.413 -1.5343  0.4030  1.2340
 1269TIP3    H228003   6.508   0.110  11.542  0.4221  0.6775  0.0657
 1270TIP3   OH228004   2.085   5.573  11.600 -0.2056  0.2876  0.1290
 1270TIP3    H128005   1.990   5.564  11.587  0.0877  0.1996 -2.5242
 1270TIP3    H228006   2.122   5.496  11.558  1.0752  0.5087  0.8111
 1271TIP3   OH228007   1.309   4.996  12.631 -0.2156 -0.0566  0.0100
 1271TIP3    H128008   1.361   5.076  12.618  0.6432 -0.4033  1.1195
 1271TIP3    H228009   1.362   4.927  12.591 -1.3736  0.0212 -1.7437
 1272TIP3   OH228010   3.628   6.829  11.921  0.0581 -0.0403  0.7087
 1272TIP3    H128011   3.676   6.899  11.965  1.2035 -0.4636  0.1643
 1272TIP3    H228012   3.559   6.874  11.871  1.4410  0.8217 -0.4981
 1273TIP3   OH228013   6.729   2.637  13.253 -0.4776  0.2242 -0.0735
 1273TIP3    H128014   6.640   2.619  13.222  0.4174 -2.0807 -1.6216
 1273TIP3    H228015   6.785   2.584  13.195  2.0195  2.5229  0.0493
 1274TIP3   OH228016   1.455   4.984  11.540  0.2402  0.0330  0.5677
 1274TIP3    H128017   1.411   4.903  11.563  1.4988 -1.3280 -1.4895
 1274TIP3    H228018   1.384   5.043  11.512 -0.5441 -0.9424  0.4599
 1275TIP3   OH228019   4.813   5.772  13.404 -0.3102  0.2499  0.1171
 1275TIP3    H128020   4.764   5.833  13.348  0.0874 -0.0713 -0.5894
 1275TIP3    H228021   4.746   5.712  13.438 -0.5907  0.6052  0.1924
 1276TIP3   OH228022   5.927   1.435  13.651 -0.3898  0.6261  0.1152
 1276TIP3    H128023   5.865   1.362  13.645  0.8940 -0.4440 -0.8350
 1276TIP3    H228024   5.895   1.498  13.587 -0.5850  0.1446 -0.2716
 1277TIP3   OH228025   1.522   3.690  13.627 -0.4697 -0.0849 -0.2518
 1277TIP3    H128026   1.498   3.608  13.669  2.8968 -1.2148 -0.2291
 1277TIP3    H228027   1.559   3.665  13.543  1.6699  1.2106  0.2116
 1278TIP3   OH228028   6.575   4.571  13.060  0.0485  0.0641 -0.0302
 1278TIP3    H128029   6.488   4.551  13.095 -0.1271  0.1497 -0.4223
 1278TIP3    H228030   6.585   4.512  12.986  0.4973 -0.2421  0.2661
 1279TIP3   OH228031   2.918   0.875  11.327 -0.2213  0.3730  0.2023
 1279TIP3    H128032   2.954   0.786  11.322  1.1604  0.9376 -0.5629
 1279TIP3    H228033   2.994   0.930  11.345 -1.1515  1.3558  1.2524
 1280TIP3   OH228034   4.673   5.039  11.863 -0.5179  0.1828  0.1272
 1280TIP3    H128035   4.665   4.979  11.937  0.0323  0.9340  0.8156
 1280TIP3    H228036   4.647   5.124  11.898 -3.0232  0.1135 -1.2719
 1281TIP3   OH228037   2.533   4.930  13.648  0.4165  0.0281 -0.1589
 1281TIP3    H128038   2.560   4.839  13.660 -0.7773 -0.2521  0.6466
 1281TIP3    H228039   2.438   4.928  13.657  0.2946  1.2498 -0.9207
 1282TIP3   OH228040   0.318   6.017  10.964  0.4651  0.7533  0.4450
 1282TIP3    H128041   0.280   6.101  10.988 -2.2271 -0.3893  0.5386
 1282TIP3    H228042   0.245   5.967  10.926  1.7090 -1.8594  1.2148
 1283TIP3   OH228043   4.143   1.613  11.623  0.1674  0.0870  0.4764
 1283TIP3    H128044   4.069   1.555  11.601  0.3317  0.0317  0.0515
 1283TIP3    H228045   4.207   1.596  11.554  0.7356 -0.1358  1.0421
 1284TIP3   OH228046   6.551   6.595  12.447  0.1059 -0.1482 -0.0832
 1284TIP3    H128047   6.603   6.676  12.456  0.9547 -0.5497 -1.1236
 1284TIP3    H228048   6.461   6.626  12.439  0.3782  0.6860 -0.1144
 1285TIP3   OH228049   4.352   1.699  12.034 -0.1793 -0.3570 -0.3557
 1285TIP3    H128050   4.398   1.681  12.116  0.2255  0.9128 -0.2716
 1285TIP3    H228051   4.390   1.639  11.971  0.3855 -0.4950  0.1082
 1286TIP3   OH228052   0.954   0.445  12.359 -0.4393 -0.0834  0.2334
 1286TIP3    H128053   0.894   0.513  12.391 -0.6756 -0.8063  1.3596
 1286TIP3    H228054   1.040   0.487  12.358 -0.4177 -0.0483  1.8770
 1287TIP3   OH228055   2.579   4.379  12.438 -0.0373  0.3048 -0.2557
 1287TIP3    H128056   2.530   4.448  12.394  1.4374  1.4135 -0.2471
 1287TIP3    H228057   2.638   4.345  12.370 -0.5912 -0.8266 -0.2013
 1288TIP3   OH228058   3.099   1.592  13.248 -0.3647  0.2022  0.7649
 1288TIP3    H128059   3.170   1.653  13.231 -1.1029  1.6409  2.5163
 1288TIP3    H228060   3.019   1.641  13.226 -0.9047 -0.7625  0.5180
 1289TIP3   OH228061   7.101   3.796  12.465  0.0889 -0.5358  0.1103
 1289TIP3    H128062   7.127   3.763  12.551 -0.8369 -0.3171  0.4856
 1289TIP3    H228063   7.105   3.891  12.473  1.5523 -0.5098 -0.5929
 1290TIP3   OH228064   4.242   4.037  13.491  0.0930  0.2553 -0.0122
 1290TIP3    H128065   4.330   4.044  13.456  0.6379 -0.9295  1.0551
 1290TIP3    H228066   4.208   4.127  13.490  2.1199  1.1182  1.6028
 1291TIP3   OH228067   1.730   2.652  13.175  0.3272 -0.3465  0.4605
 1291TIP3    H128068   1.734   2.590  13.102 -0.5475 -1.5392  1.3863
 1291TIP3    H228069   1.777   2.609  13.246  0.8736  0.6524  0.7227
 1292TIP3   OH228070   6.674   3.448  12.334  0.1519 -0.4098  0.1702
 1292TIP3    H128071   6.761   3.421  12.364  0.0539 -0.2791  0.5699
 1292TIP3    H228072   6.689   3.530  12.287  0.7427 -1.9797 -2.6710
 1293TIP3   OH228073   3.439   5.232  11.104 -0.1384 -0.1503  0.4115
 1293TIP3    H128074   3.417   5.153  11.155 -0.2360  0.5492  1.4816
 1293TIP3    H228075   3.426   5.205  11.013  0.7839 -1.6741  0.6831
 1294TIP3   OH228076   1.395   3.592  13.198  0.0240  0.1965 -0.0910
 1294TIP3    H128077   1.390   3.515  13.141 -2.8264  0.2643 -0.0681
 1294TIP3    H228078   1.403   3.557  13.286 -1.1013 -0.0937 -0.0949
 1295TIP3   OH228079   3.972   4.929  12.800  0.4426  0.3823  0.1538
 1295TIP3    H128080   4.010   4.977  12.727 -0.7116  0.6895 -0.2694
 1295TIP3    H228081   4.046   4.882  12.839  0.9769 -0.4250 -1.6861
 1296TIP3   OH228082   7.318   6.021  13.175  0.5024 -0.5544 -0.3977
 1296TIP3    H128083   7.383   5.953  13.190 -1.1102 -2.6181 -2.1187
 1296TIP3    H228084   7.235   5.979  13.197 -0.4328  1.4564  0.1328
 1297TIP3   OH228085   5.401   1.016  12.454  0.3550 -0.6771 -0.0166
 1297TIP3    H128086   5.428   1.100  12.417 -0.7998 -0.9210 -1.5113
 1297TIP3    H228087   5.369   0.965  12.379 -1.9238 -1.2726  1.2340
 1298TIP3   OH228088   2.196   7.067  11.014  0.3092  0.5675  0.2777
 1298TIP3    H128089   2.256   7.020  11.072 -0.3203  2.9308  3.0491
 1298TIP3    H228090   2.130   7.001  10.990  2.0662 -1.1603 -0.0509
 1299TIP3   OH228091   5.721   6.847  12.358 -0.0144  0.0940 -0.1633
 1299TIP3    H128092   5.769   6.929  12.365  3.3444 -1.4598 -2.0818
 1299TIP3    H228093   5.751   6.795  12.433 -1.2631  0.1987  0.4257
 1300TIP3   OH228094   0.315   6.364  13.382 -0.5807  0.2269  0.1341
 1300TIP3    H128095   0.350   6.300  13.320  0.3229  0.5796  0.2620
 1300TIP3    H228096   0.389   6.385  13.439 -1.5918 -0.6883  1.8695
 1301TIP3   OH228097   7.342   4.786  12.941 -0.5682  0.0418  0.1030
 1301TIP3    H128098   7.335   4.760  12.850  0.3621 -1.4076  0.4050
 1301TIP3    H228099   7.255   4.819  12.964 -1.5526 -1.9300 -0.6146
 1302TIP3   OH228100   6.191   6.639  11.498 -0.2534 -0.1621  0.6890
 1302TIP3    H128101   6.162   6.551  11.474 -0.3319 -0.1669  0.7995
 1302TIP3    H228102   6.128   6.697  11.457 -0.8662 -0.1992  1.5506
 1303TIP3   OH228103   3.880   4.810  11.156 -0.4043 -0.1496  0.3762
 1303TIP3    H128104   3.817   4.881  11.142 -0.8754 -0.4759  0.8208
 1303TIP3    H228105   3.867   4.784  11.248  0.1372 -0.4466  0.3695
 1304TIP3   OH228106   5.215   2.394  13.509  0.4379 -0.0710  0.1471
 1304TIP3    H128107   5.302   2.354  13.502  1.4575  1.7871  1.2226
 1304TIP3    H228108   5.229   2.472  13.563 -1.5088  1.4017 -1.2979
 1305TIP3   OH228109   6.091   4.387  10.904  0.6643  0.6276 -0.0082
 1305TIP3    H128110   6.034   4.338  10.963 -0.4940  0.3535 -1.3075
 1305TIP3    H228111   6.084   4.478  10.934  0.7470  0.3944  0.7574
 1306TIP3   OH228112   6.113   3.137  12.816  0.1232  0.1717 -0.0874
 1306TIP3    H128113   6.027   3.153  12.855  0.1618  2.2651 -0.7465
 1306TIP3    H228114   6.161   3.088  12.882 -1.0048  0.4601  0.9798
 1307TIP3   OH228115   2.006   4.014  13.340 -0.0939 -0.3022 -0.5486
 1307TIP3    H128116   1.918   4.023  13.304 -1.2838 -0.4923  2.0633
 1307TIP3    H228117   2.005   3.929  13.384  1.2443 -0.1134 -0.1156
 1308TIP3   OH228118   4.577   5.220  12.062 -0.9048 -0.1115  0.2012
 1308TIP3    H128119   4.645   5.227  12.129  2.0629 -4.0558 -1.9408
 1308TIP3    H228120   4.569   5.308  12.026  2.4017  0.7659  1.2720
 1309TIP3   OH228121   0.368   6.669  10.715 -0.9066  0.1759  0.4624
 1309TIP3    H128122   0.402   6.747  10.760  0.2402 -1.2758  2.2426
 1309TIP3    H228123   0.411   6.670  10.630 -1.1074  1.6045  0.3437
 1310TIP3   OH228124   3.529   2.723  13.174 -0.2394  0.3550 -0.5078
 1310TIP3    H128125   3.461   2.758  13.116  1.2931  2.2423 -1.2492
 1310TIP3    H228126   3.585   2.797  13.193  1.7852 -1.1930 -0.1341
 1311TIP3   OH228127   6.883   2.093  11.520  0.1134  0.6413 -0.2013
 1311TIP3    H128128   6.818   2.093  11.590 -0.2846 -0.8843 -0.5251
 1311TIP3    H228129   6.832   2.096  11.440  0.5734  2.5421 -0.4691
 1312TIP3   OH228130   6.412   2.209  11.802 -0.0606 -0.4895 -0.3227
 1312TIP3    H128131   6.440   2.285  11.751 -2.6261  0.6840 -0.1283
 1312TIP3    H228132   6.398   2.140  11.737  1.6248 -0.6347 -0.5737
 1313TIP3   OH228133   2.027   1.859  12.171 -0.3938  0.1135 -0.3165
 1313TIP3    H128134   1.949   1.888  12.218 -0.6926  1.6421 -1.6758
 1313TIP3    H228135   2.093   1.925  12.189 -0.6131  0.9319 -2.2299
 1314TIP3   OH228136   6.968   2.718  11.176 -0.3665 -0.7561  0.5056
 1314TIP3    H128137   6.960   2.793  11.117  1.0239  2.2084  3.7135
 1314TIP3    H228138   7.057   2.686  11.163 -0.6149 -1.2028 -0.1325
 1315TIP3   OH228139   6.821   1.632  12.199  0.1427  0.0557  0.2258
 1315TIP3    H128140   6.734   1.657  12.169  0.8393  1.4143 -0.7672
 1315TIP3    H228141   6.805   1.567  12.268 -1.6540  0.6133  0.3805
 1316TIP3   OH228142   2.057   6.950  11.734 -0.0630  0.3218 -0.0554
 1316TIP3    H128143   2.086   6.886  11.800  0.5989  0.6145 -0.0574
 1316TIP3    H228144   2.093   6.917  11.651 -0.3421  0.3039 -0.1702
 1317TIP3   OH228145   6.998   0.437  11.734  0.2907 -0.2039 -0.2645
 1317TIP3    H128146   7.074   0.442  11.792 -0.2943 -0.3190  0.5195
 1317TIP3    H228147   6.939   0.505  11.766 -0.0011 -0.2085 -0.7825
 1318TIP3   OH228148   3.677   3.176  11.414  0.7647  0.4990  0.6857
 1318TIP3    H128149   3.759   3.129  11.429  0.8182  0.3907  0.1021
 1318TIP3    H228150   3.634   3.179  11.499 -0.1008 -2.2388  0.4274
 1319TIP3   OH228151   5.410   0.821  12.734 -0.0991  0.4400  0.2058
 1319TIP3    H128152   5.470   0.787  12.668 -0.2614  1.9314 -0.7523
 1319TIP3    H228153   5.449   0.904  12.761 -0.2850  0.0733  1.6566
 1320TIP3   OH228154   1.531   2.219  12.691 -0.2692 -0.0923 -0.2921
 1320TIP3    H128155   1.521   2.132  12.729 -1.9667 -1.7255 -3.9437
 1320TIP3    H228156   1.620   2.220  12.656 -0.1436 -0.2603  0.0226
 1321TIP3   OH228157   6.992   1.505  12.444 -0.2960 -0.0683  0.2008
 1321TIP3    H128158   7.027   1.525  12.531 -0.4896 -0.4666  0.3727
 1321TIP3    H228159   6.917   1.448  12.460 -2.2614  2.2693 -0.0316
 1322TIP3   OH228160   2.605   3.586  12.932 -0.6419 -0.1723 -0.9348
 1322TIP3    H128161   2.579   3.539  13.012 -1.5852 -1.9060 -2.1957
 1322TIP3    H228162   2.690   3.625  12.954 -1.3889  0.3773  1.2679
 1323TIP3   OH228163   5.061   5.936  12.819 -0.1461  0.3960 -0.2895
 1323TIP3    H128164   5.020   5.997  12.757 -0.0907  0.0518 -0.6709
 1323TIP3    H228165   4.992   5.913  12.880 -0.9418 -1.2237 -1.7059
 1324TIP3   OH228166   7.113   5.864  13.208 -0.2698  0.2698  0.2996
 1324TIP3    H128167   7.132   5.852  13.301  1.1668 -1.9047 -0.1865
 1324TIP3    H228168   7.033   5.813  13.193 -1.3478  1.8165  0.5729
 1325TIP3   OH228169   2.464   6.639  12.229  0.0238  0.2340  0.6328
 1325TIP3    H128170   2.368   6.638  12.231  0.0207  0.7719  2.8868
 1325TIP3    H228171   2.490   6.552  12.258  0.2652 -0.2317 -0.8822
 1326TIP3   OH228172   6.045   1.565  12.173 -0.2713  0.2865  0.2137
 1326TIP3    H128173   5.995   1.604  12.245  1.9457  2.8222  0.5722
 1326TIP3    H228174   6.000   1.595  12.094 -1.6754 -0.9939  0.4978
 1327TIP3   OH228175   2.080   2.953  12.414 -0.6050  0.5219  0.1793
 1327TIP3    H128176   2.029   2.977  12.337 -0.2025 -1.0633 -0.6277
 1327TIP3    H228177   2.086   2.857  12.410  0.8460  0.5338  1.2499
 1328TIP3   OH228178   6.754   5.350  11.973  0.3285 -0.3739 -0.1430
 1328TIP3    H128179   6.811   5.360  12.049  1.4697  0.1768 -1.0488
 1328TIP3    H228180   6.687   5.417  11.984  0.7444 -0.0055  0.1610
 1329TIP3   OH228181   2.740   1.086  11.421 -0.0345  0.1603  0.1861
 1329TIP3    H128182   2.771   1.115  11.507  1.1353 -1.0116  0.1921
 1329TIP3    H228183   2.795   1.010  11.400  0.7834  1.3358 -2.2969
 1330TIP3   OH228184   6.027   5.804  10.977  0.0832 -0.3346 -0.1557
 1330TIP3    H128185   6.047   5.872  10.913 -1.5003  0.6528  0.3295
 1330TIP3    H228186   5.963   5.748  10.934  1.1861 -1.3949 -0.4566
 1331TIP3   OH228187   6.320   1.929  10.713 -0.1860  0.1495  0.7353
 1331TIP3    H128188   6.390   1.884  10.665  0.3907  2.2740 -0.5765
 1331TIP3    H228189   6.240   1.882  10.689  0.4834 -0.7795  0.2396
 1332TIP3   OH228190   4.026   3.864  12.531 -0.9727 -0.5597 -0.3557
 1332TIP3    H128191   4.004   3.818  12.612  1.4673  0.7269  1.1460
 1332TIP3    H228192   4.091   3.809  12.488  1.0906  0.7801  0.8781
 1333TIP3   OH228193   5.914   0.418  12.020  0.4947  0.3463 -0.5339
 1333TIP3    H128194   5.910   0.419  12.116 -0.9653  0.9112 -0.5781
 1333TIP3    H228195   5.886   0.330  11.996 -0.2253  0.5501 -0.4638
 1334TIP3   OH228196   6.865   4.850  11.054 -0.1123  0.0533  0.4583
 1334TIP3    H128197   6.795   4.874  10.994  1.2800  0.6336 -1.0189
 1334TIP3    H228198   6.893   4.763  11.025  0.9241  0.5612 -0.1160
 1335TIP3   OH228199   2.106   6.991  13.229 -0.0285  0.3392  0.0662
 1335TIP3    H128200   2.157   7.057  13.277 -0.7008  0.0102  1.2773
 1335TIP3    H228201   2.022   7.034  13.212  0.1761  0.4218 -0.7603
 1336TIP3   OH228202   1.720   4.122  10.785 -0.7757 -0.4612  0.4472
 1336TIP3    H128203   1.679   4.059  10.845 -0.8395 -1.2688 -0.4142
 1336TIP3    H228204   1.752   4.068  10.713 -1.0581  0.5225 -0.4366
 1337TIP3   OH228205   6.480   2.482  11.619 -0.3409 -0.5271 -0.1132
 1337TIP3    H128206   6.575   2.465  11.617 -0.5008 -1.3719 -1.2864
 1337TIP3    H228207   6.454   2.486  11.527 -1.2604  0.9256  0.1677
 1338TIP3   OH228208   0.277   6.257  13.701  0.7106  0.4022  0.0559
 1338TIP3    H128209   0.351   6.196  13.709 -0.9280 -1.6231  0.9013
 1338TIP3    H228210   0.312   6.331  13.652  2.9449 -1.0435 -0.7045
 1339TIP3   OH228211   4.836   2.433  12.943  0.0778  1.1606 -0.7293
 1339TIP3    H128212   4.804   2.354  12.900  1.0801  0.5965 -0.4590
 1339TIP3    H228213   4.787   2.437  13.025 -0.4518  1.1996 -1.0363
 1340TIP3   OH228214   2.504   5.858  11.595 -0.5769  0.2988  0.3687
 1340TIP3    H128215   2.526   5.947  11.569 -1.2814  0.0683 -1.1641
 1340TIP3    H228216   2.588   5.813  11.601 -0.3159  0.3089 -1.9693
 1341TIP3   OH228217   4.786   6.886  11.882 -0.6805 -0.6142  0.3379
 1341TIP3    H128218   4.813   6.966  11.929 -1.1798 -1.1939  1.6727
 1341TIP3    H228219   4.767   6.916  11.793 -0.7001  0.7363  0.7644
 1342TIP3   OH228220   5.628   0.515  12.309  0.0069  0.0807  0.3407
 1342TIP3    H128221   5.694   0.584  12.306  0.0977  0.1140  1.9148
 1342TIP3    H228222   5.585   0.527  12.394 -1.0004 -0.8661 -0.0110
 1343TIP3   OH228223   4.179   6.421  12.324  0.1823  0.4599  0.0150
 1343TIP3    H128224   4.164   6.465  12.408 -0.1798  3.8842 -1.6564
 1343TIP3    H228225   4.219   6.337  12.347  0.6170  1.4849  3.5372
 1344TIP3   OH228226   5.820   1.880  11.434  0.1106 -0.4504 -0.4656
 1344TIP3    H128227   5.757   1.826  11.483  0.5336 -0.9718 -0.4981
 1344TIP3    H228228   5.784   1.884  11.345 -1.2192  1.3610  0.0874
 1345TIP3   OH228229   3.609   2.567  11.786  0.3826  0.3166  0.2297
 1345TIP3    H128230   3.514   2.571  11.785  0.3367 -0.7845 -0.8355
 1345TIP3    H228231   3.630   2.476  11.767  1.6688  0.9041 -1.4022
 1346TIP3   OH228232   6.967   4.964  13.333  0.4220  0.3847  0.6209
 1346TIP3    H128233   6.940   5.039  13.281 -0.8586  0.2806  1.1081
 1346TIP3    H228234   6.987   4.896  13.269 -0.8985  0.3363  0.2243
 1347TIP3   OH228235   5.812   1.562  13.211 -0.0496  0.3310  0.6135
 1347TIP3    H128236   5.853   1.475  13.213 -1.2856 -0.2766  1.0449
 1347TIP3    H228237   5.756   1.560  13.134 -2.3993 -0.4236  2.2363
 1348TIP3   OH228238   2.353   1.999  11.970  0.5968 -0.5826  0.7006
 1348TIP3    H128239   2.430   2.032  11.924  0.0172  0.1449  0.2510
 1348TIP3    H228240   2.373   1.906  11.985  0.4871 -1.0513 -1.6645
 1349TIP3   OH228241   0.229   4.345  12.867 -0.1201  0.4959 -0.4105
 1349TIP3    H128242   0.283   4.288  12.923  1.3564  0.2960 -1.9477
 1349TIP3    H228243   0.242   4.311  12.779  0.6615  3.0694 -1.3807
 1350TIP3   OH228244   2.417   3.920  10.927 -0.0689 -0.2831  0.1813
 1350TIP3    H128245   2.441   3.828  10.942 -0.1100 -0.0932  1.4720
 1350TIP3    H228246   2.323   3.917  10.909 -0.4770 -0.3449  2.0704
 1351TIP3   OH228247   6.597   6.313  12.886 -0.1635  0.1625  0.1593
 1351TIP3    H128248   6.621   6.247  12.821 -1.2527  0.2841 -0.4080
 1351TIP3    H228249   6.667   6.311  12.951  1.3055  0.4961 -1.3530
 1352TIP3   OH228250   0.482   2.377  12.422 -0.5400 -0.2018 -0.0447
 1352TIP3    H128251   0.438   2.451  12.462  0.9302 -0.3530  2.0144
 1352TIP3    H228252   0.415   2.308  12.419 -1.4437  0.6732 -0.4331
 1353TIP3   OH228253   3.864   5.205  13.017 -0.8360 -0.1595 -0.9118
 1353TIP3    H128254   3.946   5.251  13.036  0.2585 -1.9388 -1.0797
 1353TIP3    H228255   3.852   5.216  12.922 -1.0479  0.4704 -0.8185
 1354TIP3   OH228256   0.680   3.885  11.667 -0.3146 -0.0317 -0.7865
 1354TIP3    H128257   0.601   3.937  11.654 -0.9520 -1.5046 -3.6484
 1354TIP3    H228258   0.710   3.864  11.578  1.4788 -2.1629  0.2166
 1355TIP3   OH228259   7.103   0.333  11.512  0.0008  0.4163  0.2305
 1355TIP3    H128260   7.042   0.353  11.441  0.0138  2.2655  0.7087
 1355TIP3    H228261   7.079   0.392  11.583  1.8896  0.7090  0.6946
 1356TIP3   OH228262   3.410   5.049  12.840  0.1671 -0.1560  0.3162
 1356TIP3    H128263   3.347   5.016  12.776 -0.5987  1.8405 -0.0302
 1356TIP3    H228264   3.495   5.044  12.795 -0.0758 -0.6021 -0.1006
 1357TIP3   OH228265   2.310   6.991  13.519  0.0817  0.6456  0.4879
 1357TIP3    H128266   2.359   6.911  13.500  0.4203  0.9108  0.2489
 1357TIP3    H228267   2.284   6.982  13.610  2.3576  1.4381  1.2882
 1358TIP3   OH228268   4.066   5.522  12.295  0.4258 -1.0128 -0.4060
 1358TIP3    H128269   4.074   5.427  12.286  2.0725 -0.8663 -0.8620
 1358TIP3    H228270   4.057   5.554  12.206 -2.5584 -0.8397 -0.1602
 1359TIP3   OH228271   6.269   0.616  11.472 -0.2384  0.2552  0.7763
 1359TIP3    H128272   6.248   0.523  11.480 -0.5311  0.3683  1.3883
 1359TIP3    H228273   6.364   0.619  11.457 -0.3613 -0.1771 -0.1361
 1360TIP3   OH228274   1.888   7.505  12.713  0.3364  0.3886  0.7161
 1360TIP3    H128275   1.884   7.409  12.719  0.3158  0.3708  0.4106
 1360TIP3    H228276   1.857   7.535  12.799  0.0975  0.1258  0.7254
 1361TIP3   OH228277   1.807   7.160  11.406  0.1249 -0.4394  0.5878
 1361TIP3    H128278   1.875   7.127  11.349 -0.0794  0.8723 -0.4717
 1361TIP3    H228279   1.853   7.187  11.486  1.0287  1.3291 -0.4804
 1362TIP3   OH228280   7.159   5.233  12.328  0.0059 -0.3006  0.5892
 1362TIP3    H128281   7.246   5.253  12.363  0.6986  0.2635 -1.3061
 1362TIP3    H228282   7.174   5.157  12.272 -0.8667 -0.5912  0.7381
 1363TIP3   OH228283   3.773   1.386  13.001 -0.1754  0.5727 -0.2375
 1363TIP3    H128284   3.846   1.345  13.047 -0.0102 -0.9494 -1.7816
 1363TIP3    H228285   3.764   1.472  13.044  1.5663  0.2349  0.9368
 1364TIP3   OH228286   2.484   4.792  11.701 -0.3522  0.3477  0.6371
 1364TIP3    H128287   2.409   4.851  11.702 -0.9536 -0.3747 -0.7101
 1364TIP3    H228288   2.447   4.704  11.695  0.5643 -0.1595  1.7922
 1365TIP3   OH228289   3.225   3.178  11.852 -0.6372  0.4686  0.0829
 1365TIP3    H128290   3.265   3.123  11.785  0.6822  1.6535 -0.1522
 1365TIP3    H228291   3.298   3.199  11.912 -1.3967  0.8938  0.8815
 1366TIP3   OH228292   1.562   2.055  12.973 -0.6072 -0.1120  0.0542
 1366TIP3    H128293   1.503   2.006  12.916 -0.3937 -0.4793  0.1424
 1366TIP3    H228294   1.514   2.067  13.055 -1.7499  2.2611 -0.8722
 1367TIP3   OH228295   2.935   2.887  12.701 -0.1510 -0.1898 -0.4919
 1367TIP3    H128296   2.928   2.853  12.791  1.3489  0.8885  0.0706
 1367TIP3    H228297   3.027   2.910  12.692 -0.6455  1.4348 -1.6922
 1368TIP3   OH228298   5.448   1.842  12.599 -0.0128  0.0187  0.2214
 1368TIP3    H128299   5.472   1.813  12.687 -0.0888 -0.2521  0.1564
 1368TIP3    H228300   5.483   1.773  12.542  2.6835  1.6258 -0.2316
 1369TIP3   OH228301   4.998   6.549  11.879  0.1471  0.5558  0.3849
 1369TIP3    H128302   5.048   6.468  11.892 -0.5578 -0.1376 -0.9831
 1369TIP3    H228303   4.969   6.574  11.966  0.7648 -0.4203  0.8846
 1370TIP3   OH228304   6.449   0.449  12.170 -0.3420  0.3443 -0.1805
 1370TIP3    H128305   6.408   0.478  12.251 -1.3156 -0.4469 -0.3650
 1370TIP3    H228306   6.479   0.529  12.127 -1.9959  0.9873 -0.1826
 1371TIP3   OH228307   4.407   2.658  13.068  0.1662 -0.0217  0.4998
 1371TIP3    H128308   4.397   2.603  12.990 -1.6477  1.5456 -0.4726
 1371TIP3    H228309   4.489   2.705  13.053 -0.4276  0.6813 -0.8177
 1372TIP3   OH228310   0.108   0.768  11.581  0.6614  0.0751  0.2107
 1372TIP3    H128311   0.081   0.723  11.661  0.4687  0.5126  0.3990
 1372TIP3    H228312   0.065   0.854  11.587 -1.9895 -0.9795 -1.8984
 1373TIP3   OH228313   5.884   3.452  10.836  0.4189 -0.2541  0.0901
 1373TIP3    H128314   5.837   3.535  10.846  0.0763 -0.4167 -0.1742
 1373TIP3    H228315   5.816   3.385  10.835  0.6630 -0.5009 -0.1617
 1374TIP3   OH228316   5.419   1.258  10.868 -0.4237 -0.2276 -0.3658
 1374TIP3    H128317   5.413   1.293  10.957 -0.4695  0.1414 -0.5144
 1374TIP3    H228318   5.464   1.326  10.818 -1.4513  0.0781 -0.8947
 1375TIP3   OH228319   7.590   0.621  13.216  0.3602  0.0479 -0.3120
 1375TIP3    H128320   7.571   0.627  13.310 -0.7737  1.4865 -0.6120
 1375TIP3    H228321   7.505   0.610  13.175  0.7809  0.2006 -1.2336
 1376TIP3   OH228322   7.564   5.984  11.902 -0.3679 -0.7867 -0.2796
 1376TIP3    H128323   7.520   6.037  11.835  0.3789 -0.8954 -0.8795
 1376TIP3    H228324   7.538   5.894  11.883 -3.4369 -0.5456  2.0976
 1377TIP3   OH228325   1.306   2.202  12.333  0.1464 -0.3672  0.4658
 1377TIP3    H128326   1.215   2.220  12.310  0.5881 -0.5643 -1.5610
 1377TIP3    H228327   1.325   2.118  12.293  0.6826 -1.3090  2.5551
 1378TIP3   OH228328   3.506   7.580  12.160  0.2991  0.2140 -0.2802
 1378TIP3    H128329   3.462   7.602  12.242 -1.0099 -0.4367 -0.7702
 1378TIP3    H228330   3.482   7.650  12.100 -1.2517 -0.8072 -0.9303
 1379TIP3   OH228331   6.832   6.701  11.227  0.2424  0.0511  0.2498
 1379TIP3    H128332   6.803   6.610  11.237 -2.0299  0.7153  0.3809
 1379TIP3    H228333   6.785   6.749  11.295 -2.0186  1.9474 -2.3932
 1380TIP3   OH228334   4.952   0.894  12.654  0.1413 -0.2805 -0.0035
 1380TIP3    H128335   4.911   0.967  12.699 -0.7478 -1.2796  0.8777
 1380TIP3    H228336   5.030   0.874  12.704  1.9752  1.7671 -1.8094
 1381TIP3   OH228337   4.353   5.876  11.329  0.0630  0.5085  0.3954
 1381TIP3    H128338   4.366   5.824  11.250  0.6378 -1.9900  2.0413
 1381TIP3    H228339   4.302   5.952  11.300 -0.0937 -0.5271 -2.2620
 1382TIP3   OH228340   5.344   5.582  12.152  0.0766 -0.6666  0.2338
 1382TIP3    H128341   5.427   5.581  12.105 -0.2414  0.4662 -0.3875
 1382TIP3    H228342   5.365   5.619  12.237 -0.1920  2.2295 -0.8435
 1383TIP3   OH228343   3.087   3.622  13.302 -0.0284 -0.3770  0.0974
 1383TIP3    H128344   3.009   3.583  13.263 -0.7950  1.1705  0.0265
 1383TIP3    H228345   3.089   3.711  13.268  0.2927  0.4586  2.1533
 1384TIP3   OH228346   3.023   1.385  12.806 -0.0462 -0.4795  0.5496
 1384TIP3    H128347   3.027   1.305  12.859  0.4863  0.0829  1.3891
 1384TIP3    H228348   3.112   1.421  12.810 -0.2555  0.0977  0.0982
 1385TIP3   OH228349   7.431   5.648  12.256 -0.2344 -0.1288  0.1408
 1385TIP3    H128350   7.390   5.721  12.209 -3.1793 -1.6201  0.1247
 1385TIP3    H228351   7.425   5.673  12.348  0.0282  0.2170  0.0682
 1386TIP3   OH228352   1.209   7.008  12.898 -0.3968 -0.4142  0.0007
 1386TIP3    H128353   1.262   6.945  12.848 -0.6009 -0.6399  0.0690
 1386TIP3    H228354   1.246   7.004  12.986 -0.3144 -0.3286 -0.0294
 1387TIP3   OH228355   0.508   6.100  13.676  1.1722  0.1991 -0.0141
 1387TIP3    H128356   0.532   6.009  13.694  0.1183  0.1117  1.1030
 1387TIP3    H228357   0.502   6.105  13.581  2.4711 -0.5534 -0.1650
 1388TIP3   OH228358   5.033   4.887  13.624  0.1401 -0.0854  0.1920
 1388TIP3    H128359   4.994   4.916  13.707 -0.8340  0.3842 -0.4190
 1388TIP3    H228360   5.076   4.965  13.589 -1.5649  0.3966 -0.9302
 1389TIP3   OH228361   0.415   6.755  13.624  0.4754  0.2047 -0.1963
 1389TIP3    H128362   0.447   6.840  13.593 -2.6610  1.2939 -0.8017
 1389TIP3    H228363   0.360   6.777  13.700  1.0700 -1.5147  0.7645
 1390TIP3   OH228364   0.430   2.131  13.223 -0.5027  0.9158  0.3118
 1390TIP3    H128365   0.448   2.130  13.129  0.1748  1.3977  0.4288
 1390TIP3    H228366   0.483   2.060  13.259 -0.4388  0.9977  0.3813
 1391TIP3   OH228367   5.499   5.891  12.536 -0.0820 -0.3713  0.6047
 1391TIP3    H128368   5.593   5.906  12.528 -0.0024 -0.9527  0.4104
 1391TIP3    H228369   5.483   5.890  12.630 -0.0562  0.6570  0.6366
 1392TIP3   OH228370   7.438   0.096  12.848 -0.0301  0.7490 -0.1285
 1392TIP3    H128371   7.483   0.024  12.805 -2.3052  0.0354 -1.4831
 1392TIP3    H228372   7.506   0.162  12.862  2.0071 -1.3994  0.6881
 1393TIP3   OH228373   1.262   5.887  12.449  0.1133  0.2605 -0.4736
 1393TIP3    H128374   1.321   5.901  12.374  0.5150  2.0207  0.1088
 1393TIP3    H228375   1.307   5.930  12.522 -1.0380 -0.0045  0.4100
 1394TIP3   OH228376   6.595   5.378  13.582  0.3347  0.2928  0.2783
 1394TIP3    H128377   6.551   5.330  13.652  2.0308 -2.6093 -0.4954
 1394TIP3    H228378   6.688   5.355  13.592  0.6492 -0.1692 -2.8294
 1395TIP3   OH228379   0.364   2.063  12.280  0.4041  0.9157  0.3476
 1395TIP3    H128380   0.277   2.084  12.313 -0.4763 -0.5975 -0.8508
 1395TIP3    H228381   0.410   2.026  12.356 -0.3257  0.8430  0.7670
 1396TIP3   OH228382   6.737   2.175  13.200  0.0865  0.0954 -0.2835
 1396TIP3    H128383   6.711   2.265  13.184 -2.0997 -0.4364 -0.0652
 1396TIP3    H228384   6.695   2.152  13.283 -0.7322 -1.5718 -1.1022
 1397TIP3   OH228385   6.928   6.440  13.545  0.4133  0.1341 -0.5508
 1397TIP3    H128386   6.948   6.362  13.596  1.5560  0.7816  0.0322
 1397TIP3    H228387   6.977   6.429  13.463  2.8050  1.4112  0.6057
 1398TIP3   OH228388   3.007   6.459  13.270  0.1629 -0.3067  0.0240
 1398TIP3    H128389   2.957   6.536  13.294 -0.2838  0.3296 -2.7137
 1398TIP3    H228390   2.963   6.387  13.316 -1.2481  0.6500  0.2356
 1399TIP3   OH228391   0.149   3.952  11.351 -0.2502 -0.5347  0.0654
 1399TIP3    H128392   0.098   3.900  11.288  0.2363 -1.1993  0.2123
 1399TIP3    H228393   0.238   3.918  11.343 -0.3334 -1.2096  1.7138
 1400TIP3   OH228394   6.860   1.612  12.972  0.0771  0.0149 -0.4659
 1400TIP3    H128395   6.853   1.532  13.025  1.3949 -0.6054 -1.1930
 1400TIP3    H228396   6.888   1.679  13.034  0.8652 -0.5331 -0.2169
 1401TIP3   OH228397   2.461   5.049  13.026  0.0467 -0.2755 -0.1364
 1401TIP3    H128398   2.500   5.075  13.110  1.5119 -2.9037  0.0903
 1401TIP3    H228399   2.528   5.070  12.961  0.0986 -0.8670 -0.2793
 1402TIP3   OH228400   2.638   1.938  13.403 -0.0486 -0.7564 -0.2527
 1402TIP3    H128401   2.558   1.983  13.375  0.3309  2.2907  2.9043
 1402TIP3    H228402   2.706   1.973  13.346 -0.1991  0.7145  0.4317
 1403TIP3   OH228403   4.034   5.943  13.641  0.3385 -0.4431 -0.2596
 1403TIP3    H128404   4.109   5.886  13.623  1.3544 -0.2962  2.9464
 1403TIP3    H228405   4.072   6.020  13.683 -1.4986  0.2054  0.3209
 1404TIP3   OH228406   6.253   2.179  11.536  0.0207  0.0434  0.1870
 1404TIP3    H128407   6.215   2.217  11.457 -1.4024 -0.2712  0.6955
 1404TIP3    H228408   6.339   2.147  11.509 -0.2873  0.3053 -1.1333
 1405TIP3   OH228409   0.408   2.800  12.720 -0.2004 -0.0983 -0.6436
 1405TIP3    H128410   0.452   2.855  12.656 -3.2610  0.3810 -2.5648
 1405TIP3    H228411   0.403   2.853  12.799  1.0232  0.4793 -0.9347
 1406TIP3   OH228412   4.495   1.166  12.132 -0.0111  0.2097 -0.4211
 1406TIP3    H128413   4.539   1.099  12.080  1.7481  1.0299 -0.0608
 1406TIP3    H228414   4.562   1.197  12.194 -0.5458  2.7242 -0.9761
 1407TIP3   OH228415   6.102   3.356  11.787 -0.0775 -0.2360  0.0656
 1407TIP3    H128416   6.007   3.366  11.791 -0.0576 -0.2950  1.0821
 1407TIP3    H228417   6.116   3.286  11.723 -0.5841  1.2482 -1.7273
 1408TIP3   OH228418   5.028   0.388  13.381  0.5209  0.3425 -0.7945
 1408TIP3    H128419   5.057   0.456  13.442  0.7521 -0.2704 -0.1970
 1408TIP3    H228420   4.997   0.435  13.304 -0.1262  1.1563 -0.0544
 1409TIP3   OH228421   5.004   4.530  13.081 -0.0936 -0.2705 -0.6455
 1409TIP3    H128422   4.973   4.619  13.070  2.0059  0.2629 -3.4176
 1409TIP3    H228423   4.928   4.475  13.063 -1.1381  0.9174 -0.0048
 1410TIP3   OH228424   4.227   3.143  12.227  0.3281  0.6803 -0.2997
 1410TIP3    H128425   4.156   3.129  12.164 -0.0916 -0.1669  0.3535
 1410TIP3    H228426   4.223   3.068  12.285  1.3663  0.9466  0.1330
 1411TIP3   OH228427   0.200   3.119  11.466 -0.0447 -0.0238 -0.1038
 1411TIP3    H128428   0.272   3.144  11.525  1.9221 -1.6050 -1.6689
 1411TIP3    H228429   0.174   3.201  11.424  0.1941  0.7312  1.1571
 1412TIP3   OH228430   6.848   0.521  11.482 -0.0375 -0.3170 -0.4985
 1412TIP3    H128431   6.879   0.573  11.408 -1.0063 -0.8736 -1.3088
 1412TIP3    H228432   6.830   0.434  11.445 -1.6027 -0.2947  0.1460
 1413TIP3   OH228433   1.491   7.549  13.557  0.1882 -0.1067  0.0763
 1413TIP3    H128434   1.543   7.485  13.507  0.5037 -0.3516  0.7109
 1413TIP3    H228435   1.445   7.497  13.622  2.2943  0.4993  2.2061
 1414TIP3   OH228436   6.859   5.463  11.170  0.2777  0.6181 -0.0059
 1414TIP3    H128437   6.953   5.473  11.183  0.4362 -0.1491 -0.4834
 1414TIP3    H228438   6.851   5.393  11.105 -0.6104  0.9455 -0.2723
 1415TIP3   OH228439   0.564   2.219  13.720 -0.4849 -0.1094 -0.5477
 1415TIP3    H128440   0.564   2.123  13.719  0.6717 -0.1295  0.1871
 1415TIP3    H228441   0.654   2.243  13.741 -0.8858  1.1382 -0.1942
 1416TIP3   OH228442   6.409   1.133  12.596 -0.3228  0.1673  0.7160
 1416TIP3    H128443   6.349   1.120  12.523  0.8114  0.8505 -0.3668
 1416TIP3    H228444   6.445   1.221  12.583  2.8495 -1.1192 -0.1647
 1417TIP3   OH228445   2.404   2.728  12.477 -0.2880  1.0876 -0.0890
 1417TIP3    H128446   2.420   2.822  12.474 -1.0855  1.2189 -0.5612
 1417TIP3    H228447   2.357   2.709  12.396  1.0509  0.0423 -0.6575
 1418TIP3   OH228448   4.445   5.350  13.560  0.4318  0.0496 -0.3469
 1418TIP3    H128449   4.520   5.363  13.618 -0.6337  1.3888  0.7855
 1418TIP3    H228450   4.473   5.388  13.476  0.6978  1.4589  0.3456
 1419TIP3   OH228451   5.867   0.650  12.272 -0.7456 -0.1648 -0.4888
 1419TIP3    H128452   5.872   0.733  12.319 -0.9868 -0.7624  0.6347
 1419TIP3    H228453   5.946   0.648  12.219  0.2308 -0.0324  0.8891
 1420TIP3   OH228454   5.292   4.165  12.989  0.0728 -0.1860 -0.4784
 1420TIP3    H128455   5.332   4.105  13.052 -3.0537 -0.9297  0.9845
 1420TIP3    H228456   5.268   4.242  13.041  0.6771  0.7885 -1.5802
 1421TIP3   OH228457   3.104   2.333  12.291 -0.0579 -0.1478  0.1642
 1421TIP3    H128458   3.101   2.352  12.385 -1.4001 -2.7815  0.7464
 1421TIP3    H228459   3.012   2.331  12.265  0.1893 -1.5583 -0.6888
 1422TIP3   OH228460   2.003   2.367  11.568 -0.4904 -0.5330  0.1463
 1422TIP3    H128461   1.961   2.292  11.527 -2.4427 -0.6254  2.1245
 1422TIP3    H228462   2.018   2.428  11.496 -1.1795 -1.7806 -1.1069
 1423TIP3   OH228463   0.741   6.970  11.721 -0.0218  0.7807 -0.1141
 1423TIP3    H128464   0.760   7.027  11.795 -1.0000 -0.1044  0.8564
 1423TIP3    H228465   0.728   7.029  11.647  1.4785  1.6556  0.2671
 1424TIP3   OH228466   1.982   6.591  14.002  0.3631 -0.1685 -0.1515
 1424TIP3    H128467   1.927   6.518  14.032 -0.5643  0.1791 -0.9629
 1424TIP3    H228468   2.029   6.556  13.927  0.7186 -0.2432  0.1031
 1425TIP3   OH228469   1.817   7.127  10.998  0.3251 -1.0043 -0.3710
 1425TIP3    H128470   1.842   7.106  11.087 -0.7682 -1.1016 -0.0663
 1425TIP3    H228471   1.821   7.223  10.994  0.7844 -1.0208 -0.3531
 1426TIP3   OH228472   7.664   1.115  10.791 -0.3452  0.5648 -0.2201
 1426TIP3    H128473   7.634   1.026  10.808 -0.7562  0.5355 -1.0384
 1426TIP3    H228474   7.732   1.130  10.856  2.2355 -1.6060 -2.1891
 1427TIP3   OH228475   0.378   6.035  12.125 -0.7763 -0.1815  0.1251
 1427TIP3    H128476   0.307   6.097  12.111  1.5895  2.6430 -0.3648
 1427TIP3    H228477   0.381   6.024  12.221 -1.5875 -0.0195  0.1773
 1428TIP3   OH228478   1.426   3.980  11.553 -0.0101 -0.4216  0.0729
 1428TIP3    H128479   1.502   3.935  11.517  0.0143 -0.0676 -0.3182
 1428TIP3    H228480   1.354   3.959  11.494  0.4968  1.9951 -1.5410
 1429TIP3   OH228481   6.219   4.437  11.189 -0.1693  0.1829  0.1949
 1429TIP3    H128482   6.149   4.371  11.191 -0.0586  0.0784  0.8783
 1429TIP3    H228483   6.293   4.391  11.150 -1.3419  1.1926 -3.6280
 1430TIP3   OH228484   0.896   4.831  12.878 -0.4043  0.3418 -0.2472
 1430TIP3    H128485   0.906   4.749  12.829  0.9306 -0.0081  0.5637
 1430TIP3    H228486   0.981   4.873  12.873  0.6860 -0.9184  3.8039
 1431TIP3   OH228487   6.258   7.614  12.585 -0.3564 -0.6131 -0.4899
 1431TIP3    H128488   6.294   7.526  12.574 -2.2444 -1.3348 -1.4084
 1431TIP3    H228489   6.292   7.664  12.511  0.7093 -0.5616  0.0240
 1432TIP3   OH228490   4.314   5.371  11.587  0.1918  0.1704  0.5680
 1432TIP3    H128491   4.255   5.389  11.661 -0.2922 -0.9289  0.4642
 1432TIP3    H228492   4.311   5.451  11.535 -1.1849  0.1676  0.5969
 1433TIP3   OH228493   0.074   2.494  11.307 -0.0441 -0.1582  0.5197
 1433TIP3    H128494   0.169   2.508  11.307 -0.1165  0.3916 -0.2189
 1433TIP3    H228495   0.037   2.581  11.316 -0.4965 -0.4964  2.3342
 1434TIP3   OH228496   4.633   6.100  13.081 -0.6217  0.5058 -0.7735
 1434TIP3    H128497   4.710   6.137  13.126  0.1552 -2.2671  0.3967
 1434TIP3    H228498   4.670   6.040  13.016 -1.8243  0.7432 -1.7097
 1435TIP3   OH228499   6.749   2.987  11.063  0.2484 -0.1256 -0.7763
 1435TIP3    H128500   6.833   2.961  11.024  0.7642  0.0251  0.2026
 1435TIP3    H228501   6.689   2.915  11.041  0.8926 -0.7112 -0.6512
 1436TIP3   OH228502   6.040   6.901  12.929  0.3333  0.2901 -0.2158
 1436TIP3    H128503   6.040   6.976  12.870  1.2427 -0.1106 -0.7480
 1436TIP3    H228504   6.032   6.825  12.871 -0.9468 -0.0247  0.3408
 1437TIP3   OH228505   2.231   0.229  11.083 -0.0448  0.2294  0.1004
 1437TIP3    H128506   2.136   0.229  11.079 -0.0382 -0.3080 -0.1129
 1437TIP3    H228507   2.255   0.140  11.111  0.4384 -0.1232 -1.3490
 1438TIP3   OH228508   6.098   1.718  11.126 -0.4479  0.2100  0.4791
 1438TIP3    H128509   6.110   1.634  11.081 -0.4462 -0.6845  2.0676
 1438TIP3    H228510   6.187   1.751  11.138 -0.4603  0.5439 -0.3307
 1439TIP3   OH228511   0.683   6.466  13.627  0.7756 -0.4350 -0.5732
 1439TIP3    H128512   0.714   6.546  13.586  0.0996  0.5305  0.7446
 1439TIP3    H228513   0.699   6.478  13.720 -0.9239 -1.0958 -0.1619
 1440TIP3   OH228514   1.490   4.679  13.600  0.1257 -0.0999  0.7601
 1440TIP3    H128515   1.409   4.673  13.650 -1.0825 -0.0331 -1.1037
 1440TIP3    H228516   1.518   4.770  13.610 -0.3863  0.0446  0.8988
 1441TIP3   OH228517   5.777   1.183  10.854  0.1868 -0.6664 -0.4353
 1441TIP3    H128518   5.809   1.231  10.778  0.8951 -0.8813 -0.2806
 1441TIP3    H228519   5.772   1.249  10.923  3.3808 -1.1748  0.4282
 1442TIP3   OH228520   6.517   0.576  12.762 -0.4860  0.3121 -0.6321
 1442TIP3    H128521   6.582   0.642  12.737 -0.0885  0.3631  0.4918
 1442TIP3    H228522   6.553   0.494  12.729  0.1355  0.3469 -0.0586
 1443TIP3   OH228523   2.017   5.402  12.842  0.4981 -0.6138 -0.2072
 1443TIP3    H128524   1.922   5.406  12.832  0.3733  0.3427  1.0728
 1443TIP3    H228525   2.031   5.399  12.937  1.7740  0.2018 -0.3403
 1444TIP3   OH228526   0.587   1.029  13.506 -0.2579 -0.6175  0.1225
 1444TIP3    H128527   0.529   0.979  13.448  0.1981  0.1690 -1.0687
 1444TIP3    H228528   0.557   1.120  13.496 -0.8463 -0.5741  1.9705
 1445TIP3   OH228529   1.135   1.809  13.917 -0.0265  0.0249  0.3181
 1445TIP3    H128530   1.068   1.877  13.925 -0.3461 -0.3659  1.0191
 1445TIP3    H228531   1.114   1.745  13.985  0.3836 -0.6845 -0.1954
 1446TIP3   OH228532   3.818   4.733  13.075 -0.1802  0.7947  0.6533
 1446TIP3    H128533   3.852   4.814  13.114 -0.7208  1.2369  0.2329
 1446TIP3    H228534   3.733   4.758  13.039 -0.2469  0.0930  0.3071
 1447TIP3   OH228535   5.002   5.926  13.151 -0.1490  0.0716 -0.3371
 1447TIP3    H128536   4.940   5.853  13.145 -0.3826  0.0518  1.6315
 1447TIP3    H228537   4.948   6.002  13.174  0.2285  0.6694 -1.3382
 1448TIP3   OH228538   5.457   5.682  12.741 -0.2173 -0.2802 -0.2806
 1448TIP3    H128539   5.427   5.630  12.815  0.1331  0.9995  0.7909
 1448TIP3    H228540   5.536   5.638  12.711  0.7611  0.2649  1.3810
 1449TIP3   OH228541   5.255   1.743  12.874 -0.0568  1.0931 -0.8331
 1449TIP3    H128542   5.186   1.677  12.877 -0.9035  1.9095  2.4024
 1449TIP3    H228543   5.335   1.694  12.854 -1.1810 -0.2456 -2.2721
 1450TIP3   OH228544   1.920   3.426  11.322 -0.1248  0.1055 -0.1398
 1450TIP3    H128545   1.880   3.343  11.348  1.1797 -0.5155 -0.0682
 1450TIP3    H228546   2.013   3.416  11.342  0.4410  0.7525 -2.1741
 1451TIP3   OH228547   7.119   0.367  13.072 -0.2633 -0.2413 -0.0601
 1451TIP3    H128548   7.048   0.303  13.070  0.4428 -1.0488  0.2527
 1451TIP3    H228549   7.198   0.315  13.060  0.2758  0.6555 -0.4639
 1452TIP3   OH228550   3.991   0.809  12.786 -0.0622 -0.0053  0.2670
 1452TIP3    H128551   4.014   0.761  12.866  1.2470 -2.5560 -1.4808
 1452TIP3    H228552   4.074   0.819  12.740 -0.7082  1.8720 -0.5873
 1453TIP3   OH228553   6.782   4.041  11.238 -0.1863 -0.1253  0.4609
 1453TIP3    H128554   6.866   4.087  11.246 -0.8550  0.9681  1.6997
 1453TIP3    H228555   6.747   4.070  11.154 -0.1936  1.0013  0.8278
 1454TIP3   OH228556   7.160   2.510  11.431  0.0359  0.1993  0.0063
 1454TIP3    H128557   7.177   2.572  11.360 -0.5901  0.0080 -0.3180
 1454TIP3    H228558   7.231   2.446  11.424  1.1093  1.2678  0.8038
 1455TIP3   OH228559   6.052   5.275  12.785 -0.7115 -0.3610 -0.2736
 1455TIP3    H128560   6.111   5.248  12.715 -0.1889  0.1374 -0.0268
 1455TIP3    H228561   6.023   5.192  12.824 -1.3287 -0.6585 -1.3235
 1456TIP3   OH228562   7.205   4.538  11.352  0.1508  0.0561  0.1130
 1456TIP3    H128563   7.123   4.510  11.310 -0.5537  1.6962  0.3343
 1456TIP3    H228564   7.242   4.457  11.386 -0.5043 -0.9819 -1.4763
 1457TIP3   OH228565   4.196   4.270  11.869 -0.0056 -0.5304  0.1537
 1457TIP3    H128566   4.143   4.248  11.945  0.7802 -1.8080  0.3559
 1457TIP3    H228567   4.235   4.355  11.891 -2.4347  0.7950 -0.2874
 1458TIP3   OH228568   0.451   0.500  11.874 -0.4620 -0.4199  0.1455
 1458TIP3    H128569   0.536   0.528  11.909 -1.4806 -0.0728  2.5648
 1458TIP3    H228570   0.426   0.426  11.930 -1.8102 -0.4277 -0.4310
 1459TIP3   OH228571   4.583   1.938  12.182  0.0061  0.3833 -0.8853
 1459TIP3    H128572   4.600   1.969  12.270  1.6941  1.7552 -1.6357
 1459TIP3    H228573   4.513   1.873  12.192  0.7278 -0.0990  1.5287
 1460TIP3   OH228574   1.013   7.634  12.868 -0.1301 -0.0221 -0.2407
 1460TIP3    H128575   0.980   7.718  12.835  1.0190  0.6616  0.2751
 1460TIP3    H228576   1.009   7.643  12.963  0.6396 -0.2773 -0.1790
 1461TIP3   OH228577   2.989   6.272  12.853 -0.0517  0.2493 -0.2005
 1461TIP3    H128578   2.971   6.245  12.763  0.8377 -0.4915 -0.1701
 1461TIP3    H228579   3.038   6.354  12.843  1.3276 -0.5743 -0.4654
 1462TIP3   OH228580   0.600   3.178  11.043  0.4041  0.3374 -0.0544
 1462TIP3    H128581   0.657   3.177  10.965  1.3904  2.2404  0.5615
 1462TIP3    H228582   0.534   3.244  11.022 -0.4930 -0.5351 -0.0181
 1463TIP3   OH228583   7.646   2.138  11.958  0.5814  0.4344  0.0650
 1463TIP3    H128584   7.667   2.065  12.016  1.0758  0.6488  0.1547
 1463TIP3    H228585   7.578   2.103  11.900 -0.3022  0.3753  1.1000
 1464TIP3   OH228586   5.642   3.353  12.051 -0.4424  0.2906 -0.1168
 1464TIP3    H128587   5.617   3.318  12.136 -0.9700  0.6291 -0.1234
 1464TIP3    H228588   5.649   3.447  12.065 -0.1731  0.3076 -0.3613
 1465TIP3   OH228589   7.101   5.875  11.174  0.0604  0.5700  0.4366
 1465TIP3    H128590   7.191   5.869  11.144  0.7768  0.3674  2.4414
 1465TIP3    H228591   7.089   5.799  11.232 -2.4315 -1.2035 -2.1244
 1466TIP3   OH228592   7.466   4.438  12.183  0.2547 -0.1757  0.3142
 1466TIP3    H128593   7.556   4.437  12.150  0.0040  1.7162 -0.5027
 1466TIP3    H228594   7.468   4.501  12.255 -0.5212  0.1911  0.0111
 1467TIP3   OH228595   1.912   7.386  12.424 -0.0849 -0.2482 -1.1834
 1467TIP3    H128596   1.971   7.445  12.377 -2.3309  1.7108 -1.7612
 1467TIP3    H228597   1.912   7.420  12.514  2.3654 -2.5239 -0.1910
 1468TIP3   OH228598   2.004   5.728  12.197 -0.0673  0.7827 -0.3604
 1468TIP3    H128599   2.077   5.757  12.142  0.1410  0.6349 -0.1640
 1468TIP3    H228600   2.006   5.633  12.191 -1.4160  0.8015 -1.8694
 1469TIP3   OH228601   1.640   5.630  13.416 -0.1740  0.5351  0.0664
 1469TIP3    H128602   1.718   5.632  13.472  0.6032 -1.2248 -0.8880
 1469TIP3    H228603   1.584   5.562  13.455  0.9194 -1.6074 -1.8822
 1470TIP3   OH228604   0.509   6.982  11.206  0.7954  0.2220  0.0547
 1470TIP3    H128605   0.429   7.035  11.203 -0.3715 -1.5067 -1.3166
 1470TIP3    H228606   0.485   6.907  11.261  1.8357  0.1843  0.4797
 1471TIP3   OH228607   5.679   5.220  13.095  0.0067 -0.2008 -0.0442
 1471TIP3    H128608   5.701   5.190  13.007  2.6752  0.2508  0.3863
 1471TIP3    H228609   5.661   5.314  13.084  0.2906 -0.1545 -0.1452
 1472TIP3   OH228610   0.794   4.785  11.795  0.1325 -0.0168 -0.4407
 1472TIP3    H128611   0.798   4.879  11.810 -0.4572  0.1171 -1.0741
 1472TIP3    H228612   0.734   4.775  11.721 -0.0390 -0.9090 -0.1928
 1473TIP3   OH228613   4.323   3.799  12.769 -0.5798  0.0509  0.5066
 1473TIP3    H128614   4.397   3.860  12.765  1.1287 -1.9705 -0.5245
 1473TIP3    H228615   4.250   3.848  12.731  1.2677  0.8044 -2.3652
 1474TIP3   OH228616   7.603   3.884  12.238 -0.0657  0.3122 -0.7275
 1474TIP3    H128617   7.516   3.846  12.248 -0.3536  1.2913  0.7090
 1474TIP3    H228618   7.588   3.977  12.226  0.7894  0.5265 -0.2079
 1475TIP3   OH228619   5.554   7.539  13.261 -0.9778 -0.7732  0.3053
 1475TIP3    H128620   5.544   7.471  13.328 -2.8487 -1.6456 -0.7665
 1475TIP3    H228621   5.545   7.492  13.178  0.3415  0.4215 -0.5634
 1476TIP3   OH228622   4.345   0.852  12.975 -0.5565 -0.2351 -0.0916
 1476TIP3    H128623   4.255   0.870  13.000 -1.5926 -2.8484 -1.6042
 1476TIP3    H228624   4.367   0.771  13.019  0.3398 -0.6770 -1.3049
 1477TIP3   OH228625   2.183   3.377  11.377  0.1718 -0.3068 -0.5126
 1477TIP3    H128626   2.274   3.350  11.366  0.2291 -1.5539  2.2619
 1477TIP3    H228627   2.187   3.471  11.389  1.4798 -0.6159  2.1690
 1478TIP3   OH228628   2.656   6.827  12.645 -0.7422 -0.5897 -0.1777
 1478TIP3    H128629   2.650   6.896  12.579  0.1241 -0.9070 -0.6005
 1478TIP3    H228630   2.679   6.874  12.726 -2.3704 -0.1360  0.0484
 1479TIP3   OH228631   3.405   6.939  12.944 -0.0741 -0.4925 -0.6327
 1479TIP3    H128632   3.374   6.864  12.894  0.7983 -0.0148 -1.9722
 1479TIP3    H228633   3.332   7.001  12.943  0.0487 -0.3486 -1.6609
 1480TIP3   OH228634   3.508   1.736  12.519  0.8797 -0.0377 -0.4139
 1480TIP3    H128635   3.566   1.702  12.587  1.9212  1.2461 -0.6176
 1480TIP3    H228636   3.484   1.659  12.467 -1.6113 -1.4217  2.5086
 1481TIP3   OH228637   2.597   2.231  13.061  0.4352 -0.1727 -0.0391
 1481TIP3    H128638   2.629   2.309  13.015 -1.0588  1.2189  1.1816
 1481TIP3    H228639   2.646   2.229  13.143 -0.6925  0.4467  0.6607
 1482TIP3   OH228640   6.655   3.419  11.085 -0.1141 -0.1189  0.4297
 1482TIP3    H128641   6.616   3.436  10.999  1.0184 -2.1390 -0.5459
 1482TIP3    H228642   6.582   3.394  11.141 -0.4812 -2.7837 -1.0827
 1483TIP3   OH228643   2.740   5.320  13.247  0.0611  0.5656 -0.5471
 1483TIP3    H128644   2.793   5.333  13.325  0.2869  1.1275 -0.7933
 1483TIP3    H228645   2.795   5.350  13.174 -0.4984  0.9395 -0.8271
 1484TIP3   OH228646   7.330   0.867  12.067 -0.6133  0.0550  0.2113
 1484TIP3    H128647   7.364   0.823  12.145  0.9736  1.3453  0.3056
 1484TIP3    H228648   7.254   0.916  12.099 -0.2763  0.1691  0.8682
 1485TIP3   OH228649   6.154   7.597  13.521  0.0587 -0.0372 -0.0413
 1485TIP3    H128650   6.065   7.625  13.543  0.1261  1.5124 -1.5536
 1485TIP3    H228651   6.157   7.601  13.425  2.1412  1.2215  0.0164
 1486TIP3   OH228652   5.271   1.814  13.294 -0.2370  0.5804  0.4526
 1486TIP3    H128653   5.270   1.744  13.228  1.6045 -0.0119  0.9954
 1486TIP3    H228654   5.328   1.881  13.256 -2.6094  2.2141 -0.4095
 1487TIP3   OH228655   5.240   3.690  12.904 -0.3451  0.3575  0.2297
 1487TIP3    H128656   5.320   3.728  12.866 -0.1378 -1.0663 -0.8517
 1487TIP3    H228657   5.250   3.595  12.890 -2.6106  0.2103 -0.7150
 1488TIP3   OH228658   3.364   6.290  12.939 -0.3572 -0.0876  0.2929
 1488TIP3    H128659   3.429   6.275  12.870 -0.5987  0.3421 -0.0364
 1488TIP3    H228660   3.284   6.250  12.904 -0.6697  0.7811 -0.0109
 1489TIP3   OH228661   5.888   7.555  11.694 -0.8548  0.1242 -0.0591
 1489TIP3    H128662   5.835   7.628  11.725  0.0364  0.7042  0.1323
 1489TIP3    H228663   5.849   7.532  11.609 -0.9138  1.0633 -0.2954
 1490TIP3   OH228664   0.814   6.260  11.435  0.1015 -0.5758 -0.5392
 1490TIP3    H128665   0.794   6.314  11.512  0.4696 -0.9829 -0.1516
 1490TIP3    H228666   0.861   6.320  11.376  0.5406 -0.4707 -0.0959
 1491TIP3   OH228667   7.112   2.543  10.697 -0.7977 -0.3707  0.2022
 1491TIP3    H128668   7.193   2.593  10.683 -0.5879 -0.5716  0.6816
 1491TIP3    H228669   7.042   2.605  10.675 -0.5398  0.1602  0.8396
 1492TIP3   OH228670   0.297   3.556  13.553 -0.0194  0.3262 -0.1757
 1492TIP3    H128671   0.309   3.472  13.509  1.0305 -0.5885  1.7278
 1492TIP3    H228672   0.375   3.606  13.532  0.7318 -0.3102  0.9970
 1493TIP3   OH228673   1.094   1.693  11.404 -0.2993  0.0933 -0.6791
 1493TIP3    H128674   1.119   1.627  11.340  1.5934 -0.1599  0.2355
 1493TIP3    H228675   1.087   1.645  11.487  1.6521  1.0334  0.1116
 1494TIP3   OH228676   1.734   3.999  13.274  0.6575  0.4209 -0.4209
 1494TIP3    H128677   1.727   4.006  13.369 -2.1377 -1.8029 -0.3247
 1494TIP3    H228678   1.646   4.018  13.242  0.9623 -1.0570 -2.3220
 1495TIP3   OH228679   3.337   1.427  13.378  0.5103  0.3398  0.2345
 1495TIP3    H128680   3.378   1.513  13.373  1.9894 -0.3459  0.1530
 1495TIP3    H228681   3.306   1.421  13.469 -2.4819  2.1674 -0.5111
 1496TIP3   OH228682   7.555   6.325  13.625  0.1140  0.1098  0.4649
 1496TIP3    H128683   7.589   6.259  13.686  0.4736  0.2893  0.4607
 1496TIP3    H228684   7.633   6.362  13.584 -0.0208  1.1311  1.0910
 1497TIP3   OH228685   7.143   2.359  13.405 -0.2374  0.2740  0.1468
 1497TIP3    H128686   7.148   2.423  13.475 -2.6287 -1.2377  1.8852
 1497TIP3    H228687   7.228   2.315  13.406  0.0167  0.7491  1.6493
 1498TIP3   OH228688   5.454   4.895  12.908  0.2132  0.4309 -0.0036
 1498TIP3    H128689   5.426   4.830  12.844  0.6388 -0.5989  0.8178
 1498TIP3    H228690   5.549   4.903  12.893  0.5704 -0.8403  1.3516
 1499TIP3   OH228691   2.675   4.588  12.010  0.4317 -0.5853  0.2090
 1499TIP3    H128692   2.649   4.533  11.936 -0.5697  0.7926 -0.5097
 1499TIP3    H228693   2.771   4.586  12.009  0.4187 -1.3606 -0.5162
 1500TIP3   OH228694   5.563   3.552  12.271  0.0234 -0.6872  0.1602
 1500TIP3    H128695   5.499   3.554  12.200 -0.5217 -1.7962  0.6015
 1500TIP3    H228696   5.638   3.600  12.237 -1.1067  0.8392 -0.2905
 1501TIP3   OH228697   7.123   1.188  12.650 -0.6509  0.4618 -0.0133
 1501TIP3    H128698   7.053   1.193  12.715 -0.4923  0.0540  0.1957
 1501TIP3    H228699   7.084   1.222  12.570 -0.7130  1.3698  0.3981
 1502TIP3   OH228700   3.333   1.422  12.485 -0.3457  0.0214  0.2776
 1502TIP3    H128701   3.371   1.483  12.422  0.6686 -0.1910  0.6557
 1502TIP3    H228702   3.335   1.337  12.441 -0.8804  0.0948  0.1043
 1503TIP3   OH228703   1.940   4.157  13.603  0.3167 -0.3680  0.0652
 1503TIP3    H128704   1.964   4.107  13.525  0.6593  0.2257 -0.2115
 1503TIP3    H228705   1.846   4.172  13.593  0.5280  0.4864 -0.6865
 1504TIP3   OH228706   1.014   4.586  11.442  0.6520  0.0090 -0.2345
 1504TIP3    H128707   1.031   4.663  11.497 -0.6209 -0.8057  1.4001
 1504TIP3    H228708   1.096   4.573  11.394  2.3779  0.0290  2.4532
 1505TIP3   OH228709   0.138   0.417  11.274 -0.4290 -0.1740 -0.5027
 1505TIP3    H128710   0.145   0.436  11.181 -0.8337 -0.2159 -0.5434
 1505TIP3    H228711   0.092   0.333  11.279 -1.6163  0.4559 -0.2439
 1506TIP3   OH228712   1.995   4.596  12.646 -0.2949  0.5755 -0.3416
 1506TIP3    H128713   1.970   4.512  12.608  0.1001  1.4792 -2.7513
 1506TIP3    H228714   2.077   4.577  12.691 -1.6157 -0.8858  1.6567
 1507TIP3   OH228715   6.350   3.073  13.554 -0.1444  0.0365 -0.4790
 1507TIP3    H128716   6.308   3.081  13.469 -0.5335  0.1110 -0.2856
 1507TIP3    H228717   6.278   3.079  13.617  0.1565  0.1535 -0.1396
 1508TIP3   OH228718   4.008   5.875  12.979  0.0474 -0.1103 -0.1522
 1508TIP3    H128719   4.006   5.853  12.886 -1.7674  0.1372 -0.2167
 1508TIP3    H228720   4.095   5.912  12.994  0.8749 -1.4616 -1.4197
 1509TIP3   OH228721   2.372   1.556  12.572 -0.0541 -0.4337  0.0597
 1509TIP3    H128722   2.414   1.580  12.654 -1.4983  0.8260  0.4738
 1509TIP3    H228723   2.355   1.462  12.580  0.4038 -0.4502  0.9183
 1510TIP3   OH228724   5.138   5.113  13.524 -0.3662 -0.0842  0.1427
 1510TIP3    H128725   5.213   5.058  13.503 -0.0746  0.3497  0.0463
 1510TIP3    H228726   5.100   5.136  13.439 -0.9773 -0.8024  0.2081
 1511TIP3   OH228727   4.627   0.635  12.129  0.3451  0.4082  0.3436
 1511TIP3    H128728   4.684   0.622  12.053 -3.2095 -1.5259 -2.3514
 1511TIP3    H228729   4.656   0.569  12.192  1.2875 -0.3361 -0.8159
 1512TIP3   OH228730   1.121   2.465  11.086 -0.0969 -0.1320 -0.2702
 1512TIP3    H128731   1.050   2.471  11.022  0.4021  0.3812 -0.7816
 1512TIP3    H228732   1.151   2.374  11.081 -1.3251 -0.6201  0.6270
 1513TIP3   OH228733   3.369   6.191  12.015  0.0683 -0.2456  0.1271
 1513TIP3    H128734   3.319   6.122  11.973  0.2693 -0.6349  0.5222
 1513TIP3    H228735   3.342   6.189  12.106 -0.0936  0.3515  0.0983
 1514TIP3   OH228736   5.407   5.209  11.749  0.6924  0.0086  0.1379
 1514TIP3    H128737   5.342   5.139  11.746 -0.5401  1.0083  1.8994
 1514TIP3    H228738   5.449   5.200  11.835  0.1966  1.6584  0.5880
 1515TIP3   OH228739   2.333   0.227  12.789  0.3190  0.1546 -0.2217
 1515TIP3    H128740   2.382   0.233  12.707  1.9246 -0.6233  0.6445
 1515TIP3    H228741   2.313   0.134  12.799  1.0156  0.0897  0.7342
 1516TIP3   OH228742   5.197   1.432  11.422 -0.2310 -0.2371  0.6106
 1516TIP3    H128743   5.195   1.489  11.346  0.2197  1.3028  1.7177
 1516TIP3    H228744   5.223   1.347  11.387  0.8735  0.6533 -0.8216
 1517TIP3   OH228745   7.200   0.772  13.257 -0.1475  0.4658 -0.1764
 1517TIP3    H128746   7.232   0.860  13.240 -1.8995  1.2951  0.5551
 1517TIP3    H228747   7.240   0.748  13.341 -0.1159  0.8039 -0.0913
 1518TIP3   OH228748   7.501   1.114  12.108 -0.1492 -0.0997 -0.1167
 1518TIP3    H128749   7.430   1.168  12.144  0.6038  1.5968 -1.0532
 1518TIP3    H228750   7.459   1.031  12.087 -1.0127 -0.5181  2.8365
 1519TIP3   OH228751   2.827   1.804  11.873  0.4889 -0.1607 -0.1270
 1519TIP3    H128752   2.893   1.861  11.913 -0.2879 -0.4331  1.6250
 1519TIP3    H228753   2.877   1.737  11.827  1.4250  1.5249 -1.7114
 1520TIP3   OH228754   7.056   7.294  11.369  0.3138  0.0465  0.0144
 1520TIP3    H128755   6.993   7.222  11.368  0.6147 -0.2440  0.8676
 1520TIP3    H228756   7.003   7.373  11.362 -0.3495 -0.0897  2.6141
 1521TIP3   OH228757   3.076   1.377  12.405 -0.1222 -0.2336  0.2322
 1521TIP3    H128758   3.158   1.362  12.452  0.3309  0.8434 -0.2011
 1521TIP3    H228759   3.053   1.291  12.368 -0.4588 -1.1081  2.3201
 1522TIP3   OH228760   4.454   6.348  12.839 -0.1303  0.7627 -0.0200
 1522TIP3    H128761   4.411   6.267  12.865 -0.7554  1.2976  0.6791
 1522TIP3    H228762   4.459   6.399  12.920  0.4307  1.3440 -0.4115
 1523TIP3   OH228763   6.952   2.575  12.455 -0.1445  0.1352  0.6594
 1523TIP3    H128764   7.031   2.548  12.503  0.7420 -0.9748 -1.3139
 1523TIP3    H228765   6.984   2.640  12.392 -1.0361  0.5336  0.5995
 1524TIP3   OH228766   0.620   0.135  12.468  0.0853 -0.4255 -0.2768
 1524TIP3    H128767   0.700   0.184  12.488 -1.0756  0.5027  2.5322
 1524TIP3    H228768   0.645   0.043  12.478  1.3541 -0.2996 -1.8749
 1525TIP3   OH228769   0.077   1.816  13.334 -0.5568 -0.0221  0.4735
 1525TIP3    H128770   0.130   1.878  13.384  1.0582 -0.3156 -0.7507
 1525TIP3    H228771   0.038   1.758  13.399  1.2408 -0.2233  1.4297
 1526TIP3   OH228772   5.167   4.727  11.360 -0.0665  0.0947  0.8008
 1526TIP3    H128773   5.093   4.786  11.348  0.2451  0.3293  0.0102
 1526TIP3    H228774   5.133   4.640  11.339 -0.8184 -0.2113  2.9881
 1527TIP3   OH228775   0.767   0.843  12.816  0.7239 -0.0674  0.1305
 1527TIP3    H128776   0.830   0.778  12.848  0.7952 -0.8525 -1.5002
 1527TIP3    H228777   0.683   0.817  12.855  1.3882  1.2372  2.6660
 1528TIP3   OH228778   0.502   2.587  11.885  0.4191  0.0351 -0.2954
 1528TIP3    H128779   0.481   2.526  11.956  1.0935  0.2627  0.1128
 1528TIP3    H228780   0.598   2.590  11.884  0.3992  1.1081 -0.2847
 1529TIP3   OH228781   2.431   1.714  13.088 -0.3845 -0.1007  0.5938
 1529TIP3    H128782   2.346   1.759  13.087  0.5567  1.8273 -1.2310
 1529TIP3    H228783   2.493   1.782  13.115  0.6144 -1.5117  2.0273
 1530TIP3   OH228784   0.327   2.861  12.023 -0.3645  0.1001 -0.2607
 1530TIP3    H128785   0.336   2.887  11.931 -0.4133  1.6841  0.1415
 1530TIP3    H228786   0.244   2.899  12.051 -1.0344 -1.5574  0.0891
 1531TIP3   OH228787   7.395   3.373  13.241 -0.0719  0.1020 -0.0437
 1531TIP3    H128788   7.301   3.388  13.229  0.1261  1.4455 -0.0727
 1531TIP3    H228789   7.425   3.342  13.156 -0.4022  0.2171 -0.2062
 1532TIP3   OH228790   1.918   1.075  12.563 -0.0174  1.2218 -0.4956
 1532TIP3    H128791   1.901   0.981  12.573 -1.3872  1.5056  0.0888
 1532TIP3    H228792   1.897   1.093  12.472  2.2492  0.6093 -1.2037
 1533TIP3   OH228793   1.578   3.446  12.056 -0.1000  0.0922 -0.1235
 1533TIP3    H128794   1.605   3.423  11.967  0.4786 -1.0381  0.3259
 1533TIP3    H228795   1.610   3.536  12.068  0.6988 -0.0996 -0.7121
 1534TIP3   OH228796   6.276   0.169  13.419  0.1007 -0.2936 -0.4571
 1534TIP3    H128797   6.231   0.222  13.353 -1.0189 -0.6293  0.0280
 1534TIP3    H228798   6.271   0.080  13.386  1.3437 -0.2281 -0.9049
 1535TIP3   OH228799   6.866   1.000  13.279 -0.1277 -0.6721  0.5248
 1535TIP3    H128800   6.827   1.041  13.356 -1.4494 -1.4690  0.3031
 1535TIP3    H228801   6.796   0.997  13.214  0.6935 -0.8924 -0.3844
 1536TIP3   OH228802   0.408   2.405  12.066 -0.2700 -0.0964  0.3708
 1536TIP3    H128803   0.466   2.353  12.121 -0.7096  0.4639  1.4056
 1536TIP3    H228804   0.360   2.341  12.015  0.3323 -0.6246  0.4573
 1537TIP3   OH228805   5.999   1.044  12.954 -0.0396  0.0190  0.4302
 1537TIP3    H128806   6.059   0.973  12.978 -0.7454 -0.5864  0.4321
 1537TIP3    H228807   6.021   1.064  12.864 -0.0744 -0.4518  0.3147
 1538TIP3   OH228808   3.298   1.065  13.008 -0.3372 -0.3508 -0.3814
 1538TIP3    H128809   3.221   1.113  12.979 -0.0368  0.0871 -0.4708
 1538TIP3    H228810   3.314   1.096  13.097 -0.4229 -0.6373 -0.2667
 1539TIP3   OH228811   3.118   1.319  11.505  0.0219 -0.0738  0.1393
 1539TIP3    H128812   3.149   1.328  11.415  0.1445 -0.0946  0.1793
 1539TIP3    H228813   3.096   1.409  11.531 -1.4225 -0.2449 -0.4084
 1540TIP3   OH228814   0.493   4.442  12.385  0.6711  0.6074  0.0787
 1540TIP3    H128815   0.424   4.469  12.326 -0.7813 -2.1987  0.3107
 1540TIP3    H228816   0.493   4.507  12.455 -0.9385  1.2804 -0.5154
 1541TIP3   OH228817   6.996   6.120  13.296 -0.1499 -0.5774  0.0694
 1541TIP3    H128818   7.062   6.151  13.357 -0.1367 -0.7541  0.1457
 1541TIP3    H228819   7.029   6.036  13.265 -0.0673 -0.4024 -0.3215
 1542TIP3   OH228820   3.027   5.595  13.027  0.4997  0.2387 -0.4600
 1542TIP3    H128821   3.091   5.645  13.077  1.4610 -0.6270 -0.8083
 1542TIP3    H228822   2.950   5.652  13.025  1.0160  1.0183  0.5198
 1543TIP3   OH228823   0.496   0.505  12.768  0.4166  0.1386 -0.5092
 1543TIP3    H128824   0.499   0.546  12.682 -1.2667 -3.5974 -2.5859
 1543TIP3    H228825   0.402   0.504  12.790  0.5306 -1.3311  0.0291
 1544TIP3   OH228826   7.493   6.226  13.269  0.2294  0.0111 -0.3607
 1544TIP3    H128827   7.467   6.311  13.236 -0.7907  0.3884  1.2903
 1544TIP3    H228828   7.568   6.201  13.215  0.6362  2.0040 -0.7888
 1545TIP3   OH228829   4.015   3.406  12.110  0.2396  0.5637  0.3678
 1545TIP3    H128830   4.010   3.485  12.055 -2.2811  0.7599  0.7373
 1545TIP3    H228831   4.100   3.412  12.153  0.7179  2.3324 -0.7146
 1546TIP3   OH228832   5.633   0.630  13.239  0.0080  0.1027 -0.6240
 1546TIP3    H128833   5.621   0.554  13.297 -0.5263  1.2320  0.7956
 1546TIP3    H228834   5.583   0.607  13.161 -2.7530  0.1622  0.9588
 1547TIP3   OH228835   1.442   2.920  12.945  0.6792  0.3707 -0.5671
 1547TIP3    H128836   1.392   2.991  12.986  1.4260  0.5344  0.0895
 1547TIP3    H228837   1.415   2.922  12.853 -2.9152 -1.5673  0.2350
 1548TIP3   OH228838   2.361   7.439  12.935  0.1415  0.1383 -0.1947
 1548TIP3    H128839   2.422   7.512  12.949 -0.1919  0.5570 -0.8359
 1548TIP3    H228840   2.416   7.361  12.940  0.2609  0.2953  2.0389
 1549TIP3   OH228841   3.930   6.111  12.278 -0.3864  0.6200 -0.1039
 1549TIP3    H128842   3.915   6.080  12.367 -2.0669 -0.7113 -0.8006
 1549TIP3    H228843   4.018   6.080  12.256 -0.7328 -0.8144  0.4188
 1550TIP3   OH228844   5.375   6.699  10.733  0.3976 -0.2527 -0.3997
 1550TIP3    H128845   5.359   6.605  10.729  0.6905 -0.2712 -1.4432
 1550TIP3    H228846   5.339   6.734  10.651  1.4043  0.3538 -0.6101
 1551TIP3   OH228847   0.116   6.633  11.504  0.0571 -0.4514  0.3112
 1551TIP3    H128848   0.114   6.635  11.600 -0.7699  1.4462  0.2986
 1551TIP3    H228849   0.031   6.667  11.478  0.1489 -1.2467 -1.1265
 1552TIP3   OH228850   3.416   5.019  11.278 -0.0587 -0.5532  0.0617
 1552TIP3    H128851   3.349   4.970  11.229 -0.7741 -0.2076  0.6676
 1552TIP3    H228852   3.371   5.049  11.357 -0.5113  3.3463 -1.4308
 1553TIP3   OH228853   0.064   5.104  12.101  0.2245 -0.4198 -0.5214
 1553TIP3    H128854   0.039   5.151  12.022 -0.7986 -0.2112 -0.0775
 1553TIP3    H228855   0.069   5.171  12.169  1.1987 -0.5813 -0.4167
 1554TIP3   OH228856   0.088   1.520  12.123 -0.3488  0.0446 -0.3708
 1554TIP3    H128857   0.110   1.598  12.071 -1.4156 -0.5069 -1.7004
 1554TIP3    H228858   0.015   1.480  12.076  0.8954 -2.3982 -0.3630
 1555TIP3   OH228859   5.306   5.968  10.906  0.1668  0.3763  0.9697
 1555TIP3    H128860   5.317   5.909  10.981  0.0569  0.1943  0.8437
 1555TIP3    H228861   5.233   6.025  10.931 -2.0517 -1.7226 -0.2623
 1556TIP3   OH228862   2.466   6.489  11.677 -0.0416  0.0571  0.0664
 1556TIP3    H128863   2.512   6.570  11.657 -0.8279  0.3644 -0.5895
 1556TIP3    H228864   2.428   6.504  11.763 -1.0474  0.8143 -0.4802
 1557TIP3   OH228865   0.870   2.625  13.087  0.1720  0.1477  0.5010
 1557TIP3    H128866   0.926   2.647  13.013 -0.8708  1.4610  0.0652
 1557TIP3    H228867   0.804   2.694  13.089 -2.0815 -1.8666  0.3596
 1558TIP3   OH228868   6.697   0.881  12.125  0.0601  0.3329  0.4839
 1558TIP3    H128869   6.663   0.970  12.115 -2.6122 -0.6136  0.5580
 1558TIP3    H228870   6.790   0.889  12.102 -0.7431  2.5492 -2.7107
 1559TIP3   OH228871   0.177   1.597  11.597  0.7132  0.2268 -0.0313
 1559TIP3    H128872   0.084   1.585  11.582  0.5655  0.9170  0.3055
 1559TIP3    H228873   0.219   1.560  11.519  0.1038  0.9454 -0.7083
 1560TIP3   OH228874   1.150   2.584  12.608  0.1724 -0.1232  0.4346
 1560TIP3    H128875   1.076   2.534  12.574  0.9989  0.1693 -1.9849
 1560TIP3    H228876   1.221   2.519  12.615  0.0987 -0.1192  1.4257
 1561TIP3   OH228877   4.024   5.391  13.069 -0.4090 -0.4563  0.3038
 1561TIP3    H128878   4.003   5.462  13.130  1.4044  0.4578 -0.0756
 1561TIP3    H228879   4.038   5.434  12.985  0.2894 -1.3087 -0.0323
 1562TIP3   OH228880   0.727   1.107  11.834 -0.0668  0.6534  0.0823
 1562TIP3    H128881   0.695   1.038  11.776  0.5511  1.5712 -1.4253
 1562TIP3    H228882   0.659   1.116  11.901 -0.8574 -0.3793 -0.5574
 1563TIP3   OH228883   3.157   1.334  11.241  0.4072  0.2929 -0.0965
 1563TIP3    H128884   3.137   1.303  11.153  1.1635  1.5620 -0.7515
 1563TIP3    H228885   3.150   1.430  11.235  0.4094  0.3998  1.2441
 1564TIP3   OH228886   5.184   5.942  11.817  0.1492 -0.3007 -0.3488
 1564TIP3    H128887   5.096   5.966  11.846 -0.2630 -1.0277 -0.9718
 1564TIP3    H228888   5.220   5.893  11.891  0.4625  0.9441  0.3528
 1565TIP3   OH228889   7.646   6.125  10.754 -0.6433  0.1341 -0.1415
 1565TIP3    H128890   7.707   6.192  10.720 -1.8013  1.1141 -0.3734
 1565TIP3    H228891   7.594   6.100  10.678 -0.7850 -0.4125  0.1334
 1566TIP3   OH228892   6.829   0.187  12.301  0.0332 -0.1560 -0.0421
 1566TIP3    H128893   6.874   0.189  12.386  1.3669 -0.3727 -0.7203
 1566TIP3    H228894   6.841   0.275  12.266 -2.3377  0.5915  0.8739
 1567TIP3   OH228895   2.294   4.201  11.821  0.3144  0.5844 -0.0111
 1567TIP3    H128896   2.245   4.122  11.845 -0.2801  0.4992 -1.4227
 1567TIP3    H228897   2.230   4.256  11.777  0.7422  1.8498  0.9134
 1568TIP3   OH228898   3.248   0.877  11.264 -0.3783 -0.0024 -0.2109
 1568TIP3    H128899   3.206   0.936  11.327  2.4249 -0.3571  2.2361
 1568TIP3    H228900   3.297   0.936  11.206 -0.8337  0.2438 -0.3435
 1569TIP3   OH228901   3.049   7.418  12.509 -0.1946 -0.1714 -0.5525
 1569TIP3    H128902   3.088   7.335  12.480 -0.4800 -0.3064 -0.5515
 1569TIP3    H228903   3.053   7.475  12.432 -0.3475 -0.3122 -0.6648
 1570TIP3   OH228904   0.432   5.962  13.410 -0.3590  0.6102  0.1731
 1570TIP3    H128905   0.341   5.937  13.393 -0.4573  1.2363 -0.2673
 1570TIP3    H228906   0.482   5.882  13.396 -0.8611  0.1968  0.6492
 1571TIP3   OH228907   0.460   7.643  13.934 -0.3930 -0.4851  0.1506
 1571TIP3    H128908   0.534   7.593  13.899  0.6231  0.7375  0.5200
 1571TIP3    H228909   0.475   7.646  14.028 -0.9344 -0.2525  0.2328
 1572TIP3   OH228910   4.246   6.813  13.060  0.0019  0.6808 -0.0957
 1572TIP3    H128911   4.315   6.772  13.113  0.0777 -1.2484 -1.5637
 1572TIP3    H228912   4.267   6.906  13.061  1.6260  0.3511  0.8978
 1573TIP3   OH228913   0.637   7.636  12.862  0.2342  0.0960  0.3166
 1573TIP3    H128914   0.552   7.639  12.906  0.9394  1.5693  1.7082
 1573TIP3    H228915   0.635   7.712  12.803  0.8036  0.5528  0.8638
 1574TIP3   OH228916   6.036   3.265  13.336  0.0153 -0.6845  0.4833
 1574TIP3    H128917   6.046   3.173  13.312  0.0061 -0.2891 -1.1735
 1574TIP3    H228918   6.124   3.292  13.363  0.4568 -0.7393 -0.8067
 1575TIP3   OH228919   2.465   6.033  12.537 -0.0059  0.2027  0.0481
 1575TIP3    H128920   2.502   5.983  12.465 -0.4856  3.1282 -2.4068
 1575TIP3    H228921   2.524   6.107  12.548 -2.0347  1.9146 -0.0623
 1576TIP3   OH228922   4.442   1.834  13.168 -0.5024 -0.0879 -0.3849
 1576TIP3    H128923   4.527   1.877  13.174 -0.9821  0.8060  0.2608
 1576TIP3    H228924   4.462   1.741  13.155  0.5717  0.0710  0.0754
 1577TIP3   OH228925   4.476   3.175  11.734 -1.0714 -0.4518 -0.0296
 1577TIP3    H128926   4.545   3.233  11.764 -0.9366  0.0069 -1.1705
 1577TIP3    H228927   4.395   3.216  11.763 -1.2090  2.0147 -3.3167
 1578TIP3   OH228928   4.194   4.205  12.858  0.4964  0.2759 -0.4330
 1578TIP3    H128929   4.120   4.175  12.910  0.2861 -1.2036 -1.5170
 1578TIP3    H228930   4.185   4.158  12.775  2.4369  0.3671 -0.7341
 1579TIP3   OH228931   1.322   4.614  12.683 -1.2362 -0.2806 -0.4527
 1579TIP3    H128932   1.228   4.597  12.693 -0.8282 -2.5715 -0.0164
 1579TIP3    H228933   1.364   4.531  12.704  0.9987  1.0165  0.5515
 1580TIP3   OH228934   4.097   5.628  12.032 -0.1457 -0.3617 -0.0112
 1580TIP3    H128935   4.136   5.604  11.949 -0.3420 -0.5544 -0.0476
 1580TIP3    H228936   4.162   5.685  12.074 -0.9111  1.5061 -1.2132
 1581TIP3   OH228937   0.395   4.623  11.133  0.6847  0.5182 -0.0150
 1581TIP3    H128938   0.476   4.643  11.086  0.2237  3.2098  0.1846
 1581TIP3    H228939   0.372   4.705  11.177 -1.7445 -0.4048  0.5886
 1582TIP3   OH228940   6.456   0.411  13.084 -0.0759 -0.3791 -0.2378
 1582TIP3    H128941   6.460   0.452  13.170  1.5657  0.8691 -0.8591
 1582TIP3    H228942   6.422   0.479  13.026  1.4658 -0.2529 -1.0472
 1583TIP3   OH228943   4.492   1.090  12.526 -0.1852 -0.3560 -0.8162
 1583TIP3    H128944   4.399   1.112  12.526  0.0328  0.7311  0.8660
 1583TIP3    H228945   4.508   1.054  12.613  1.4910  2.0225 -0.0434
 1584TIP3   OH228946   0.290   1.712  12.428 -0.1283 -0.1243 -0.4499
 1584TIP3    H128947   0.210   1.734  12.476  0.9894  2.7742  0.2769
 1584TIP3    H228948   0.325   1.636  12.475 -1.7648 -0.6477  0.0027
 1585TIP3   OH228949   6.161   4.339  12.037  0.0224  0.6482  0.6999
 1585TIP3    H128950   6.107   4.407  12.077 -1.7780  0.4711 -1.2782
 1585TIP3    H228951   6.209   4.384  11.967  1.0710  0.4250  1.2496
 1586TIP3   OH228952   2.731   3.296  12.182  0.3349 -0.0087  0.0466
 1586TIP3    H128953   2.706   3.222  12.127 -0.2492  1.4672 -1.7858
 1586TIP3    H228954   2.827   3.293  12.183  0.3147 -0.8399  0.0607
 1587TIP3   OH228955   1.578   0.991  11.718  0.3712 -0.4143 -0.1079
 1587TIP3    H128956   1.635   1.019  11.647  1.3922  0.1766  0.8950
 1587TIP3    H228957   1.566   0.897  11.704  0.5599 -0.3010 -1.0491
 1588TIP3   OH228958   0.753   3.925  10.969  0.2577  0.0208 -0.8767
 1588TIP3    H128959   0.670   3.931  11.016  0.0364 -0.9230 -1.1110
 1588TIP3    H228960   0.739   3.974  10.888  0.0257  0.1005 -0.7887
 1589TIP3   OH228961   3.324   6.178  12.321 -0.2240  0.1435  0.2526
 1589TIP3    H128962   3.361   6.090  12.330  1.1505  0.5291 -1.2220
 1589TIP3    H228963   3.299   6.203  12.410 -1.1136 -1.9086  0.6428
 1590TIP3   OH228964   1.006   7.583  13.155 -0.3106  0.0072 -0.2636
 1590TIP3    H128965   0.933   7.639  13.130 -0.4165 -0.6959 -1.6378
 1590TIP3    H228966   1.023   7.605  13.247 -1.3507  1.1469 -0.3155
 1591TIP3   OH228967   6.640   6.241  11.655 -0.4313 -0.2026  0.3409
 1591TIP3    H128968   6.635   6.248  11.750 -1.8243  0.5722  0.2319
 1591TIP3    H228969   6.551   6.258  11.625 -0.3436 -1.9003 -1.0287
 1592TIP3   OH228970   4.559   6.715  12.989 -0.1582  0.2147 -0.3791
 1592TIP3    H128971   4.502   6.684  12.918  1.6800 -0.1143 -1.7982
 1592TIP3    H228972   4.593   6.799  12.958 -0.6689  0.9207  0.9104
 1593TIP3   OH228973   3.821   2.279  12.028 -0.1957  0.2794 -0.0003
 1593TIP3    H128974   3.772   2.313  12.103 -1.4142 -0.0409 -0.6286
 1593TIP3    H228975   3.811   2.184  12.035  0.3086  0.2101 -0.1710
 1594TIP3   OH228976   7.045   7.244  12.537  0.2266  0.5727  0.1293
 1594TIP3    H128977   6.978   7.212  12.597  0.2334  1.0944  0.4275
 1594TIP3    H228978   6.998   7.299  12.475  0.0451 -0.8991 -1.0768
 1595TIP3   OH228979   2.665   6.343  11.056  0.0355  0.1304  0.0845
 1595TIP3    H128980   2.717   6.264  11.069  0.4804  0.5020  0.6041
 1595TIP3    H228981   2.729   6.411  11.038 -0.2390  0.6389  0.9430
 1596TIP3   OH228982   1.741   5.456  13.721  0.2389 -0.0833 -0.0806
 1596TIP3    H128983   1.811   5.426  13.663  0.0521 -1.5315  0.4171
 1596TIP3    H228984   1.729   5.549  13.698  1.0425 -0.2940 -1.4483
 1597TIP3   OH228985   3.941   6.252  13.482 -0.1686  0.3421 -0.2744
 1597TIP3    H128986   3.881   6.182  13.508  1.8329 -0.7336  1.8533
 1597TIP3    H228987   4.021   6.206  13.454  1.5757  1.6688  2.1505
 1598TIP3   OH228988   6.113   4.360  13.263 -0.2950 -0.0601  0.0322
 1598TIP3    H128989   6.033   4.320  13.231 -0.2569 -0.3305  0.2674
 1598TIP3    H228990   6.158   4.289  13.311  0.5974 -0.2199 -1.0035
 1599TIP3   OH228991   0.902   5.793  13.707 -0.4689  0.0119  0.3984
 1599TIP3    H128992   0.952   5.857  13.757 -1.3146 -0.6214  2.1629
 1599TIP3    H228993   0.966   5.750  13.652  0.8764 -0.4019  2.1845
 1600TIP3   OH228994   6.809   0.296  13.248  0.4436 -0.1707 -0.6445
 1600TIP3    H128995   6.852   0.369  13.292  0.2731  0.3417 -1.3142
 1600TIP3    H228996   6.769   0.246  13.319  1.3973 -0.1729 -0.0899
 1601TIP3   OH228997   0.645   3.255  13.258 -0.1626  0.5846 -0.3426
 1601TIP3    H128998   0.665   3.162  13.244 -2.1964  0.1200 -0.5682
 1601TIP3    H228999   0.725   3.292  13.294  1.5323 -0.7066 -2.5110
 1602TIP3   OH229000   4.762   2.370  12.133  0.3225 -0.1264  0.7200
 1602TIP3    H129001   4.725   2.292  12.092  0.2792 -0.6282  1.6995
 1602TIP3    H229002   4.721   2.374  12.219 -1.1035  2.0268  0.0066
 1603TIP3   OH229003   4.520   6.455  13.389 -0.1242  0.2582  0.6461
 1603TIP3    H129004   4.492   6.500  13.309  0.0448 -0.3225  0.2486
 1603TIP3    H229005   4.529   6.524  13.454  1.4919  0.9966 -0.3013
 1604TIP3   OH229006   1.395   2.031  11.344  0.4819 -0.3150 -0.1911
 1604TIP3    H129007   1.443   1.990  11.415  1.5579 -1.7159 -1.6530
 1604TIP3    H229008   1.385   1.962  11.278 -2.3415  0.3023 -0.5719
 1605TIP3   OH229009   5.905   6.330  12.483 -0.0615  0.5347  0.4345
 1605TIP3    H129010   5.885   6.330  12.389 -1.9460 -2.6269  0.6604
 1605TIP3    H229011   5.821   6.350  12.525  0.0206 -0.9460  1.3917
 1606TIP3   OH229012   5.469   3.665  12.499 -0.1069 -0.0724  0.2181
 1606TIP3    H129013   5.499   3.614  12.424 -0.4382 -2.8062  1.8064
 1606TIP3    H229014   5.548   3.707  12.533  0.3146 -0.0902 -0.7100
 1607TIP3   OH229015   3.173   6.460  10.914 -0.2180 -0.2410  0.4713
 1607TIP3    H129016   3.165   6.383  10.858 -1.1054 -1.3623  2.0675
 1607TIP3    H229017   3.268   6.473  10.924 -0.0629 -1.1909  0.2549
 1608TIP3   OH229018   0.976   7.058  12.476 -0.0495 -0.1315  0.3637
 1608TIP3    H129019   1.009   7.145  12.497  0.9510  0.1982 -2.1663
 1608TIP3    H229020   0.910   7.073  12.408 -0.6492 -1.2737  0.6722
 1609TIP3   OH229021   4.629   6.820  13.381 -0.1822 -0.4282  0.4989
 1609TIP3    H129022   4.679   6.868  13.315 -0.9624 -0.2954 -0.0030
 1609TIP3    H229023   4.588   6.888  13.434  0.5479 -0.5302  1.2270
 1610TIP3   OH229024   4.391   4.766  13.321 -0.1259  0.1082  0.1762
 1610TIP3    H129025   4.376   4.841  13.378 -0.9760 -0.3107  0.5241
 1610TIP3    H229026   4.342   4.787  13.241  0.5096  0.3909 -0.1464
 1611TIP3   OH229027   4.118   7.275  11.506  0.0238  0.1988 -0.1168
 1611TIP3    H129028   4.143   7.184  11.525 -1.1252  0.2409  1.9190
 1611TIP3    H229029   4.196   7.314  11.468  0.8245 -1.4157 -0.2085
 1612TIP3   OH229030   7.561   3.705  11.928 -0.9111 -0.5458  0.0523
 1612TIP3    H129031   7.537   3.643  11.859 -1.5306  1.0275 -1.2208
 1612TIP3    H229032   7.596   3.781  11.880 -1.0913  0.4784  1.4874
 1613TIP3   OH229033   1.703   3.554  11.490  0.1822  0.3059  0.0076
 1613TIP3    H129034   1.643   3.499  11.439  0.3008  0.5959 -0.4433
 1613TIP3    H229035   1.788   3.545  11.446 -0.1372  2.1450 -1.0684
 1614TIP3   OH229036   5.232   3.953  11.708  0.3289  0.3638  0.1567
 1614TIP3    H129037   5.318   3.991  11.724  1.2217 -1.1641 -0.8210
 1614TIP3    H229038   5.221   3.956  11.613 -0.3255 -0.2302  0.2056
 1615TIP3   OH229039   0.737   0.825  11.112  0.4296  0.0571  0.7727
 1615TIP3    H129040   0.674   0.769  11.065 -0.0576  1.4608 -0.3121
 1615TIP3    H229041   0.730   0.798  11.203 -2.4685  0.7933  0.8436
 1616TIP3   OH229042   7.083   4.136  11.266 -0.0359  0.3144 -0.1698
 1616TIP3    H129043   7.115   4.051  11.236  0.4456  0.2180  0.5879
 1616TIP3    H229044   7.073   4.188  11.186 -0.8432 -0.6122 -0.6985
 1617TIP3   OH229045   6.898   5.756  11.372  0.2654 -0.5945  0.5135
 1617TIP3    H129046   6.925   5.818  11.440 -0.4996 -0.1218  0.4090
 1617TIP3    H229047   6.977   5.706  11.352  0.9877  0.5482  0.3884
 1618TIP3   OH229048   0.128   2.425  12.148  0.9313  0.4417  0.2718
 1618TIP3    H129049   0.207   2.372  12.140 -0.0644 -0.9671 -0.6431
 1618TIP3    H229050   0.073   2.377  12.209 -0.3326 -0.0777 -1.2126
 1619TIP3   OH229051   6.960   7.375  12.859  0.3067 -0.2201  0.0963
 1619TIP3    H129052   6.998   7.453  12.901 -0.7863 -0.0152  0.7272
 1619TIP3    H229053   6.866   7.382  12.874 -0.1123 -0.3359 -2.1024
 1620TIP3   OH229054   2.147   7.324  12.193  0.4732  0.2131  0.1810
 1620TIP3    H129055   2.143   7.376  12.274  1.8684  1.3140 -0.4021
 1620TIP3    H229056   2.159   7.389  12.124 -1.5818 -0.6364 -1.0530
 1621TIP3   OH229057   7.024   4.582  12.427 -0.0941 -0.2336  0.2824
 1621TIP3    H129058   7.082   4.593  12.502  1.9725 -0.6567 -1.1520
 1621TIP3    H229059   7.068   4.629  12.356 -2.6811  1.3817 -0.3881
 1622TIP3   OH229060   3.211   6.025  13.644  0.0801 -0.1694  0.0021
 1622TIP3    H129061   3.190   5.969  13.718 -2.5919  1.2119  0.4324
 1622TIP3    H229062   3.279   6.084  13.676 -0.2264 -0.3366  0.9687
 1623TIP3   OH229063   1.004   2.158  12.381 -0.1125  0.2808 -0.1011
 1623TIP3    H129064   1.032   2.070  12.405 -0.2025 -0.0053 -1.0442
 1623TIP3    H229065   0.912   2.161  12.408 -0.1701  0.0155 -0.2654
 1624TIP3   OH229066   4.387   0.318  11.962 -0.0304  0.0854 -0.9095
 1624TIP3    H129067   4.312   0.312  12.021 -0.1608  0.3074 -1.0478
 1624TIP3    H229068   4.353   0.363  11.884  0.2613  0.2501 -0.9452
 1625TIP3   OH229069   7.135   2.320  12.404  0.1734  0.2291 -0.3659
 1625TIP3    H129070   7.165   2.238  12.444  0.3485  1.1538  1.5335
 1625TIP3    H229071   7.216   2.369  12.387 -0.0030  1.0793  1.0427
 1626TIP3   OH229072   5.810   3.764  11.889  0.3014  0.6135  0.0964
 1626TIP3    H129073   5.872   3.723  11.829  2.0616 -0.3139  2.4186
 1626TIP3    H229074   5.835   3.856  11.891  0.3282  0.6207 -0.4489
 1627TIP3   OH229075   5.026   7.526  11.926  0.0286 -0.1478 -0.0546
 1627TIP3    H129076   5.058   7.567  11.846  1.9010  0.5749  1.0124
 1627TIP3    H229077   5.062   7.437  11.924  2.6673  0.7662  1.3102
 1628TIP3   OH229078   1.592   4.321  12.044 -0.4254  0.1539  0.1260
 1628TIP3    H129079   1.500   4.317  12.069 -1.3716  0.9523 -2.7768
 1628TIP3    H229080   1.594   4.280  11.957  2.5635 -2.7241  1.3471
 1629TIP3   OH229081   5.007   7.649  11.529  0.2797  0.4787  0.5145
 1629TIP3    H129082   5.080   7.643  11.590 -0.3576 -1.0014  1.1710
 1629TIP3    H229083   4.929   7.642  11.583 -0.2950 -1.5765 -0.4611
 1630TIP3   OH229084   0.491   1.266  12.790 -0.0333  0.6441 -0.5483
 1630TIP3    H129085   0.513   1.235  12.878  1.6909 -2.3489 -1.8792
 1630TIP3    H229086   0.401   1.235  12.776  0.8034 -1.8496 -0.9228
 1631TIP3   OH229087   6.774   1.254  10.856 -0.3429 -0.1397 -0.6872
 1631TIP3    H129088   6.681   1.249  10.877 -0.1029 -0.3201  0.4490
 1631TIP3    H229089   6.808   1.168  10.878  0.4835  0.5885  1.1193
 1632TIP3   OH229090   2.138   6.941  13.770 -0.2658 -0.4344 -0.1329
 1632TIP3    H129091   2.115   6.855  13.734 -0.3694 -0.5136  0.1181
 1632TIP3    H229092   2.102   6.940  13.859 -2.1782  0.6534 -0.8159
 1633TIP3   OH229093   1.774   7.026  11.833  0.0766  0.0926 -0.5486
 1633TIP3    H129094   1.844   7.083  11.864 -0.1092  0.3838 -0.6619
 1633TIP3    H229095   1.699   7.049  11.887  0.4792 -1.3752  0.7361
 1634TIP3   OH229096   4.661   7.474  11.501 -0.3473 -0.1116  0.2442
 1634TIP3    H129097   4.569   7.496  11.518 -0.0898  0.1812  1.3177
 1634TIP3    H229098   4.711   7.544  11.544  0.3733 -0.0173 -0.7193
 1635TIP3   OH229099   7.537   2.500  11.611  0.7025  0.2394 -0.4792
 1635TIP3    H129100   7.595   2.500  11.687 -0.2783  0.2917  0.2941
 1635TIP3    H229101   7.531   2.591  11.584 -2.2762  0.9883  2.0787
 1636TIP3   OH229102   6.521   4.949  13.369 -0.0004 -0.6558  0.0030
 1636TIP3    H129103   6.467   4.876  13.398 -1.2337 -0.3907 -1.4393
 1636TIP3    H229104   6.467   5.026  13.385  0.9653 -0.1270  0.7848
 1637TIP3   OH229105   7.168   1.883  11.350  0.0461  0.1232 -0.5664
 1637TIP3    H129106   7.111   1.940  11.299 -0.1022  1.1168  0.6902
 1637TIP3    H229107   7.235   1.854  11.287 -1.4322 -0.5497 -1.8953
 1638TIP3   OH229108   5.522   6.925  13.073 -0.1479  0.2939 -1.0038
 1638TIP3    H129109   5.446   6.922  13.132  0.6604  0.1103  0.0593
 1638TIP3    H229110   5.547   6.833  13.062  1.6834  0.4611  1.0548
 1639TIP3   OH229111   5.319   1.626  12.337  1.3397  0.4460  0.2328
 1639TIP3    H129112   5.391   1.603  12.396  0.3221  0.6659  1.6187
 1639TIP3    H229113   5.241   1.621  12.392  0.1233 -1.0045 -1.5497
 1640TIP3   OH229114   2.277   4.984  11.626  0.0669 -0.1357 -0.3006
 1640TIP3    H129115   2.189   4.949  11.614  0.8182 -1.9035 -0.9439
 1640TIP3    H229116   2.295   5.033  11.546 -0.3145  0.1785 -0.1924
 1641TIP3   OH229117   4.260   0.588  12.829 -0.3216 -0.2016  0.0397
 1641TIP3    H129118   4.219   0.502  12.821  0.5114 -0.4557 -2.2379
 1641TIP3    H229119   4.265   0.603  12.923 -2.0528 -1.8639  0.4640
 1642TIP3   OH229120   7.055   2.030  12.370 -0.0858 -0.4725  0.1110
 1642TIP3    H129121   7.010   1.975  12.307 -1.4919  3.1328 -2.3722
 1642TIP3    H229122   7.141   2.046  12.332  1.2031 -2.5014  1.9075
 1643TIP3   OH229123   6.660   4.827  13.069  0.2075 -0.1824 -0.8870
 1643TIP3    H129124   6.625   4.740  13.048 -2.2733  1.3119 -3.6759
 1643TIP3    H229125   6.593   4.867  13.125  0.8253  0.3200 -0.4859
 1644TIP3   OH229126   3.928   7.481  12.316  0.1168 -0.3001  0.3502
 1644TIP3    H129127   3.887   7.477  12.402 -0.3464  0.5706  0.1900
 1644TIP3    H229128   4.022   7.483  12.333  0.0305 -0.2982  0.8229
 1645TIP3   OH229129   4.225   5.289  12.501  0.1135 -0.9331  0.0036
 1645TIP3    H129130   4.295   5.264  12.560  1.6403  1.8460 -0.4425
 1645TIP3    H229131   4.269   5.333  12.428 -2.0328  1.5648  0.0366
 1646TIP3   OH229132   3.500   3.140  11.948 -0.2873 -0.2021 -0.1021
 1646TIP3    H129133   3.491   3.217  12.004  0.8054 -1.7944  2.4198
 1646TIP3    H229134   3.577   3.158  11.895  0.2888  0.2172  0.8581
 1647TIP3   OH229135   5.325   2.704  12.100 -0.0800  0.3216  0.4311
 1647TIP3    H129136   5.286   2.656  12.028  2.0180 -0.9701  0.0705
 1647TIP3    H229137   5.283   2.790  12.097  0.2692  0.4924 -2.6301
 1648TIP3   OH229138   6.795   3.531  13.363 -0.0068  0.0158  0.2528
 1648TIP3    H129139   6.862   3.564  13.303 -0.6183  0.5154 -0.1641
 1648TIP3    H229140   6.768   3.608  13.413 -0.7347 -0.0500 -0.0330
 1649TIP3   OH229141   6.733   4.106  11.605 -0.1040 -0.5894  0.7345
 1649TIP3    H129142   6.680   4.110  11.684  0.4991  0.4105  1.1088
 1649TIP3    H229143   6.669   4.105  11.534 -0.6379 -0.0475  1.1972
 1650TIP3   OH229144   5.193   6.177  13.105  0.1592 -0.0167  0.4756
 1650TIP3    H129145   5.120   6.122  13.133 -1.2113  1.2351 -0.4622
 1650TIP3    H229146   5.181   6.259  13.152  0.7701  0.3194  0.0558
 1651TIP3   OH229147   2.188   1.412  12.304 -0.3464 -0.3666 -0.1994
 1651TIP3    H129148   2.173   1.323  12.273 -1.2185 -0.2258 -0.1898
 1651TIP3    H229149   2.266   1.405  12.360 -0.6822 -1.2007  0.1729
 1652TIP3   OH229150   3.235   7.478  12.821 -0.7239 -0.3012 -0.2828
 1652TIP3    H129151   3.204   7.486  12.911 -0.6327  0.7050 -0.3277
 1652TIP3    H229152   3.173   7.530  12.770 -0.6314 -0.6625 -0.7760
 1653TIP3   OH229153   4.806   5.702  11.349  0.4545  0.0615  0.7365
 1653TIP3    H129154   4.898   5.679  11.337  0.4479  0.7631 -0.7739
 1653TIP3    H229155   4.808   5.770  11.417  0.9597 -0.4401  1.2449
 1654TIP3   OH229156   7.351   3.140  13.441 -0.0655  0.8174  0.1212
 1654TIP3    H129157   7.355   3.217  13.384  2.2545  0.8382  0.2305
 1654TIP3    H229158   7.261   3.109  13.433 -0.1781  1.5992 -2.5034
 1655TIP3   OH229159   4.028   3.969  11.598  0.1970  0.0642 -0.0062
 1655TIP3    H129160   3.985   3.914  11.533 -0.8566  1.3168 -0.4127
 1655TIP3    H229161   4.090   3.910  11.643 -0.1315 -1.1659 -1.1178
 1656TIP3   OH229162   1.334   1.742  12.644 -0.2078 -0.4468  0.1886
 1656TIP3    H129163   1.299   1.653  12.643  1.0325 -0.9483 -0.2523
 1656TIP3    H229164   1.429   1.731  12.639 -0.0870  0.9213 -2.9150
 1657TIP3   OH229165   4.334   7.419  11.366 -0.0057 -0.0924 -0.1421
 1657TIP3    H129166   4.368   7.432  11.455  0.0346 -1.0693 -0.0112
 1657TIP3    H229167   4.275   7.494  11.353  0.1989  0.2165  0.5971
 1658TIP3   OH229168   2.233   0.014  13.270 -0.1250  0.3114 -0.1361
 1658TIP3    H129169   2.172   0.080  13.304 -0.2226  0.1410  0.0277
 1658TIP3    H229170   2.319   0.055  13.277 -0.2209  0.5610 -0.3843
 1659TIP3   OH229171   4.052   4.331  12.459  0.1671  0.2631 -0.3061
 1659TIP3    H129172   3.970   4.374  12.432 -0.2883 -1.2793 -1.5928
 1659TIP3    H229173   4.025   4.242  12.484  1.4300 -0.2596 -0.7071
 1660TIP3   OH229174   1.835   6.793  12.739 -0.2730 -0.4770  0.3002
 1660TIP3    H129175   1.801   6.811  12.827 -0.9785 -2.2460  0.4359
 1660TIP3    H229176   1.808   6.868  12.687 -2.2948 -0.6563  0.9814
 1661TIP3   OH229177   7.475   6.613  11.840 -0.0147 -0.4204 -0.3433
 1661TIP3    H129178   7.492   6.657  11.923  0.8037 -2.0818  0.4111
 1661TIP3    H229179   7.529   6.535  11.843 -0.8039 -1.0692 -1.9911
 1662TIP3   OH229180   6.433   5.556  12.882 -0.0544  0.0710  0.5751
 1662TIP3    H129181   6.513   5.556  12.935  1.6617  0.1541 -1.8464
 1662TIP3    H229182   6.388   5.637  12.906  1.4225  0.8411  0.8693
 1663TIP3   OH229183   5.368   7.295  13.356 -0.5403 -0.2195 -0.5926
 1663TIP3    H129184   5.404   7.277  13.269  0.1977  1.3023 -0.6257
 1663TIP3    H229185   5.389   7.217  13.407 -1.7032 -1.5099 -1.9607
 1664TIP3   OH229186   3.365   1.484  13.092 -0.2249 -0.3661 -0.2581
 1664TIP3    H129187   3.307   1.430  13.145 -0.6958  0.7486  0.3853
 1664TIP3    H229188   3.387   1.428  13.017 -0.7030 -1.4338  0.3705
 1665TIP3   OH229189   3.322   1.086  11.100  0.4545 -0.4876  0.0244
 1665TIP3    H129190   3.230   1.111  11.099  0.2526 -0.7202  3.1680
 1665TIP3    H229191   3.368   1.164  11.067 -0.7822 -0.0381 -0.7064
 1666TIP3   OH229192   1.042   1.809  13.303 -0.4368 -0.2603  0.4641
 1666TIP3    H129193   1.000   1.818  13.389 -2.2939 -3.0957  0.0177
 1666TIP3    H229194   1.101   1.734  13.314  0.2452  0.1369 -0.4305
 1667TIP3   OH229195   2.988   6.662  13.479 -0.4776 -0.1558 -0.2222
 1667TIP3    H129196   2.974   6.755  13.460 -0.4814  0.1988  1.3617
 1667TIP3    H229197   2.910   6.637  13.530  0.5158 -0.4435  1.2137
 1668TIP3   OH229198   6.335   4.313  12.236  0.0237  0.0693 -0.5237
 1668TIP3    H129199   6.330   4.408  12.227  0.2498  0.2026  0.6078
 1668TIP3    H229200   6.286   4.279  12.161 -0.2398  1.0811 -0.8218
 1669TIP3   OH229201   7.334   2.114  11.465  0.7289 -0.5184 -0.5461
 1669TIP3    H129202   7.292   2.197  11.442  1.9705  0.6637  1.1774
 1669TIP3    H229203   7.291   2.049  11.410  0.1034  1.3371 -2.3753
 1670TIP3   OH229204   3.339   1.175  13.251  0.0665 -0.1713 -0.0039
 1670TIP3    H129205   3.296   1.105  13.300  1.6286 -2.4607 -1.6743
 1670TIP3    H229206   3.335   1.251  13.309 -1.7203 -1.6160  1.9137
 1671TIP3   OH229207   6.724   0.745  11.713 -0.3875  0.1369  0.3328
 1671TIP3    H129208   6.661   0.816  11.701  1.0563  1.5261  0.7773
 1671TIP3    H229209   6.782   0.751  11.637  1.0255  0.8168  1.4260
 1672TIP3   OH229210   3.716   5.213  11.652  0.0915 -0.1703  0.4476
 1672TIP3    H129211   3.761   5.155  11.591  1.3003  0.0160  1.1405
 1672TIP3    H229212   3.699   5.293  11.603  1.1752  0.0264  0.3839
 1673TIP3   OH229213   3.244   3.611  12.698 -0.1416  0.3915 -0.1120
 1673TIP3    H129214   3.224   3.518  12.699 -0.3725  0.4353  1.9371
 1673TIP3    H229215   3.165   3.654  12.731  0.8081  1.0947  1.3372
 1674TIP3   OH229216   4.839   6.233  13.662 -0.1071  0.2731  0.2230
 1674TIP3    H129217   4.784   6.192  13.595  0.7370  0.0003 -0.3158
 1674TIP3    H229218   4.841   6.168  13.733  2.4275 -1.3936 -1.2158
 1675TIP3   OH229219   1.127   0.875  12.105  0.5564 -0.3046  0.3996
 1675TIP3    H129220   1.119   0.833  12.020  1.0372 -0.5221  0.4565
 1675TIP3    H229221   1.044   0.858  12.149  0.9362 -1.6492  0.6245
 1676TIP3   OH229222   5.878   4.187  13.179  0.3629  0.2928  0.6560
 1676TIP3    H129223   5.833   4.218  13.258  2.5641  1.4344  1.5447
 1676TIP3    H229224   5.855   4.252  13.113 -2.0826 -1.0592  0.0668
 1677TIP3   OH229225   6.748   6.625  12.055  0.5387 -0.4660 -0.1329
 1677TIP3    H129226   6.663   6.663  12.030  1.2259  0.7098 -0.7445
 1677TIP3    H229227   6.725   6.554  12.115 -0.9756 -1.1837 -1.4792
 1678TIP3   OH229228   0.790   1.410  12.883 -0.4187 -0.0566  0.1028
 1678TIP3    H129229   0.696   1.400  12.871 -0.5783  1.8444 -0.5759
 1678TIP3    H229230   0.827   1.396  12.796 -0.0122 -1.1155  0.4270
 1679TIP3   OH229231   0.311   5.648  11.974 -0.5151 -0.5348 -0.2406
 1679TIP3    H129232   0.222   5.682  11.988 -1.3173 -2.1669 -1.1455
 1679TIP3    H229233   0.314   5.568  12.027  0.8932  0.1615  0.8090
 1680TIP3   OH229234   1.683   1.591  11.303  0.5839  0.0837  0.0766
 1680TIP3    H129235   1.775   1.582  11.278  0.7855  1.2454  0.3170
 1680TIP3    H229236   1.637   1.525  11.252  1.3866  0.3574 -1.0242
 1681TIP3   OH229237   0.662   3.114  11.830  0.1187 -0.2313 -0.6110
 1681TIP3    H129238   0.624   3.045  11.884 -0.3754 -1.0751 -1.9860
 1681TIP3    H229239   0.755   3.090  11.823  0.0704 -0.4252 -0.5918
 1682TIP3   OH229240   0.520   3.919  12.927  0.4569 -0.0583  0.1388
 1682TIP3    H129241   0.488   3.886  13.011  0.0706  0.3362  0.1521
 1682TIP3    H229242   0.500   4.013  12.929  2.4251  0.3869  0.5163
 1683TIP3   OH229243   1.800   7.420  11.281 -0.3223 -0.0524  0.5613
 1683TIP3    H129244   1.807   7.331  11.314  1.1418 -0.6001 -1.0893
 1683TIP3    H229245   1.719   7.453  11.319  0.2321 -1.2804  3.0199
 1684TIP3   OH229246   2.703   7.160  11.259 -0.3090  0.3694 -0.1448
 1684TIP3    H129247   2.661   7.238  11.223  0.7922  1.7073  1.4017
 1684TIP3    H229248   2.733   7.185  11.346  0.9147 -1.4909  0.0382
 1685TIP3   OH229249   2.252   0.799  11.263 -0.7731  0.0247 -0.4298
 1685TIP3    H129250   2.325   0.843  11.219  0.6670 -0.3069  1.4689
 1685TIP3    H229251   2.215   0.741  11.197  0.8199  0.0570 -1.3965
 1686TIP3   OH229252   7.343   3.789  12.343 -0.6950 -0.2111 -0.0990
 1686TIP3    H129253   7.249   3.790  12.364 -1.1800 -1.3390 -2.0157
 1686TIP3    H229254   7.346   3.774  12.249  1.4387 -1.4310  0.1096
 1687TIP3   OH229255   7.596   0.861  11.115  0.0098  0.2001  0.7051
 1687TIP3    H129256   7.544   0.939  11.094  1.4939  1.2441  0.7176
 1687TIP3    H229257   7.548   0.789  11.075 -0.1579  1.4343 -1.4945
 1688TIP3   OH229258   5.710   2.298  12.471 -0.0933 -0.4604 -0.1310
 1688TIP3    H129259   5.741   2.217  12.430 -1.5774 -0.8825 -0.5028
 1688TIP3    H229260   5.707   2.278  12.565  0.2679 -0.5786 -0.1444
 1689TIP3   OH229261   3.976   3.408  13.236 -0.6186 -0.0207 -0.4522
 1689TIP3    H129262   3.989   3.370  13.322 -1.8124 -2.5662 -1.2801
 1689TIP3    H229263   4.059   3.395  13.190  0.1988  1.8185  0.3929
 1690TIP3   OH229264   6.596   1.612  12.024 -0.0052 -0.1221  0.3741
 1690TIP3    H129265   6.615   1.706  12.022 -0.2296 -0.0640  0.9704
 1690TIP3    H229266   6.651   1.576  11.954  0.3745  0.3993  0.3930
 1691TIP3   OH229267   4.214   1.793  13.009  0.8116  0.1980 -0.3523
 1691TIP3    H129268   4.297   1.816  13.052  1.7379  0.0804 -1.9841
 1691TIP3    H229269   4.162   1.874  13.014  0.6874  0.0490  1.3515
 1692TIP3   OH229270   0.439   0.677  12.560 -0.1816  0.0832 -0.3802
 1692TIP3    H129271   0.369   0.740  12.542  0.0145  0.1957 -0.7743
 1692TIP3    H229272   0.519   0.722  12.533  0.7558  1.9174  4.3868
 1693TIP3   OH229273   7.630   0.015  12.161  0.2735  0.6656  0.4947
 1693TIP3    H129274   7.625   0.108  12.185 -0.1623  0.4156  1.4002
 1693TIP3    H229275   7.578  -0.030  12.227  2.3724 -0.4723  1.4806
 1694TIP3   OH229276   5.267   2.976  11.805 -0.3900  0.9415 -0.1943
 1694TIP3    H129277   5.330   2.907  11.827 -1.2918  0.4699  1.0524
 1694TIP3    H229278   5.297   3.010  11.720 -0.1540 -1.2582 -1.0586
 1695TIP3   OH229279   0.792   6.320  13.182 -0.1755  0.0515 -0.3821
 1695TIP3    H129280   0.865   6.259  13.195  0.5225  0.8396 -0.5226
 1695TIP3    H229281   0.748   6.323  13.267  1.1661  1.0883  0.3144
 1696TIP3   OH229282   0.913   5.805  11.261 -0.1310  0.3630 -0.4184
 1696TIP3    H129283   0.916   5.811  11.165  0.0106 -0.2370 -0.4541
 1696TIP3    H229284   0.939   5.715  11.280 -2.3876 -0.2528  0.0677
 1697TIP3   OH229285   4.654   6.423  13.024  0.4592 -0.3141 -0.2122
 1697TIP3    H129286   4.746   6.421  13.049 -0.3453  1.0009  3.3809
 1697TIP3    H229287   4.631   6.516  13.023 -0.3486 -0.4120 -3.6272
 1698TIP3   OH229288   0.657   6.740  12.777  0.1683  0.0256  0.9167
 1698TIP3    H129289   0.643   6.646  12.786  0.8631 -0.1408  0.4438
 1698TIP3    H229290   0.735   6.747  12.721 -0.2103  0.8840  0.4731
 1699TIP3   OH229291   5.812   0.912  13.318  0.2306 -0.1170  0.0430
 1699TIP3    H129292   5.902   0.944  13.324 -0.0533  1.1036 -1.4774
 1699TIP3    H229293   5.818   0.831  13.267  0.4556  0.0993 -0.2774
 1700TIP3   OH229294   3.397   5.201  12.501 -0.0311 -0.0535  0.0289
 1700TIP3    H129295   3.367   5.142  12.570  1.4388  0.2778  0.9983
 1700TIP3    H229296   3.390   5.149  12.421 -0.1366 -1.0373  0.6588
 1701TIP3   OH229297   3.809   2.951  11.522  0.5419  0.1383 -0.4882
 1701TIP3    H129298   3.837   2.894  11.451  0.0429 -1.7441  0.7368
 1701TIP3    H229299   3.876   2.940  11.589 -1.1034 -1.5922  1.0211
 1702TIP3   OH229300   0.204   1.609  10.787  0.5538 -0.0611  0.3644
 1702TIP3    H129301   0.261   1.568  10.721  2.4163  1.6335  0.8118
 1702TIP3    H229302   0.186   1.696  10.752  0.7467  0.5007  1.6388
 1703TIP3   OH229303   2.793   1.890  12.941 -0.0339 -0.4079  0.1840
 1703TIP3    H129304   2.795   1.927  13.029  1.4965  0.5751 -0.2276
 1703TIP3    H229305   2.852   1.815  12.945 -2.1567 -2.1394  0.6863
 1704TIP3   OH229306   3.865   4.117  13.420 -0.2509  0.4499  0.3571
 1704TIP3    H129307   3.944   4.154  13.461 -0.1053  2.3968 -1.5183
 1704TIP3    H229308   3.808   4.192  13.406 -0.4967 -0.1520 -2.4258
 1705TIP3   OH229309   2.460   3.904  13.430  0.4385  0.3481  0.7404
 1705TIP3    H129310   2.454   3.829  13.490  0.7307  0.1192  0.4849
 1705TIP3    H229311   2.375   3.906  13.386  1.7684 -2.5031 -2.4121
 1706TIP3   OH229312   1.793   5.077  13.531 -0.1757 -0.8549  0.4010
 1706TIP3    H129313   1.793   5.076  13.436  0.4050 -1.3403  0.4007
 1706TIP3    H229314   1.701   5.087  13.556 -0.2944 -0.3996 -0.2097
 1707TIP3   OH229315   1.200   0.733  13.593 -0.0415  0.0150  0.5630
 1707TIP3    H129316   1.200   0.647  13.635  1.4937 -0.5250 -0.5068
 1707TIP3    H229317   1.277   0.733  13.537 -1.5141  1.0636 -1.5815
 1708TIP3   OH229318   7.455   4.212  10.923  0.2305 -0.2395 -0.4053
 1708TIP3    H129319   7.438   4.267  11.000  0.3862 -1.9208  0.8895
 1708TIP3    H229320   7.513   4.264  10.868 -0.5205  1.3204  0.2283
 1709TIP3   OH229321   5.682   4.900  11.818 -0.4260 -0.2114  0.2388
 1709TIP3    H129322   5.603   4.884  11.869 -1.0353  0.3324 -0.5049
 1709TIP3    H229323   5.691   4.823  11.763  1.4853 -1.8620  2.6385
 1710TIP3   OH229324   0.467   0.444  13.125 -0.3088 -0.5512  0.3437
 1710TIP3    H129325   0.407   0.375  13.152 -1.4561  0.2919  0.0257
 1710TIP3    H229326   0.423   0.526  13.148 -0.0359  0.1297 -1.3531
 1711TIP3   OH229327   1.015   1.699  12.653 -0.0511 -0.4512  0.4955
 1711TIP3    H129328   0.964   1.719  12.732  0.5688 -0.0819  0.8064
 1711TIP3    H229329   1.105   1.693  12.683  0.1227 -0.8934 -0.0925
 1712TIP3   OH229330   1.225   3.327  12.321  0.2219  0.2587 -0.3458
 1712TIP3    H129331   1.301   3.298  12.371  0.2375  1.7718  0.5873
 1712TIP3    H229332   1.198   3.408  12.365 -2.1090 -0.3976 -0.4556
 1713TIP3   OH229333   6.517   5.515  11.914  0.3760  0.4101 -0.3141
 1713TIP3    H129334   6.544   5.551  11.829 -0.4466  1.7885 -0.0215
 1713TIP3    H229335   6.426   5.487  11.900  0.9100 -1.4329 -0.4644
 1714TIP3   OH229336   0.612   2.197  12.677 -0.3354 -0.7405 -0.0595
 1714TIP3    H129337   0.617   2.139  12.753 -1.3296 -2.2157 -1.0752
 1714TIP3    H229338   0.518   2.209  12.662 -0.2470 -2.3002 -2.3474
 1715TIP3   OH229339   4.002   6.278  13.849  0.2662  0.5485 -0.0239
 1715TIP3    H129340   3.908   6.283  13.867  0.1202  1.7654 -0.9613
 1715TIP3    H229341   4.025   6.365  13.817  1.4946 -0.0399 -0.8414
 1716TIP3   OH229342   1.831   0.724  11.435 -0.4025  0.3422 -0.2447
 1716TIP3    H129343   1.922   0.742  11.457 -1.2764  2.4641  2.0487
 1716TIP3    H229344   1.832   0.709  11.340  2.3594 -0.2670 -0.2025
 1717TIP3   OH229345   0.971   3.290  11.526 -0.3112 -0.1035 -0.5197
 1717TIP3    H129346   0.975   3.385  11.535  2.5631 -0.3350  2.4454
 1717TIP3    H229347   1.062   3.263  11.513 -1.1719 -2.4318 -2.5010
 1718TIP3   OH229348   3.026   1.372  13.437 -0.4303 -0.0278 -0.1594
 1718TIP3    H129349   3.062   1.448  13.393 -0.3710 -0.0844 -0.2099
 1718TIP3    H229350   2.931   1.386  13.438 -0.3592  0.4265  0.5477
 1719TIP3   OH229351   1.242   5.502  13.589 -0.5467 -0.0506  0.0521
 1719TIP3    H129352   1.303   5.529  13.658  0.0067  1.2149 -0.8951
 1719TIP3    H229353   1.298   5.459  13.524 -0.5541  1.3830 -0.9632
 1720TIP3   OH229354   5.157   7.350  12.328  0.0218 -0.4497 -1.0295
 1720TIP3    H129355   5.132   7.435  12.292 -0.7215 -0.9623 -1.7609
 1720TIP3    H229356   5.190   7.370  12.416  0.3498  0.6446 -1.3831
 1721TIP3   OH229357   2.755   0.528  12.370  0.0817 -0.6327  0.1820
 1721TIP3    H129358   2.735   0.570  12.287 -0.0436  0.6874  0.8457
 1721TIP3    H229359   2.684   0.556  12.428  0.1258 -1.5860  0.7151
 1722TIP3   OH229360   4.202   2.908  11.322 -0.2293 -0.0929 -0.1255
 1722TIP3    H129361   4.265   2.936  11.255  0.3806  1.0911  0.8822
 1722TIP3    H229362   4.234   2.950  11.402 -2.5372  0.9113  0.3536
 1723TIP3   OH229363   0.613   7.021  12.571 -0.5696  0.0877 -0.0816
 1723TIP3    H129364   0.601   7.115  12.583 -0.8214 -0.0937  1.1818
 1723TIP3    H229365   0.677   6.996  12.639 -3.3811 -1.3068  2.2555
 1724TIP3   OH229366   3.196   4.196  12.402  0.0184  0.7487 -0.2170
 1724TIP3    H129367   3.176   4.176  12.311  0.1798 -0.3055 -0.0383
 1724TIP3    H229368   3.155   4.125  12.451 -1.0699  1.9208  0.6434
 1725TIP3   OH229369   2.779   5.288  11.079  0.1942  0.3905  0.1734
 1725TIP3    H129370   2.726   5.245  11.012 -0.4423  0.4691  0.6164
 1725TIP3    H229371   2.831   5.352  11.030 -0.6289  0.8014 -0.2039
 1726TIP3   OH229372   2.429   6.760  13.546  0.7786 -0.4547  0.0666
 1726TIP3    H129373   2.416   6.699  13.618  1.7551 -0.1548  0.5045
 1726TIP3    H229374   2.498   6.720  13.493 -0.4854 -1.0813 -1.1799
 1727TIP3   OH229375   1.987   5.924  11.550 -0.3310  0.3526  0.0708
 1727TIP3    H129376   2.049   5.861  11.585  0.6575  0.1433 -1.9526
 1727TIP3    H229377   1.904   5.876  11.546 -0.2176  0.0471  0.9935
 1728TIP3   OH229378   7.449   6.360  11.373 -0.1279 -0.1035  0.0136
 1728TIP3    H129379   7.427   6.267  11.373  1.0627 -0.4021 -0.4107
 1728TIP3    H229380   7.499   6.374  11.453 -0.2117  0.1484  0.0244
 1729TIP3   OH229381   6.500   3.930  11.104 -0.2772  0.0659  0.0978
 1729TIP3    H129382   6.555   4.000  11.067  0.1653  0.3432  1.2300
 1729TIP3    H229383   6.562   3.862  11.128 -0.5703 -0.1482  0.2429
 1730TIP3   OH229384   2.255   6.755  12.878 -0.2635  0.9321  0.0783
 1730TIP3    H129385   2.273   6.841  12.841 -0.7728  0.8076 -0.4679
 1730TIP3    H229386   2.192   6.772  12.948  1.4871  1.3061  1.6690
 1731TIP3   OH229387   0.581   2.232  12.183 -0.5086 -0.3276 -0.0682
 1731TIP3    H129388   0.645   2.239  12.254 -1.3246  0.6304  0.6143
 1731TIP3    H229389   0.518   2.168  12.214 -1.9357  1.4954  1.0043
 1732TIP3   OH229390   1.394   3.794  12.092  0.1619 -0.2610 -0.2632
 1732TIP3    H129391   1.395   3.775  11.998  1.2359  0.3789 -0.3929
 1732TIP3    H229392   1.400   3.889  12.097  2.0398 -0.3813  0.4714
 1733TIP3   OH229393   2.521   2.095  10.949  0.0460 -0.1723 -0.6300
 1733TIP3    H129394   2.428   2.112  10.964  0.5721  1.5598  1.0421
 1733TIP3    H229395   2.532   2.002  10.969 -1.3193 -0.4283 -0.9439
 1734TIP3   OH229396   3.456   4.825  12.644  0.3197 -0.2018 -0.6131
 1734TIP3    H129397   3.498   4.751  12.600  1.1093 -0.4497  0.5100
 1734TIP3    H229398   3.525   4.891  12.652  0.1234 -0.0642  0.0150
 1735TIP3   OH229399   4.495   3.220  11.152 -0.4648 -0.2812 -0.3553
 1735TIP3    H129400   4.544   3.251  11.229 -1.3483 -2.8084  1.3421
 1735TIP3    H229401   4.534   3.135  11.131 -2.3550 -1.1353 -0.6020
 1736TIP3   OH229402   7.332   0.897  12.737 -0.5306  0.4913 -0.2816
 1736TIP3    H129403   7.238   0.888  12.728 -0.6519  1.2643  0.1650
 1736TIP3    H229404   7.350   0.881  12.830 -0.1329 -0.3503 -0.4917
 1737TIP3   OH229405   4.342   5.339  12.916 -0.0138  0.0890  0.1569
 1737TIP3    H129406   4.264   5.284  12.907 -0.1905  0.5339 -1.5338
 1737TIP3    H229407   4.383   5.336  12.829  1.1229  0.9407  0.6368
 1738TIP3   OH229408   1.357   4.237  11.617 -0.7866  0.1774  0.1193
 1738TIP3    H129409   1.394   4.149  11.617  0.5220  0.5872  3.3613
 1738TIP3    H229410   1.422   4.290  11.569  0.2550 -0.0443  1.2389
 1739TIP3   OH229411   1.428   0.731  12.268  0.3844 -0.4642 -0.1701
 1739TIP3    H129412   1.489   0.791  12.225 -0.0453  0.1243  0.0290
 1739TIP3    H229413   1.365   0.789  12.313 -0.9399 -1.0372 -1.2202
 1740TIP3   OH229414   0.489   6.283  12.455  0.0363  0.7436 -0.1473
 1740TIP3    H129415   0.511   6.369  12.491  1.1511  0.0612  0.8488
 1740TIP3    H229416   0.572   6.248  12.424 -0.2685 -0.3091  0.1915
 1741TIP3   OH229417   6.724   4.089  12.879  0.0008 -0.0116  0.0510
 1741TIP3    H129418   6.674   4.017  12.917 -1.5061  0.4630 -0.9556
 1741TIP3    H229419   6.691   4.097  12.790 -0.0909  2.1126  0.2217
 1742TIP3   OH229420   5.889   1.345  10.674 -0.4005  0.1912 -0.2878
 1742TIP3    H129421   5.914   1.365  10.584  0.4461  0.1946 -0.0605
 1742TIP3    H229422   5.888   1.430  10.718 -2.0338  0.3530 -0.5692
 1743TIP3   OH229423   4.672   3.991  12.281 -0.0160 -0.1271 -0.4966
 1743TIP3    H129424   4.757   3.959  12.250 -0.2308 -1.8173  0.5196
 1743TIP3    H229425   4.663   4.078  12.242  1.8881 -0.1750 -1.1356
 1744TIP3   OH229426   6.770   2.687  12.615  0.0041 -0.4955 -0.0438
 1744TIP3    H129427   6.808   2.617  12.561 -0.0180 -1.4264  1.1022
 1744TIP3    H229428   6.702   2.725  12.561 -0.3744 -1.7652 -0.4881
 1745TIP3   OH229429   0.696   6.218  13.875 -0.1871 -0.5123 -0.0442
 1745TIP3    H129430   0.654   6.178  13.951  0.4676 -0.0639  0.5584
 1745TIP3    H229431   0.635   6.200  13.803 -2.2576  1.4591  1.0678
 1746TIP3   OH229432   1.313   1.465  12.100 -0.5607 -0.1610  0.1538
 1746TIP3    H129433   1.374   1.391  12.102 -0.7345 -0.3315 -0.6729
 1746TIP3    H229434   1.226   1.424  12.106 -0.7344 -0.1549 -1.7526
 1747TIP3   OH229435   6.092   2.522  12.920  0.0137  0.0636 -0.0178
 1747TIP3    H129436   6.097   2.464  12.844  1.4845 -1.6670  1.3091
 1747TIP3    H229437   6.149   2.595  12.898 -0.4603  0.1613 -1.0034
 1748TIP3   OH229438   2.235   1.803  12.413  0.2451  0.2210  0.0099
 1748TIP3    H129439   2.275   1.729  12.459  0.0038  0.6889  1.0159
 1748TIP3    H229440   2.279   1.806  12.328  0.6281 -0.7475  0.1695
 1749TIP3   OH229441   7.222   4.158  12.980  0.3549  0.6053 -0.4782
 1749TIP3    H129442   7.201   4.242  13.021  0.1931 -0.5148  1.8671
 1749TIP3    H229443   7.137   4.121  12.955  0.3700  0.7420 -0.7430
 1750TIP3   OH229444   4.997   3.295  13.497  0.0729 -0.1837  0.5713
 1750TIP3    H129445   4.995   3.380  13.542  0.6142  0.1156  0.0496
 1750TIP3    H229446   4.914   3.290  13.451  0.3365  0.3916  0.0228
 1751TIP3   OH229447   4.021   6.772  11.465 -0.2930 -0.4383  0.2389
 1751TIP3    H129448   3.949   6.758  11.404 -0.6184  2.7360 -0.2459
 1751TIP3    H229449   4.100   6.756  11.413 -0.6043  0.4897 -0.5451
 1752TIP3   OH229450   1.704   2.833  12.396 -1.1561  0.1124  0.2855
 1752TIP3    H129451   1.780   2.778  12.417  0.0288  1.1459 -1.1091
 1752TIP3    H229452   1.629   2.778  12.418 -0.0341 -0.8958  1.8735
 1753TIP3   OH229453   6.152   0.498  13.326 -0.2735  0.9132 -0.5351
 1753TIP3    H129454   6.074   0.535  13.367 -0.6694 -0.9161  0.4584
 1753TIP3    H229455   6.225   0.537  13.374 -0.6814  0.1714  0.7277
 1754TIP3   OH229456   1.257   4.943  13.383 -0.3431 -0.4343 -0.2001
 1754TIP3    H129457   1.225   4.889  13.456 -1.3577  2.3864  1.6091
 1754TIP3    H229458   1.261   4.883  13.309  0.3712 -3.3842  2.0467
 1755TIP3   OH229459   0.172   2.601  11.838 -0.1873 -0.1246 -0.4105
 1755TIP3    H129460   0.240   2.667  11.823  0.2497 -0.6457 -0.7411
 1755TIP3    H229461   0.186   2.535  11.770 -1.5676  0.1774 -1.0370
 1756TIP3   OH229462   0.104   1.296  11.522  0.2421 -0.7308  0.2199
 1756TIP3    H129463   0.024   1.344  11.500  0.6458  1.0590  2.2627
 1756TIP3    H229464   0.172   1.338  11.469  0.5233  0.8452  1.7146
 1757TIP3   OH229465   2.302   7.023  11.560  0.5718  0.2379  0.4554
 1757TIP3    H129466   2.273   7.104  11.517 -1.8897 -0.6254  0.3034
 1757TIP3    H229467   2.355   6.979  11.494 -2.1579 -0.5044 -1.4241
 1758TIP3   OH229468   5.989   3.661  13.094 -0.1792 -0.1823 -0.0526
 1758TIP3    H129469   5.990   3.756  13.078 -1.6356 -0.3234 -1.1459
 1758TIP3    H229470   5.951   3.651  13.181 -0.8745  0.2168 -0.3007
 1759TIP3   OH229471   6.655   5.767  12.393 -0.7188 -0.5374  0.2197
 1759TIP3    H129472   6.688   5.715  12.467  0.0187 -1.3846 -0.6585
 1759TIP3    H229473   6.603   5.836  12.433 -0.3628 -0.9882  1.5264
 1760TIP3   OH229474   4.652   5.603  11.736 -0.1217 -0.0457 -0.0491
 1760TIP3    H129475   4.691   5.685  11.766  0.0572 -0.2769  0.3559
 1760TIP3    H229476   4.652   5.609  11.641  0.2453  0.2579 -0.0280
 1761TIP3   OH229477   3.752   2.485  13.174 -0.3596 -0.6280  0.1097
 1761TIP3    H129478   3.670   2.502  13.220 -0.5213  0.0802 -0.4227
 1761TIP3    H229479   3.776   2.396  13.199 -2.1208 -1.4540 -0.9961
 1762TIP3   OH229480   2.027   7.104  11.235  0.6271 -0.3563  0.2696
 1762TIP3    H129481   2.062   7.024  11.273 -2.7698 -2.8403 -1.3933
 1762TIP3    H229482   2.064   7.106  11.146  0.1730 -0.4681  0.0767
 1763TIP3   OH229483   0.591   0.063  13.246 -0.1837  0.5348 -0.2702
 1763TIP3    H129484   0.549   0.128  13.302  0.5538  0.9576 -0.1987
 1763TIP3    H229485   0.522   0.034  13.187 -0.5333  1.3411 -0.2650
 1764TIP3   OH229486   1.719   5.812  10.844  0.1144 -0.0614 -0.1544
 1764TIP3    H129487   1.740   5.819  10.751  1.3338 -1.0400  0.0197
 1764TIP3    H229488   1.629   5.779  10.846 -0.0967  0.4425 -0.9800
 1765TIP3   OH229489   5.179   6.890  13.082  0.0319  0.1206  0.1564
 1765TIP3    H129490   5.247   6.935  13.032  0.6184 -1.5976 -0.6619
 1765TIP3    H229491   5.146   6.822  13.023 -0.5783 -0.7542  1.4571
 1766TIP3   OH229492   2.967   5.835  13.125 -0.0794  0.2887 -0.1635
 1766TIP3    H129493   2.871   5.833  13.116 -0.0890  0.3529 -0.0735
 1766TIP3    H229494   2.991   5.926  13.106 -0.1773  0.6245  1.2534
 1767TIP3   OH229495   2.406   2.695  13.406 -0.0185  0.5914 -0.0776
 1767TIP3    H129496   2.395   2.790  13.394  1.2381  0.6047 -1.5747
 1767TIP3    H229497   2.498   2.685  13.429  0.6829 -0.4012 -2.8722
 1768TIP3   OH229498   4.849   5.216  10.865 -0.0956 -0.0151  0.1142
 1768TIP3    H129499   4.874   5.275  10.936  1.0282  1.1168 -1.1585
 1768TIP3    H229500   4.852   5.271  10.786 -0.2579 -1.4777 -0.9541
 1769TIP3   OH229501   0.087   6.701  13.598 -0.2942 -0.0508 -0.7896
 1769TIP3    H129502   0.010   6.746  13.634  0.1426 -0.2821  0.4602
 1769TIP3    H229503   0.157   6.766  13.601 -0.3679  0.0759 -1.6791
 1770TIP3   OH229504   1.515   5.176  13.572 -0.8921  0.5571  0.0464
 1770TIP3    H129505   1.460   5.152  13.497 -2.0248 -0.7422  1.2152
 1770TIP3    H229506   1.509   5.271  13.577 -2.2751  0.5180 -0.4539
 1771TIP3   OH229507   5.083   3.919  12.658  0.0559  0.0566  0.0438
 1771TIP3    H129508   5.026   3.855  12.702  0.1225 -0.2251 -0.2812
 1771TIP3    H229509   5.153   3.867  12.619 -1.0029  0.0722 -2.0174
 1772TIP3   OH229510   0.742   6.009  11.777 -0.0995  0.3155  0.4416
 1772TIP3    H129511   0.804   5.967  11.837 -1.4507  0.8751  2.3241
 1772TIP3    H229512   0.744   6.101  11.801  1.9147  1.3107 -2.8215
 1773TIP3   OH229513   2.703   5.858  13.057  0.1969 -0.2749  0.0268
 1773TIP3    H129514   2.611   5.831  13.063 -1.1659  3.4817 -0.9849
 1773TIP3    H229515   2.704   5.947  13.094  4.0412 -1.1063  2.5028
 1774TIP3   OH229516   1.370   3.033  13.353 -0.1431 -0.0183 -0.1345
 1774TIP3    H129517   1.379   2.947  13.312 -0.8534 -0.7385  1.1373
 1774TIP3    H229518   1.358   3.093  13.280  0.0348 -1.0391 -1.0399
 1775TIP3   OH229519   0.118   2.426  13.884  0.0465  0.7052 -0.2696
 1775TIP3    H129520   0.201   2.384  13.862 -0.5242 -0.7565  0.2933
 1775TIP3    H229521   0.141   2.491  13.951  0.8737  1.0393 -0.8649
 1776TIP3   OH229522   3.031   4.185  11.557 -0.0592  0.8130  0.4223
 1776TIP3    H129523   2.982   4.160  11.479  1.9300  0.2078 -0.7000
 1776TIP3    H229524   3.063   4.102  11.593  1.8570  1.2833 -0.0873
 1777TIP3   OH229525   3.563   0.472  13.347 -0.3494  0.5663 -1.0848
 1777TIP3    H129526   3.546   0.565  13.335 -1.2378  0.8026  1.3898
 1777TIP3    H229527   3.492   0.429  13.298 -1.7599  1.3082  0.2244
 1778TIP3   OH229528   0.960   3.867  11.158 -0.1335  0.3100 -0.9873
 1778TIP3    H129529   0.886   3.858  11.097  0.0769  2.3992 -1.6128
 1778TIP3    H229530   0.996   3.953  11.139  0.7330  0.4936  1.2483
 1779TIP3   OH229531   3.258   3.105  13.662 -0.1563 -0.3960 -0.3279
 1779TIP3    H129532   3.308   3.157  13.724 -0.5739 -0.0526 -0.2735
 1779TIP3    H229533   3.195   3.057  13.716 -0.2784 -0.3727 -0.4491
 1780TIP3   OH229534   7.652   2.416  11.871 -0.5872  0.2121 -0.0928
 1780TIP3    H129535   7.733   2.464  11.889 -0.5220  0.1415 -0.2005
 1780TIP3    H229536   7.677   2.324  11.876 -0.1026  0.1535 -2.6197
 1781TIP3   OH229537   4.284   2.182  12.789  0.1606  0.6191 -0.2231
 1781TIP3    H129538   4.365   2.230  12.810 -0.3805  2.2293 -1.6945
 1781TIP3    H229539   4.237   2.179  12.872  0.4709  2.1515  0.0365
 1782TIP3   OH229540   5.959   6.469  11.980 -0.5229  0.1590 -0.3998
 1782TIP3    H129541   5.947   6.542  12.040  1.2279  0.1345  0.0591
 1782TIP3    H229542   5.971   6.510  11.894 -0.3772  0.3773 -0.2780
 1783TIP3   OH229543   6.299   7.369  12.790 -0.5898  0.3230 -0.1085
 1783TIP3    H129544   6.340   7.368  12.704 -0.6287  2.2888 -0.1934
 1783TIP3    H229545   6.206   7.357  12.773 -0.5196 -0.0229 -0.2600
 1784TIP3   OH229546   2.778   0.759  12.974 -0.0722 -0.0697  0.4074
 1784TIP3    H129547   2.827   0.706  12.912 -1.8033  1.9555 -2.9875
 1784TIP3    H229548   2.688   0.729  12.966 -0.4810  0.8334  1.3354
 1785TIP3   OH229549   5.833   3.113  11.608 -0.0575 -0.1435 -0.6543
 1785TIP3    H129550   5.780   3.191  11.591 -0.9553 -0.6992 -0.4931
 1785TIP3    H229551   5.772   3.051  11.648  0.8397 -0.6321 -0.0047
 1786TIP3   OH229552   4.577   2.896  11.783  0.0485 -0.4010  0.2378
 1786TIP3    H129553   4.524   2.847  11.846  1.3604 -1.0024  0.9332
 1786TIP3    H229554   4.546   2.986  11.790  0.9734 -0.1786  2.7467
 1787TIP3   OH229555   7.085   4.854  13.116  0.5375 -0.0185 -0.7234
 1787TIP3    H129556   7.075   4.911  13.040  2.0465 -1.1568 -1.8199
 1787TIP3    H229557   7.041   4.773  13.092 -0.9271  0.3551  0.5309
 1788TIP3   OH229558   3.023   4.800  13.139 -0.4230 -0.2590 -0.3038
 1788TIP3    H129559   3.038   4.851  13.219 -1.4849  0.1163 -0.3291
 1788TIP3    H229560   3.089   4.832  13.078 -0.1284  0.0345  0.1585
 1789TIP3   OH229561   5.030   6.183  12.693  0.1709 -0.4211 -0.0242
 1789TIP3    H129562   4.946   6.186  12.646 -0.1420 -1.6732  0.4125
 1789TIP3    H229563   5.042   6.272  12.726 -0.8514 -0.1541 -0.3359
 1790TIP3   OH229564   3.085   2.831  11.750  0.0760 -0.5495  0.1102
 1790TIP3    H129565   3.178   2.842  11.730 -0.5111  2.1644 -1.6745
 1790TIP3    H229566   3.049   2.786  11.673 -0.5165  0.9907 -0.5588
 1791TIP3   OH229567   4.508   6.523  11.519 -0.0807 -0.4237  0.8445
 1791TIP3    H129568   4.462   6.526  11.603 -0.5973  1.3617  0.5434
 1791TIP3    H229569   4.441   6.504  11.454 -0.4137  1.8096  0.4487
 1792TIP3   OH229570   0.314   2.985  13.486  0.0061  0.2261  0.8027
 1792TIP3    H129571   0.315   2.891  13.507  0.0505 -0.1265 -0.6277
 1792TIP3    H229572   0.327   2.987  13.391 -2.5748  1.5599  0.3956
 1793TIP3   OH229573   4.243   3.317  11.150  0.3674 -0.0778 -0.1105
 1793TIP3    H129574   4.321   3.262  11.149 -0.3854 -1.1982  0.7795
 1793TIP3    H229575   4.271   3.397  11.195  1.7369  0.7584 -2.2725
 1794TIP3   OH229576   0.068   3.273  12.842  0.4400  0.8277  0.2118
 1794TIP3    H129577   0.102   3.196  12.888  0.2927 -0.3930 -1.6069
 1794TIP3    H229578   0.038   3.239  12.757 -2.7875  2.2883  0.6023
 1795TIP3   OH229579   5.703   3.158  12.504 -0.5809 -0.0386 -0.2685
 1795TIP3    H129580   5.721   3.157  12.598 -0.8072 -0.3578 -0.2277
 1795TIP3    H229581   5.679   3.067  12.483 -2.0295  0.3428 -0.3512
 1796TIP3   OH229582   3.765   0.247  12.985 -0.0278 -0.6453 -0.4408
 1796TIP3    H129583   3.790   0.257  12.893  0.8173  1.3779 -0.0312
 1796TIP3    H229584   3.674   0.273  12.988  0.9159  3.1781 -0.1749
 1797TIP3   OH229585   7.241   7.514  12.702 -0.1815  0.0319  0.2075
 1797TIP3    H129586   7.242   7.420  12.720  1.9091  0.1018  0.6175
 1797TIP3    H229587   7.199   7.553  12.779  0.6431 -0.4279  0.9070
 1798TIP3   OH229588   0.836   5.806  10.992  0.1683  0.3517 -0.8311
 1798TIP3    H129589   0.900   5.759  10.939  0.9507  1.2583 -0.7233
 1798TIP3    H229590   0.866   5.897  10.991  0.1128  0.4398  0.9929
 1799TIP3   OH229591   6.627   4.676  12.577 -0.0010  0.1844 -0.2983
 1799TIP3    H129592   6.664   4.725  12.504  1.0054  0.7189  0.5426
 1799TIP3    H229593   6.588   4.742  12.634  0.7600 -0.0210  0.5017
 1800TIP3   OH229594   2.886   5.359  13.033 -0.2256  0.0802  0.4986
 1800TIP3    H129595   2.942   5.437  13.041 -0.1393 -0.0081  0.7745
 1800TIP3    H229596   2.946   5.285  13.042  0.2185 -0.1145 -2.8556
 1801TIP3   OH229597   5.192   5.531  11.716 -0.0312  0.3020  0.9656
 1801TIP3    H129598   5.281   5.557  11.735  0.1372 -0.7779  1.7834
 1801TIP3    H229599   5.201   5.450  11.666 -0.5360  1.5293 -1.2602
 1802TIP3   OH229600   1.504   6.652  12.417  0.6595 -0.4870  0.1883
 1802TIP3    H129601   1.483   6.740  12.387 -0.9959 -0.9398 -0.0734
 1802TIP3    H229602   1.599   6.654  12.433  0.7223  1.1980 -0.2220
 1803TIP3   OH229603   4.866   5.205  12.645  0.1247 -0.1654 -0.0068
 1803TIP3    H129604   4.889   5.298  12.646 -1.0295  0.1656 -1.1996
 1803TIP3    H229605   4.941   5.162  12.605 -0.6968  0.7476 -2.7755
 1804TIP3   OH229606   0.207   0.899  12.015 -0.0435  0.1714  0.6748
 1804TIP3    H129607   0.143   0.962  11.982 -0.4120 -0.7553 -0.4485
 1804TIP3    H229608   0.155   0.836  12.064 -0.0872 -0.7835 -0.5388
 1805TIP3   OH229609   2.114   5.958  12.887  0.2502  0.5042  0.1584
 1805TIP3    H129610   2.090   5.867  12.869 -1.4877  0.8243  0.6843
 1805TIP3    H229611   2.200   5.968  12.846  2.1454 -2.3202  2.9717
 1806TIP3   OH229612   2.328   1.529  13.241  0.3633 -0.5739 -0.0965
 1806TIP3    H129613   2.358   1.585  13.312  0.7281 -1.6987  0.6576
 1806TIP3    H229614   2.371   1.565  13.163 -0.6725  1.1638  0.0896
 1807TIP3   OH229615   0.181   1.728  11.951 -0.8032 -0.2654  0.4791
 1807TIP3    H129616   0.232   1.803  11.983  0.1622 -1.5146  2.0059
 1807TIP3    H229617   0.117   1.767  11.892  1.2734  1.4971 -0.7929
 1808TIP3   OH229618   3.026   1.147  12.930 -0.1886  0.0719  0.3951
 1808TIP3    H129619   2.975   1.087  12.876  2.1855 -0.3835 -1.4946
 1808TIP3    H229620   3.020   1.110  13.018 -1.4706 -1.0379 -0.1173
 1809TIP3   OH229621   7.466   5.654  12.529 -0.1157 -0.4706 -0.2556
 1809TIP3    H129622   7.540   5.706  12.561 -0.5100  0.5920 -0.9978
 1809TIP3    H229623   7.391   5.688  12.577 -0.0420 -2.1869  1.1950
 1810TIP3   OH229624   7.436   4.927  10.842 -0.0290  0.3556 -0.0238
 1810TIP3    H129625   7.399   5.014  10.859  1.0930  0.7273  0.6358
 1810TIP3    H229626   7.513   4.944  10.788  0.4704 -0.1721  0.5118
 1811TIP3   OH229627   6.625   6.346  13.387  0.1261  0.6350  0.0048
 1811TIP3    H129628   6.531   6.359  13.382  0.0312 -0.4689 -1.6417
 1811TIP3    H229629   6.663   6.425  13.348 -0.0589  1.4231  1.3514
 1812TIP3   OH229630   7.323   5.176  10.851 -0.0630 -0.6298  0.0068
 1812TIP3    H129631   7.227   5.174  10.856 -0.0282 -1.1662  0.5204
 1812TIP3    H229632   7.342   5.249  10.791 -0.8523 -1.7126 -1.6316
 1813TIP3   OH229633   1.967   0.964  11.886  0.1519 -0.5199  0.3500
 1813TIP3    H129634   1.957   1.011  11.803 -0.4727  0.6724  1.0840
 1813TIP3    H229635   2.053   0.991  11.918  0.6499 -1.4384 -0.1736
 1814TIP3   OH229636   0.574   7.211  12.808  0.3003 -0.2780 -0.0753
 1814TIP3    H129637   0.631   7.268  12.860 -0.1274 -0.6925  0.8709
 1814TIP3    H229638   0.587   7.124  12.845 -1.7620 -0.2149  0.9164
 1815TIP3   OH229639   5.287   2.337  12.004 -0.4700 -0.5867  0.2120
 1815TIP3    H129640   5.333   2.360  11.923  0.1978 -0.9679  0.4722
 1815TIP3    H229641   5.337   2.382  12.073 -2.3050  1.5487  0.2392
 1816TIP3   OH229642   0.329   4.155  13.017 -0.2272  0.2951  0.1285
 1816TIP3    H129643   0.273   4.095  12.968  1.7230 -0.8410 -0.8339
 1816TIP3    H229644   0.363   4.103  13.090  0.1335  0.7337  0.2849
 1817TIP3   OH229645   4.485   3.630  13.285 -0.2140  0.1123  0.3468
 1817TIP3    H129646   4.472   3.625  13.380  2.6571  2.3118  0.9984
 1817TIP3    H229647   4.505   3.722  13.269 -2.0757  0.1116 -2.7053
 1818TIP3   OH229648   3.876   6.555  12.504  0.3824 -0.5042  0.1493
 1818TIP3    H129649   3.941   6.625  12.500  0.2087 -0.3795 -1.4852
 1818TIP3    H229650   3.819   6.572  12.429 -0.0293 -2.0498  0.0771
 1819TIP3   OH229651   5.733   7.143  12.615 -0.1348 -0.2712  0.8275
 1819TIP3    H129652   5.776   7.155  12.531 -0.4266  0.9278  0.8375
 1819TIP3    H229653   5.708   7.231  12.643 -1.1482 -0.7736  1.5867
 1820TIP3   OH229654   2.933   4.521  12.093 -0.1586 -0.5520  0.5285
 1820TIP3    H129655   2.980   4.549  12.172 -0.8755 -2.4331  1.7082
 1820TIP3    H229656   3.002   4.504  12.029  0.3981  1.6437  0.4861
 1821TIP3   OH229657   0.414   1.298  13.437 -0.5821 -0.4921  0.0590
 1821TIP3    H129658   0.425   1.393  13.438  1.8600 -0.6954  0.9362
 1821TIP3    H229659   0.381   1.278  13.350 -3.4128  1.2907  0.5907
 1822TIP3   OH229660   5.212   2.793  12.963 -0.4412  0.4337 -0.8019
 1822TIP3    H129661   5.145   2.729  12.987 -0.4052  0.7991  0.3427
 1822TIP3    H229662   5.212   2.856  13.035  1.7830 -0.0563 -0.2863
 1823TIP3   OH229663   3.655   0.136  12.475 -0.4719 -0.6192 -0.1358
 1823TIP3    H129664   3.645   0.091  12.391  1.3078  0.9186 -1.2803
 1823TIP3    H229665   3.743   0.112  12.505 -0.3546  0.3310  0.3254
 1824TIP3   OH229666   7.229   2.105  11.090  0.1838  0.5952  0.1611
 1824TIP3    H129667   7.259   2.071  11.005  0.2278  1.1556 -0.0518
 1824TIP3    H229668   7.135   2.087  11.091 -0.1391  2.0552 -0.7301
 1825TIP3   OH229669   5.316   0.876  12.221 -0.2099  0.2136 -0.1572
 1825TIP3    H129670   5.399   0.921  12.200  0.6323 -0.8067  0.8527
 1825TIP3    H229671   5.341   0.785  12.236 -1.4630 -0.0377  0.5640
 1826TIP3   OH229672   5.836   4.866  12.956  0.3338  0.3040 -0.2154
 1826TIP3    H129673   5.811   4.937  12.897  0.0865  0.2752 -0.1500
 1826TIP3    H229674   5.765   4.864  13.021 -0.9837 -1.6103 -1.6076
 1827TIP3   OH229675   0.939   6.933  12.056  0.7321 -0.0080  0.0977
 1827TIP3    H129676   0.954   7.000  11.990 -0.0206  0.4737  0.4033
 1827TIP3    H229677   0.898   6.980  12.129 -1.3213 -1.0498 -0.3107
 1828TIP3   OH229678   4.137   4.692  11.620 -0.1574 -0.1955  0.3130
 1828TIP3    H129679   4.223   4.732  11.629 -0.1581  0.1572 -1.0949
 1828TIP3    H229680   4.150   4.619  11.559 -0.5462 -1.1594  1.3382
 1829TIP3   OH229681   5.616   2.072  11.935  0.3788  0.2269  0.6619
 1829TIP3    H129682   5.524   2.050  11.926  0.0541  1.8277 -0.4116
 1829TIP3    H229683   5.620   2.131  12.011  0.3672  0.7926  0.2351
 1830TIP3   OH229684   2.665   6.166  12.796 -0.1255 -0.1936  0.3908
 1830TIP3    H129685   2.702   6.078  12.794 -2.2537 -1.1654 -1.7767
 1830TIP3    H229686   2.680   6.197  12.885  2.0216 -2.1245  0.7768
 1831TIP3   OH229687   1.145   4.328  11.219 -0.4210 -0.3109 -0.6534
 1831TIP3    H129688   1.208   4.301  11.153  1.8501 -0.0304  1.2700
 1831TIP3    H229689   1.190   4.394  11.272 -1.8314 -0.9947  1.5953
 1832TIP3   OH229690   1.995   2.669  11.133  0.2958  0.6655  0.0595
 1832TIP3    H129691   2.032   2.757  11.125 -1.0377  1.2242 -0.2490
 1832TIP3    H229692   1.906   2.683  11.163  0.0401 -0.5875 -0.0508
 1833TIP3   OH229693   0.281   7.114  11.098  0.5833 -0.0091  0.0436
 1833TIP3    H129694   0.186   7.105  11.088  0.4052  0.0728  1.4056
 1833TIP3    H229695   0.294   7.205  11.124  1.0143 -0.0575  0.0068
 1834TIP3   OH229696   4.199   6.072  11.203 -0.1083  0.0852 -0.2968
 1834TIP3    H129697   4.245   6.126  11.140  0.6560  1.3831  1.2872
 1834TIP3    H229698   4.122   6.123  11.227  0.8914  0.8294  1.6079
 1835TIP3   OH229699   0.401   3.312  11.969  0.4830 -0.2666 -0.4065
 1835TIP3    H129700   0.334   3.244  11.969  0.2325 -0.0571  1.5528
 1835TIP3    H229701   0.469   3.279  12.028  0.1524  1.3276  0.9411
 1836TIP3   OH229702   4.162   6.492  10.814 -1.0894 -0.1793  0.4316
 1836TIP3    H129703   4.093   6.437  10.777 -0.9747  1.9032 -3.5183
 1836TIP3    H229704   4.243   6.445  10.795 -1.1058  0.3894 -1.2306
 1837TIP3   OH229705   4.612   5.407  13.340  0.2010 -0.2718  0.1306
 1837TIP3    H129706   4.700   5.372  13.332  0.2901 -0.8086  2.6921
 1837TIP3    H229707   4.624   5.501  13.354  0.1901  0.0679 -1.8099
 1838TIP3   OH229708   6.703   7.393  12.907 -0.1329 -0.1767 -0.2357
 1838TIP3    H129709   6.662   7.478  12.896  1.5689  0.6317 -0.6745
 1838TIP3    H229710   6.630   7.332  12.919 -1.3765  1.3616  0.3532
 1839TIP3   OH229711   0.495   5.482  13.387 -0.0017  0.6172 -0.3105
 1839TIP3    H129712   0.452   5.522  13.463 -1.4317 -0.3828 -0.5653
 1839TIP3    H229713   0.552   5.414  13.424 -0.2417  0.5350 -0.0930
 1840TIP3   OH229714   5.774   0.598  12.594  0.4000  0.6528  0.0953
 1840TIP3    H129715   5.701   0.659  12.586 -1.6268 -1.7930 -1.5077
 1840TIP3    H229716   5.750   0.541  12.667 -1.4339 -2.5824 -2.7417
 1841TIP3   OH229717   6.318   5.123  11.845  0.1464  0.2099 -0.1578
 1841TIP3    H129718   6.240   5.104  11.794 -1.4787  1.7728  1.5942
 1841TIP3    H229719   6.325   5.051  11.908  0.0873  0.1051 -0.2717
 1842TIP3   OH229720   1.039   5.199  13.281 -0.5473 -0.5088  0.2551
 1842TIP3    H129721   1.019   5.171  13.370  1.0614  0.5215  0.9819
 1842TIP3    H229722   1.135   5.197  13.276 -0.6272 -1.3998 -1.7455
 1843TIP3   OH229723   0.744   5.171  11.005 -0.0412  0.2839 -0.4938
 1843TIP3    H129724   0.756   5.084  10.967  0.9722  0.0047  0.4152
 1843TIP3    H229725   0.822   5.185  11.058 -0.4741  1.5056 -0.1378
 1844TIP3   OH229726   3.237   6.547  13.457 -0.0747  0.0390  0.2607
 1844TIP3    H129727   3.232   6.454  13.439  0.9224  0.1333 -0.5903
 1844TIP3    H229728   3.147   6.573  13.478 -0.5492 -0.8853 -0.5879
 1845TIP3   OH229729   2.969   3.011  12.068 -0.2592  0.4065  0.1325
 1845TIP3    H129730   2.907   2.939  12.059 -0.3436  0.5941 -0.8958
 1845TIP3    H229731   3.052   2.968  12.091  0.1545 -0.2365 -2.3254
 1846TIP3   OH229732   6.759   2.479  11.607  0.5788  0.3278  0.6618
 1846TIP3    H129733   6.810   2.543  11.557  1.7198 -0.9490  0.1269
 1846TIP3    H229734   6.738   2.411  11.543  0.6290 -0.5365  1.5462
 1847TIP3   OH229735   2.630   0.702  13.679  0.0048  0.2747  0.0009
 1847TIP3    H129736   2.615   0.643  13.606 -0.0127 -1.1568  1.1329
 1847TIP3    H229737   2.573   0.777  13.661  0.2131  0.0952 -1.5785
 1848TIP3   OH229738   3.256   0.636  12.704  0.3522 -0.6301 -0.1448
 1848TIP3    H129739   3.315   0.710  12.707  0.9174 -0.9870 -1.5216
 1848TIP3    H229740   3.313   0.559  12.707  0.0383 -0.9791 -1.6980
 1849TIP3   OH229741   5.256   5.853  13.115  0.4574 -0.4272 -0.7300
 1849TIP3    H129742   5.286   5.912  13.184  0.6758 -1.4447  0.0697
 1849TIP3    H229743   5.161   5.862  13.115  0.5254  0.3650 -1.0322
 1850TIP3   OH229744   2.923   1.236  12.592 -0.0588 -0.3182  0.2428
 1850TIP3    H129745   2.945   1.296  12.664 -1.0612 -0.5555  0.7700
 1850TIP3    H229746   2.956   1.151  12.621 -2.6484 -0.9517  1.6364
 1851TIP3   OH229747   2.132   3.273  13.193  0.4361  0.0514 -0.1080
 1851TIP3    H129748   2.185   3.277  13.114  0.7347 -2.4091 -0.1272
 1851TIP3    H229749   2.061   3.211  13.171  0.6922 -0.9103  1.5915
 1852TIP3   OH229750   3.124   5.286  12.783 -0.1723  0.0334  0.4074
 1852TIP3    H129751   3.111   5.270  12.877  1.3665 -0.6145  0.5457
 1852TIP3    H229752   3.195   5.350  12.779 -2.1519  2.3069 -0.3030
 1853TIP3   OH229753   4.902   3.706  12.000 -0.2470  0.2158 -0.3829
 1853TIP3    H129754   4.968   3.776  12.008  0.8976 -0.5213 -2.5865
 1853TIP3    H229755   4.898   3.667  12.087  2.1916  0.3525 -0.1479
 1854TIP3   OH229756   6.378   0.892  13.276 -0.1057 -0.1021 -0.1627
 1854TIP3    H129757   6.406   0.801  13.279 -0.2087 -0.1119  1.0730
 1854TIP3    H229758   6.291   0.889  13.235 -1.9010 -1.1023  3.3509
 1855TIP3   OH229759   0.005   5.618  12.124 -0.1119  0.0185 -0.1175
 1855TIP3    H129760  -0.083   5.600  12.157 -0.4588 -0.0593 -1.0391
 1855TIP3    H229761   0.036   5.691  12.177  0.7223 -2.1793  2.6876
 1856TIP3   OH229762   0.071   1.344  13.368 -0.2331  0.6480 -0.4293
 1856TIP3    H129763   0.039   1.285  13.436  0.5986 -0.3972 -0.9005
 1856TIP3    H229764   0.063   1.432  13.406 -0.6484  0.1634  0.6448
 1857TIP3   OH229765   6.551   7.653  13.716  0.1792  0.2966 -0.0633
 1857TIP3    H129766   6.482   7.717  13.735 -0.4706 -0.5304  0.4027
 1857TIP3    H229767   6.505   7.580  13.675  1.0755  0.5956 -1.7237
 1858TIP3   OH229768   7.627   2.380  13.663  0.2315  0.0354  0.3436
 1858TIP3    H129769   7.685   2.336  13.601 -1.1381 -0.8541 -0.3419
 1858TIP3    H229770   7.671   2.371  13.748  0.3100 -2.0769  0.1149
 1859TIP3   OH229771   3.554   0.386  12.379  0.7156 -0.3644  0.2646
 1859TIP3    H129772   3.484   0.362  12.319  0.3322 -1.5375  1.1408
 1859TIP3    H229773   3.581   0.303  12.419  2.0408  0.1735  0.5552
 1860TIP3   OH229774   5.494   0.622  12.945 -0.2153  0.5043 -0.4014
 1860TIP3    H129775   5.535   0.546  12.904 -0.5595  0.1403 -0.0954
 1860TIP3    H229776   5.463   0.675  12.873 -1.7000 -0.6135 -0.6427
 1861TIP3   OH229777   2.957   1.794  11.438 -0.3851 -0.0811 -0.5452
 1861TIP3    H129778   2.862   1.805  11.443 -0.1925  1.9910 -0.4546
 1861TIP3    H229779   2.988   1.874  11.396  1.3240 -0.7433 -0.6256
 1862TIP3   OH229780   0.806   5.616  13.022 -0.5072  0.6535  0.0994
 1862TIP3    H129781   0.783   5.694  13.072 -0.1508  1.4942 -0.9954
 1862TIP3    H229782   0.898   5.630  12.997 -0.5969  0.1421 -0.5477
 1863TIP3   OH229783   3.420   4.564  12.870  0.0301 -0.3089 -0.3014
 1863TIP3    H129784   3.401   4.541  12.961 -0.7634  0.7934 -0.1679
 1863TIP3    H229785   3.471   4.645  12.876  1.0756 -0.9153 -0.8092
 1864TIP3   OH229786   0.553   1.097  12.242 -0.0414  0.6918  0.3756
 1864TIP3    H129787   0.546   1.003  12.223 -4.5174  0.6885  1.0690
 1864TIP3    H229788   0.528   1.140  12.160 -0.5410  1.1875  0.7798
 1865TIP3   OH229789   4.425   0.671  10.921  0.7840 -0.4766  0.6189
 1865TIP3    H129790   4.515   0.647  10.901  0.3897 -0.2096 -1.8065
 1865TIP3    H229791   4.432   0.757  10.963  1.6942 -0.8767  1.3074
 1866TIP3   OH229792   4.138   7.430  12.589 -0.1288  0.0592 -0.3226
 1866TIP3    H129793   4.168   7.428  12.498  1.9645 -1.5604  0.3404
 1866TIP3    H229794   4.141   7.523  12.613  0.5821  0.3594 -1.5003
 1867TIP3   OH229795   1.980   2.901  11.546 -0.2218  0.1969 -0.3279
 1867TIP3    H129796   1.962   2.862  11.460  0.0803 -0.3697 -0.1395
 1867TIP3    H229797   2.071   2.930  11.540 -0.2168  0.2028 -0.2129
 1868TIP3   OH229798   0.829   1.015  13.657 -0.0878  0.5616 -0.1574
 1868TIP3    H129799   0.754   0.977  13.612  1.2641  0.0304 -2.1237
 1868TIP3    H229800   0.806   1.013  13.750 -2.0544 -0.5199 -0.6252
 1869TIP3   OH229801   5.091   5.782  13.457  0.3412  0.4343 -0.0697
 1869TIP3    H129802   5.123   5.711  13.401 -0.8907 -1.2211  1.2194
 1869TIP3    H229803   5.001   5.797  13.429  0.8614  2.1986 -0.9419
 1870TIP3   OH229804   4.123   6.101  13.373  0.3070  0.0127  0.0438
 1870TIP3    H129805   4.216   6.082  13.366  0.2814 -0.4739  0.8926
 1870TIP3    H229806   4.080   6.024  13.336  0.2397 -0.0884  0.3266
 1871TIP3   OH229807   4.037   6.713  13.272  0.1785  0.0429 -0.5476
 1871TIP3    H129808   4.099   6.734  13.202 -0.2499 -1.7749 -1.5213
 1871TIP3    H229809   3.952   6.712  13.230 -0.4098  1.3554  0.5415
 1872TIP3   OH229810   3.658   3.826  12.470 -0.7711  0.0328  0.4312
 1872TIP3    H129811   3.667   3.857  12.560 -2.7975 -1.8625  1.3737
 1872TIP3    H229812   3.709   3.745  12.468  0.4193  0.7794 -0.5725
 1873TIP3   OH229813   6.210   6.089  12.896 -0.2714  0.2396  0.4426
 1873TIP3    H129814   6.306   6.084  12.902 -0.3420 -0.2083  1.4906
 1873TIP3    H229815   6.192   6.095  12.802  0.7734 -0.0971  0.2035
 1874TIP3   OH229816   5.622   4.633  12.984 -0.3927  0.2612 -0.5443
 1874TIP3    H129817   5.528   4.624  12.994 -0.6814  0.8789 -2.3348
 1874TIP3    H229818   5.647   4.701  13.046 -0.8029 -1.0825  1.1787
 1875TIP3   OH229819   1.073   1.512  11.628  0.1937  0.6738  0.1630
 1875TIP3    H129820   1.168   1.511  11.619  0.2698 -0.2711  0.9411
 1875TIP3    H229821   1.042   1.445  11.568  0.1408 -0.1056  1.0458
 1876TIP3   OH229822   6.048   4.262  12.636 -0.3974 -0.0487  0.1698
 1876TIP3    H129823   6.054   4.205  12.713  1.5115  0.2160  0.2706
 1876TIP3    H229824   6.005   4.209  12.570  0.2715 -1.2006  0.6337
 1877TIP3   OH229825   5.494   1.552  12.546  0.4441 -0.6182 -0.3175
 1877TIP3    H129826   5.487   1.494  12.622 -1.5193 -2.2219 -1.5838
 1877TIP3    H229827   5.573   1.523  12.501  1.4775  0.1703  0.9325
 1878TIP3   OH229828   4.765   6.833  12.733 -0.3396  0.0960 -0.5886
 1878TIP3    H129829   4.790   6.925  12.728  1.4529 -0.3205 -0.2597
 1878TIP3    H229830   4.835   6.787  12.687  1.2322 -1.4283  2.9125
 1879TIP3   OH229831   3.888   7.210  13.561  0.0924  0.4590 -0.8492
 1879TIP3    H129832   3.822   7.184  13.496 -0.5155  0.8660 -0.4100
 1879TIP3    H229833   3.844   7.278  13.613  0.7778  0.5580 -0.3905
 1880TIP3   OH229834   3.808   3.464  12.667 -0.3835  0.1740 -0.5665
 1880TIP3    H129835   3.886   3.479  12.720 -1.0330  0.4023  0.3576
 1880TIP3    H229836   3.750   3.537  12.690 -0.5964  0.3936 -1.7625
 1881TIP3   OH229837   4.181   6.910  11.844  0.4962 -0.0266 -0.4200
 1881TIP3    H129838   4.106   6.850  11.835  0.2806 -0.3489  2.6379
 1881TIP3    H229839   4.141   6.993  11.869  1.0590  0.2849 -0.5576
 1882TIP3   OH229840   3.188   0.614  11.200 -0.1332  0.0620 -0.2034
 1882TIP3    H129841   3.218   0.704  11.208  0.8506 -0.3535  1.2547
 1882TIP3    H229842   3.119   0.605  11.265  0.4537 -0.4871  0.3603
 1883TIP3   OH229843   6.105   2.784  11.292  0.5230 -0.0839  0.1848
 1883TIP3    H129844   6.094   2.693  11.322 -1.0341  0.0384  0.0400
 1883TIP3    H229845   6.196   2.804  11.313  0.4326 -1.1109  1.8005
 1884TIP3   OH229846   2.721   5.702  11.884  0.5608  0.3661  0.1831
 1884TIP3    H129847   2.740   5.744  11.800 -0.8352 -0.3171 -0.5011
 1884TIP3    H229848   2.802   5.657  11.908  0.8221  0.1658 -1.0405
 1885TIP3   OH229849   5.638   3.180  13.286  0.5051 -0.3790  0.3027
 1885TIP3    H129850   5.631   3.167  13.380  0.3019 -0.1407  0.3222
 1885TIP3    H229851   5.562   3.136  13.249 -1.5967  2.6954  0.5537
 1886TIP3   OH229852   2.974   1.921  12.645  0.0347 -0.0200  0.0078
 1886TIP3    H129853   3.069   1.922  12.632  0.3240 -0.1810  1.7989
 1886TIP3    H229854   2.941   1.866  12.574  1.1579  0.7846 -1.1976
 1887TIP3   OH229855   2.122   4.985  12.793 -0.0645 -0.5380  0.1485
 1887TIP3    H129856   2.114   4.946  12.880 -0.2744  1.2223  0.9491
 1887TIP3    H229857   2.179   4.925  12.745 -1.2920 -2.4178  0.9380
 1888TIP3   OH229858   3.020   7.159  13.249  0.2959 -0.2884  0.1040
 1888TIP3    H129859   3.055   7.074  13.273  1.2998  0.0614 -0.0925
 1888TIP3    H229860   3.049   7.218  13.318  0.7997  0.1663 -0.4896
 1889TIP3   OH229861   2.159   6.743  13.375  0.2353  0.3406  0.3511
 1889TIP3    H129862   2.122   6.745  13.463  2.1088  0.0854  1.2030
 1889TIP3    H229863   2.135   6.827  13.337  0.7973  1.1628  1.7364
 1890TIP3   OH229864   6.886   0.443  12.256 -0.1104  0.1126 -0.0935
 1890TIP3    H129865   6.897   0.501  12.332  1.2856 -2.5387  1.8697
 1890TIP3    H229866   6.960   0.464  12.199 -1.3042  2.2971 -0.9750
 1891TIP3   OH229867   4.252   2.577  12.501  0.0206  0.1088  0.2252
 1891TIP3    H129868   4.173   2.596  12.451  0.1573  0.8435  0.2733
 1891TIP3    H229869   4.251   2.482  12.514 -0.3613 -0.0037 -0.5957
 1892TIP3   OH229870   7.256   1.533  13.071  0.5427 -0.5313  0.3814
 1892TIP3    H129871   7.169   1.498  13.090  0.4862 -0.0093  1.1209
 1892TIP3    H229872   7.303   1.527  13.155  0.1705  2.1656  0.8563
 1893TIP3   OH229873   1.605   3.103  11.982  0.0962  1.2749 -0.3096
 1893TIP3    H129874   1.543   3.099  12.054 -2.2923  1.4114 -2.2156
 1893TIP3    H229875   1.558   3.064  11.908  2.7976  0.1910 -1.5834
 1894TIP3   OH229876   3.533   1.297  11.067  0.0522 -0.4625  0.2163
 1894TIP3    H129877   3.551   1.391  11.062 -0.3238 -0.3361  1.1006
 1894TIP3    H229878   3.605   1.256  11.019  2.3280  0.0693  2.9064
 1895TIP3   OH229879   3.292   5.382  11.507  0.4311 -0.3304 -0.1871
 1895TIP3    H129880   3.324   5.451  11.565 -0.0015 -0.4063  0.1521
 1895TIP3    H229881   3.334   5.399  11.423 -0.4835  1.0002 -0.4139
 1896TIP3   OH229882   0.346   0.438  13.594 -0.2973 -0.0031  0.0404
 1896TIP3    H129883   0.410   0.509  13.582 -0.7059  0.8051  2.1400
 1896TIP3    H229884   0.398   0.365  13.629  0.1458 -0.8429 -2.2414
 1897TIP3   OH229885   2.012   6.592  13.127  0.0238  0.5021 -0.1174
 1897TIP3    H129886   1.928   6.605  13.084  1.0238  3.7270 -1.4312
 1897TIP3    H229887   2.013   6.654  13.200  0.8890 -0.2275  0.5281
 1898TIP3   OH229888   1.159   6.530  12.554  0.4196 -0.2707 -0.5413
 1898TIP3    H129889   1.198   6.483  12.480  2.5261  0.2808  0.1501
 1898TIP3    H229890   1.152   6.465  12.623 -1.0845 -0.6650 -1.0397
 1899TIP3   OH229891   0.988   2.360  11.928  0.4241 -0.2197  0.0666
 1899TIP3    H129892   0.981   2.351  11.832 -0.0723  0.1976  0.0637
 1899TIP3    H229893   0.938   2.286  11.962  0.3704 -0.2095  0.0094
 1900TIP3   OH229894   0.695   0.554  13.257  0.1385 -0.2004 -0.3589
 1900TIP3    H129895   0.650   0.470  13.249 -1.3280  0.4980  0.0546
 1900TIP3    H229896   0.668   0.603  13.180 -0.5644  0.5543  0.3452
 1901TIP3   OH229897   0.772   3.431  12.196  0.0341 -0.1637 -0.0135
 1901TIP3    H129898   0.812   3.351  12.162  0.6989  0.4675 -0.7787
 1901TIP3    H229899   0.801   3.435  12.288 -0.0827 -0.8418  0.0562
 1902TIP3   OH229900   3.113   2.014  12.334 -0.0170 -0.1661 -0.3838
 1902TIP3    H129901   3.066   2.091  12.301 -0.5533 -1.5364 -3.0626
 1902TIP3    H229902   3.202   2.047  12.351 -0.3113  1.1299 -1.1637
 1903TIP3   OH229903   1.782   4.240  12.864  0.0889  0.6846  0.7676
 1903TIP3    H129904   1.744   4.311  12.915  0.1180  0.6234  0.8758
 1903TIP3    H229905   1.709   4.182  12.846  0.0343  0.8227  0.5422
 1904TIP3   OH229906   3.025   1.093  11.925 -0.1628 -0.3459  0.2137
 1904TIP3    H129907   3.090   1.148  11.968 -0.9285  0.9934 -0.3123
 1904TIP3    H229908   3.063   1.005  11.928  0.7831  0.0787  1.6549
 1905TIP3   OH229909   6.092   0.387  12.529 -0.2031  0.3233 -0.6405
 1905TIP3    H129910   6.120   0.329  12.600  0.5086  1.6039  0.1567
 1905TIP3    H229911   5.997   0.373  12.524 -0.1594 -0.3347  0.0627
 1906TIP3   OH229912   2.618   6.588  13.422  0.7521  0.2882 -0.1857
 1906TIP3    H129913   2.585   6.512  13.374  2.4759 -1.0015  0.5428
 1906TIP3    H229914   2.672   6.635  13.359  1.0472 -0.0481 -0.1867
 1907TIP3   OH229915   5.544   1.122  11.529  0.5259 -0.0044  0.0902
 1907TIP3    H129916   5.635   1.093  11.531  0.5605  0.0898  2.6285
 1907TIP3    H229917   5.541   1.188  11.460  1.8749 -1.4328 -1.4240
 1908TIP3   OH229918   3.723   3.867  13.411 -0.0414 -0.1908 -0.1398
 1908TIP3    H129919   3.767   3.950  13.427 -0.0129 -0.1346 -0.5101
 1908TIP3    H229920   3.791   3.801  13.424 -0.2035 -0.2011  0.7382
 1909TIP3   OH229921   6.002   3.281  12.609  0.5546 -0.5152  0.1748
 1909TIP3    H129922   6.019   3.209  12.669  1.6037 -2.7514 -2.5566
 1909TIP3    H229923   6.075   3.342  12.621  0.4270 -0.6127  1.5076
 1910TIP3   OH229924   3.281   4.121  11.786  0.3739  0.2366  0.3511
 1910TIP3    H129925   3.310   4.086  11.702  0.2802  1.5840 -0.2746
 1910TIP3    H229926   3.192   4.089  11.797  0.1481  0.5967 -0.3968
 1911TIP3   OH229927   1.908   5.892  13.479 -0.3993  0.1519  0.5925
 1911TIP3    H129928   1.814   5.897  13.458  0.1068 -1.2719 -2.5905
 1911TIP3    H229929   1.942   5.979  13.459 -0.1544 -0.8072 -4.4203
 1912TIP3   OH229930   0.272   2.935  11.752  0.7027  0.5913  0.0673
 1912TIP3    H129931   0.359   2.953  11.716  0.7149  2.0276  0.7546
 1912TIP3    H229932   0.220   2.910  11.676  1.1967  1.7489 -0.6784
 1913TIP3   OH229933   1.650   1.633  12.902  0.2061  0.0307  0.2416
 1913TIP3    H129934   1.612   1.678  12.827  1.7923 -0.7189 -1.0939
 1913TIP3    H229935   1.724   1.688  12.928 -0.3349  0.2847  1.2656
 1914TIP3   OH229936   7.631   6.153  12.885 -0.6927 -0.0274  0.2299
 1914TIP3    H129937   7.661   6.175  12.974 -0.4373  0.0824  0.1194
 1914TIP3    H229938   7.668   6.066  12.869 -0.7572 -0.0564  0.2403
 1915TIP3   OH229939   7.430   6.262  12.394  0.4164  0.0387  0.2238
 1915TIP3    H129940   7.407   6.234  12.482  0.6146  1.6970  0.8451
 1915TIP3    H229941   7.450   6.355  12.403  1.6829 -0.0333 -1.3411
 1916TIP3   OH229942   1.917   3.071  13.111 -0.3024  0.3663 -0.2684
 1916TIP3    H129943   1.925   3.089  13.018 -0.5561 -2.0692 -0.8324
 1916TIP3    H229944   1.847   3.006  13.117 -1.1252  1.3495  1.7679
 1917TIP3   OH229945   5.079   4.757  13.363 -0.2702  0.0837  0.1531
 1917TIP3    H129946   5.032   4.807  13.430 -0.1396  1.3298 -0.6727
 1917TIP3    H229947   5.067   4.806  13.282 -0.3602 -1.3590 -0.7515
 1918TIP3   OH229948   4.712   5.563  12.501 -0.3540  0.3514 -0.3079
 1918TIP3    H129949   4.770   5.632  12.470  0.2353  1.8714  3.6047
 1918TIP3    H229950   4.633   5.608  12.528 -0.6261 -0.7158  0.7798
 1919TIP3   OH229951   5.124   1.284  11.073  0.2624  0.2421 -0.0988
 1919TIP3    H129952   5.152   1.366  11.114 -1.1419  0.8641 -0.3015
 1919TIP3    H229953   5.120   1.304  10.979  2.4234 -0.8531 -0.4758
 1920TIP3   OH229954   4.266   2.526  13.256  0.5544 -0.4542  0.0931
 1920TIP3    H129955   4.308   2.581  13.190 -0.6259  0.5605  0.1320
 1920TIP3    H229956   4.196   2.581  13.291  1.1166 -0.9706  2.1685
 1921TIP3   OH229957   3.679   5.483  11.948 -0.0731 -0.1311  0.1206
 1921TIP3    H129958   3.770   5.455  11.958  0.0192 -0.1866 -0.7833
 1921TIP3    H229959   3.662   5.536  12.026  0.3432 -1.1180  0.8954
 1922TIP3   OH229960   4.670   5.912  14.001  0.0042 -0.6818 -0.6882
 1922TIP3    H129961   4.605   5.863  14.051  0.4562 -0.2471  0.3543
 1922TIP3    H229962   4.622   5.987  13.966 -0.2897 -0.9263 -0.8086
 1923TIP3   OH229963   4.841   2.948  11.970 -0.1354  0.0862  0.3219
 1923TIP3    H129964   4.819   2.984  12.056  2.6987  2.0314  0.3997
 1923TIP3    H229965   4.807   3.011  11.907 -1.2273 -0.7568  0.0463
 1924TIP3   OH229966   2.828   0.138  11.637 -0.0780 -0.5147  0.0888
 1924TIP3    H129967   2.923   0.139  11.644  0.0063  0.7363 -0.7833
 1924TIP3    H229968   2.797   0.147  11.727  0.5844 -2.2730  0.5241
 1925TIP3   OH229969   5.116   5.058  13.207  0.0289 -0.4361 -0.2118
 1925TIP3    H129970   5.077   5.112  13.138  0.7048 -0.4490 -0.6069
 1925TIP3    H229971   5.161   4.988  13.160 -2.5336 -2.5955  0.3017
 1926TIP3   OH229972   5.270   5.334  13.014  0.2177 -0.0434  0.1531
 1926TIP3    H129973   5.333   5.336  12.942  0.3866  0.2220  0.3050
 1926TIP3    H229974   5.301   5.262  13.070  0.9316  0.6661  0.7045
 1927TIP3   OH229975   2.832   5.902  12.800  0.2172  0.5585 -0.2721
 1927TIP3    H129976   2.819   5.901  12.895 -1.4764  1.5820 -0.4405
 1927TIP3    H229977   2.884   5.824  12.782  0.1180  0.0511  1.4355
 1928TIP3   OH229978   6.092   3.845  12.163  0.1729  0.4108 -0.4673
 1928TIP3    H129979   6.037   3.923  12.165 -1.4824 -0.6927 -0.9054
 1928TIP3    H229980   6.172   3.870  12.208  0.5787  3.0154 -2.4047
 1929TIP3   OH229981   4.018   3.733  13.167 -0.3374  0.4223 -0.0690
 1929TIP3    H129982   4.089   3.773  13.116 -0.9214 -1.1158 -2.2160
 1929TIP3    H229983   4.048   3.644  13.183 -1.3972  0.0442 -0.1818
 1930TIP3   OH229984   2.519   3.280  12.934  0.4004  0.2799  0.3133
 1930TIP3    H129985   2.606   3.274  12.896  0.7474  2.5923  0.5573
 1930TIP3    H229986   2.460   3.249  12.865  1.1540  2.5551 -1.4861
 1931TIP3   OH229987   7.055   6.957  12.618 -0.5897 -0.0786  0.7176
 1931TIP3    H129988   7.062   6.869  12.580 -1.8382 -0.5597  1.5488
 1931TIP3    H229989   7.116   6.956  12.691 -1.6649 -0.7840  1.6400
 1932TIP3   OH229990   5.587   2.580  11.906  0.1041  0.2092  0.0304
 1932TIP3    H129991   5.577   2.674  11.889  0.5044  0.8461  2.8499
 1932TIP3    H229992   5.521   2.539  11.850 -0.6511  2.2276 -0.6671
 1933TIP3   OH229993   7.615   7.470  13.553 -0.3795  0.0951 -0.0877
 1933TIP3    H129994   7.641   7.524  13.479 -0.2745  0.3246  0.1159
 1933TIP3    H229995   7.562   7.400  13.514  0.1941 -0.1453 -0.4526
 1934TIP3   OH229996   6.381   0.307  11.929 -0.3496 -0.5215 -0.8561
 1934TIP3    H129997   6.388   0.304  12.024 -0.5161 -2.3288 -0.8737
 1934TIP3    H229998   6.326   0.384  11.911 -2.6432 -1.7160  0.6560
 1935TIP3   OH229999   4.006   6.466  13.640 -0.3768 -0.0500  0.1568
 1935TIP3    H130000   4.001   6.546  13.589  3.0149 -0.6366 -1.3930
 1935TIP3    H230001   3.970   6.398  13.583  0.0444 -0.1472  0.0012
 1936TIP3   OH230002   7.513   7.585  12.655 -0.1372 -0.0433  0.5909
 1936TIP3    H130003   7.417   7.584  12.649 -0.1298  0.0969  0.4303
 1936TIP3    H230004   7.540   7.637  12.579  0.0273  0.6849  1.1374
 1937TIP3   OH230005   5.753   4.495  13.579  0.5194  0.1111 -0.2382
 1937TIP3    H130006   5.753   4.581  13.538 -0.8243 -0.4468 -1.5245
 1937TIP3    H230007   5.789   4.509  13.667  0.5927  1.9064 -0.5289
 1938TIP3   OH230008   2.552   1.153  13.501 -0.6636  0.0852  0.5610
 1938TIP3    H130009   2.627   1.212  13.493  0.4637 -1.3870 -0.4277
 1938TIP3    H230010   2.480   1.208  13.531  0.2099  2.0462 -0.7492
 1939TIP3   OH230011   2.059   1.433  12.853 -0.7825 -0.6532  0.3428
 1939TIP3    H130012   2.035   1.489  12.779 -0.6661 -0.7325  0.2448
 1939TIP3    H230013   2.154   1.422  12.844 -0.5469  0.4388  1.2538
 1940TIP3   OH230014   2.461   2.707  11.990 -0.1658  0.4581  0.2765
 1940TIP3    H130015   2.412   2.718  11.909 -0.2532  0.4775  0.3320
 1940TIP3    H230016   2.450   2.790  12.037 -0.1624  0.4272  0.3329
 1941TIP3   OH230017   6.067   7.292  13.333  0.2413  0.2709 -0.0570
 1941TIP3    H130018   6.125   7.229  13.290  1.1458  1.5221 -0.7550
 1941TIP3    H230019   6.106   7.305  13.420 -0.9071 -1.3508  0.7610
 1942TIP3   OH230020   7.626   4.894  12.232 -0.0012  0.6382  0.3171
 1942TIP3    H130021   7.689   4.848  12.287 -0.0972  1.2479  0.9528
 1942TIP3    H230022   7.675   4.968  12.195  0.0866  0.1833 -0.4991
 1943TIP3   OH230023   3.362   4.739  11.339 -0.0998  0.3991 -0.3473
 1943TIP3    H130024   3.290   4.752  11.401 -0.0302  0.9974 -0.3951
 1943TIP3    H230025   3.334   4.784  11.260 -0.4216 -0.8079 -0.9444
 1944TIP3   OH230026   6.273   1.212  13.240  0.2433  0.8956 -0.1653
 1944TIP3    H130027   6.273   1.201  13.145 -0.4533  0.4875 -0.1208
 1944TIP3    H230028   6.228   1.134  13.273 -3.1641  2.8575  0.2714
 1945TIP3   OH230029   5.189   4.769  12.101 -0.0496 -0.7330  0.7583
 1945TIP3    H130030   5.159   4.859  12.109  0.5238 -0.3968 -0.5046
 1945TIP3    H230031   5.132   4.731  12.033 -0.0728 -1.2163  1.0457
 1946TIP3   OH230032   5.585   0.371  13.085 -0.1443  0.3187  0.0868
 1946TIP3    H130033   5.512   0.310  13.090 -1.1832  1.4711 -0.3397
 1946TIP3    H230034   5.639   0.349  13.161 -0.5685 -1.0001  0.0334
 1947TIP3   OH230035   1.695   6.045  11.789  0.4969  0.2279  0.9946
 1947TIP3    H130036   1.609   6.025  11.751  0.8912 -0.7968  0.6238
 1947TIP3    H230037   1.720   6.129  11.749  0.5099 -0.4037 -0.3557
 1948TIP3   OH230038   5.895   1.682  11.992  0.1491  0.5217  0.4218
 1948TIP3    H130039   5.895   1.721  11.904 -0.4179  0.2420  0.2943
 1948TIP3    H230040   5.871   1.754  12.050  1.8977  1.0668  0.5271
 1949TIP3   OH230041   4.949   5.552  11.855  0.7189  0.2859 -0.5381
 1949TIP3    H130042   4.892   5.503  11.796 -0.3146  1.1303 -0.2686
 1949TIP3    H230043   5.037   5.542  11.818  0.7499 -2.6559  0.1020
 1950TIP3   OH230044   1.736   3.313  12.709 -0.0261  0.3083 -0.6952
 1950TIP3    H130045   1.764   3.391  12.662  0.9731  0.0619 -0.5352
 1950TIP3    H230046   1.662   3.279  12.658 -0.2858  1.1880 -0.9199
 1951TIP3   OH230047   2.966   0.564  13.667  0.3253 -0.6456  0.1547
 1951TIP3    H130048   2.925   0.643  13.631  1.8159  0.2812  0.4026
 1951TIP3    H230049   2.976   0.506  13.591 -0.1849 -0.3291 -0.1576
 1952TIP3   OH230050   1.355   4.230  12.195 -0.5435 -0.1354 -0.2728
 1952TIP3    H130051   1.422   4.195  12.253  0.9888  0.4819 -1.6087
 1952TIP3    H230052   1.278   4.242  12.252  0.7774  0.1340  1.5329
 1953TIP3   OH230053   4.511   4.320  11.966 -0.5173  0.0078 -0.8972
 1953TIP3    H130054   4.512   4.252  11.898  0.7483  0.4218 -1.3232
 1953TIP3    H230055   4.600   4.356  11.965 -0.7088  0.5701  0.4387
 1954TIP3   OH230056   7.633   0.787  13.007  0.3095  0.9108 -0.1395
 1954TIP3    H130057   7.649   0.716  13.071 -1.4273 -0.8156 -1.5092
 1954TIP3    H230058   7.713   0.839  13.009  0.7753  0.2500  2.5766
 1955TIP3   OH230059   5.409   4.715  12.714 -0.4233  0.2964  0.3605
 1955TIP3    H130060   5.376   4.755  12.634 -1.7786  0.5802  1.0287
 1955TIP3    H230061   5.394   4.621  12.703 -1.2618  0.4014  0.5571
 1956TIP3   OH230062   5.527   3.986  11.377 -0.4742 -0.5262  0.5242
 1956TIP3    H130063   5.525   3.893  11.357 -0.8762 -0.2930 -0.5821
 1956TIP3    H230064   5.454   4.023  11.327  1.5514  0.8468 -1.6305
 1957TIP3   OH230065   6.859   7.145  13.092 -0.1658 -0.1097 -0.2087
 1957TIP3    H130066   6.858   7.212  13.023 -1.3887  1.6884  1.4392
 1957TIP3    H230067   6.768   7.140  13.121 -0.4774 -3.7782 -1.3384
 1958TIP3   OH230068   0.446   6.747  13.131 -0.0714 -0.0720  0.0411
 1958TIP3    H130069   0.374   6.699  13.172  0.4615  1.6571  3.3571
 1958TIP3    H230070   0.416   6.837  13.127  2.0177  0.8204  2.1418
 1959TIP3   OH230071   0.119   6.379  12.675  0.0370 -0.0674 -0.2057
 1959TIP3    H130072   0.122   6.352  12.584 -0.5027  0.6462 -0.4490
 1959TIP3    H230073   0.027   6.373  12.699 -0.0158  0.9699 -0.1016
 1960TIP3   OH230074   2.223   4.656  12.791  0.3173  0.6482 -0.2203
 1960TIP3    H130075   2.204   4.573  12.834 -0.4485  1.5848  1.3816
 1960TIP3    H230076   2.295   4.694  12.843 -0.9156  2.0014  0.6031
 1961TIP3   OH230077   2.267   3.009  11.759  0.1745  0.0367  0.1403
 1961TIP3    H130078   2.275   2.913  11.760  1.5192  0.1193  0.0150
 1961TIP3    H230079   2.294   3.034  11.671  2.1214  0.6570  0.8655
 1962TIP3   OH230080   2.501   5.591  11.278  0.5038 -0.6550 -0.5643
 1962TIP3    H130081   2.506   5.604  11.183 -0.9094 -0.3555 -0.6198
 1962TIP3    H230082   2.582   5.629  11.312  0.9701 -0.6613 -1.6349
 1963TIP3   OH230083   6.261   5.272  13.109  0.0890 -0.0262 -0.4151
 1963TIP3    H130084   6.188   5.311  13.156 -1.7624 -0.4409 -2.7471
 1963TIP3    H230085   6.277   5.331  13.036  1.1808 -0.6535 -0.7168
 1964TIP3   OH230086   5.038   1.940  12.889  0.0584  0.3385  0.1796
 1964TIP3    H130087   4.958   1.898  12.858 -1.2787  0.3484  3.2519
 1964TIP3    H230088   5.095   1.867  12.913 -0.7743  0.2048  1.9433
 1965TIP3   OH230089   1.698   0.374  11.852  0.8932 -0.0358 -0.2033
 1965TIP3    H130090   1.693   0.279  11.837  0.6700 -0.0210 -0.2219
 1965TIP3    H230091   1.695   0.412  11.764  1.0436 -0.0144 -0.1980
 1966TIP3   OH230092   0.926   1.288  11.922 -0.1633  0.0819 -0.6179
 1966TIP3    H130093   0.877   1.221  11.876  0.4752 -0.7877 -0.0614
 1966TIP3    H230094   1.016   1.277  11.892  0.2030 -0.2864  0.5630
 1967TIP3   OH230095   7.427   3.107  12.720  0.1006  0.2669 -0.3385
 1967TIP3    H130096   7.360   3.080  12.658  0.3071 -1.2061  0.0509
 1967TIP3    H230097   7.389   3.183  12.765 -0.8671  0.0992 -0.8528
 1968TIP3   OH230098   6.377   6.277  11.613 -0.3408  0.2171  0.4714
 1968TIP3    H130099   6.359   6.268  11.707  0.4168  0.8300  0.6873
 1968TIP3    H230100   6.291   6.294  11.574 -0.9649 -2.0026  0.7670
 1969TIP3   OH230101   2.848   2.573  12.656  0.0971  0.0273  0.0503
 1969TIP3    H130102   2.799   2.655  12.658  2.3887  1.4554  0.9827
 1969TIP3    H230103   2.897   2.575  12.574 -0.0581 -0.5630 -0.0654
 1970TIP3   OH230104   6.907   1.788  11.482 -0.4900  0.8428  0.0974
 1970TIP3    H130105   6.958   1.785  11.401  2.7900  0.2896  2.0440
 1970TIP3    H230106   6.912   1.880  11.510 -1.6926  1.0509 -0.2902
 1971TIP3   OH230107   3.259   7.336  11.406 -0.8227  0.4486 -0.2812
 1971TIP3    H130108   3.191   7.403  11.412 -1.5781 -0.4013  1.2923
 1971TIP3    H230109   3.251   7.302  11.317 -0.8486  1.9904 -0.8949
 1972TIP3   OH230110   2.232   5.998  13.673  0.1735  0.0515  0.3805
 1972TIP3    H130111   2.166   5.965  13.734  0.8471 -0.4911  0.8403
 1972TIP3    H230112   2.313   6.000  13.724  0.8249 -0.7234 -0.5823
 1973TIP3   OH230113   3.659   5.602  13.560  0.2452 -0.0639  0.0380
 1973TIP3    H130114   3.644   5.511  13.532 -0.8694  0.4311 -1.0315
 1973TIP3    H230115   3.752   5.604  13.582  0.4247 -1.3256 -0.4740
 1974TIP3   OH230116   6.209   6.102  12.379 -0.1039 -0.6977  0.7805
 1974TIP3    H130117   6.170   6.016  12.396  0.6379 -1.3415 -0.6454
 1974TIP3    H230118   6.157   6.137  12.307  1.5915 -1.3759 -0.8422
 1975TIP3   OH230119   2.137   1.149  12.204 -0.3398  0.5521  0.4297
 1975TIP3    H130120   2.087   1.076  12.240  0.2177 -0.0309  0.0457
 1975TIP3    H230121   2.167   1.117  12.119  0.8276  0.8134  0.7280
 1976TIP3   OH230122   1.014   2.424  12.344 -0.2372 -0.9687 -0.2883
 1976TIP3    H130123   1.023   2.329  12.348 -1.8799 -1.1821 -0.7581
 1976TIP3    H230124   0.930   2.442  12.388  0.5747  0.3792  0.7829
 1977TIP3   OH230125   7.128   5.893  13.464  0.6232  0.4105 -0.1822
 1977TIP3    H130126   7.183   5.970  13.451  0.4706  0.4054 -0.8901
 1977TIP3    H230127   7.158   5.855  13.547  0.4911  1.4023  0.3302
 1978TIP3   OH230128   1.968   1.095  11.629 -0.1442  0.2817 -1.0635
 1978TIP3    H130129   1.953   1.010  11.588 -0.8967  0.5110 -1.2740
 1978TIP3    H230130   2.062   1.110  11.620  0.3679 -1.3967  0.6688
 1979TIP3   OH230131   3.897   2.322  12.405  0.1365 -0.5900  0.5381
 1979TIP3    H130132   3.916   2.371  12.485 -2.2267 -0.5008  1.1365
 1979TIP3    H230133   3.944   2.239  12.415  1.5388  0.2418  1.0300
 1980TIP3   OH230134   7.558   2.260  12.208 -0.5571 -0.6438 -0.2123
 1980TIP3    H130135   7.499   2.334  12.197 -0.8678 -1.0190 -1.1982
 1980TIP3    H230136   7.583   2.236  12.119  1.9031  0.1375  0.2202
 1981TIP3   OH230137   3.895   0.037  13.405 -0.0313  0.1980  0.1227
 1981TIP3    H130138   3.870  -0.037  13.350  0.5539  0.5297 -0.6177
 1981TIP3    H230139   3.814   0.066  13.446 -0.9981  1.5499 -2.5589
 1982TIP3   OH230140   2.489   6.133  11.251 -0.4009  0.9199 -0.1764
 1982TIP3    H130141   2.468   6.188  11.175 -0.4696  1.4281  0.2042
 1982TIP3    H230142   2.493   6.195  11.324  1.4509  0.7114 -0.0616
 1983TIP3   OH230143   7.516   3.728  10.996  0.0230  0.6485  0.3716
 1983TIP3    H130144   7.593   3.690  10.954 -0.1337 -0.1546  0.7847
 1983TIP3    H230145   7.462   3.652  11.021 -0.6966  1.1769  0.4723
 1984TIP3   OH230146   1.473   5.813  11.468 -0.3462 -0.4669  0.4888
 1984TIP3    H130147   1.465   5.865  11.548 -2.8294  1.1167 -0.6781
 1984TIP3    H230148   1.516   5.871  11.406 -1.9825 -0.2083 -0.4461
 1985TIP3   OH230149   2.003   6.152  13.438  0.5702 -0.6697  0.5552
 1985TIP3    H130150   1.952   6.185  13.364  0.5637  1.3241  1.3780
 1985TIP3    H230151   2.082   6.114  13.398  0.4285  0.0934 -0.4944
 1986TIP3   OH230152   4.032   3.171  11.403  0.5828  0.0776  0.0827
 1986TIP3    H130153   4.057   3.144  11.315  0.3328  0.7075 -0.1860
 1986TIP3    H230154   4.004   3.262  11.393 -0.5322 -0.1918  0.6116
 1987TIP3   OH230155   2.787   7.011  12.256 -0.0426  0.5043 -0.2435
 1987TIP3    H130156   2.753   7.029  12.168  0.3558 -1.3651 -0.8193
 1987TIP3    H230157   2.856   7.076  12.268 -0.8835  1.5411 -0.8158
 1988TIP3   OH230158   1.236   3.252  11.436 -0.0336 -0.1957  0.2737
 1988TIP3    H130159   1.301   3.286  11.497 -0.6216  0.1464  0.7261
 1988TIP3    H230160   1.280   3.251  11.351  0.9461 -1.1166  0.7800
 1989TIP3   OH230161   0.717   5.296  13.462  0.1238  0.1701  0.0555
 1989TIP3    H130162   0.727   5.320  13.370  0.5222 -0.5881 -0.1035
 1989TIP3    H230163   0.779   5.353  13.508  1.2007 -0.6521 -0.3408
 1990TIP3   OH230164   2.927   5.204  12.544 -0.2109 -0.4870 -0.4055
 1990TIP3    H130165   2.876   5.158  12.611 -0.1063  0.2642  0.2000
 1990TIP3    H230166   3.015   5.208  12.581 -0.2045  0.1359 -0.4796
 1991TIP3   OH230167   1.313   5.648  11.912 -0.2643 -0.4134  0.0781
 1991TIP3    H130168   1.336   5.740  11.925  0.6308 -0.7502  0.9422
 1991TIP3    H230169   1.289   5.617  11.999 -1.8167 -0.6851 -0.4182
 1992TIP3   OH230170   3.036   5.194  11.379  0.2706  0.5011  0.2666
 1992TIP3    H130171   2.962   5.246  11.347  1.2026  1.3087 -0.6370
 1992TIP3    H230172   3.032   5.112  11.329 -0.4665  0.1950  0.8016
 1993TIP3   OH230173   1.708   5.307  13.940  0.5120  0.3466  0.5393
 1993TIP3    H130174   1.696   5.363  14.016  1.1192 -0.1796  1.0313
 1993TIP3    H230175   1.719   5.368  13.867 -3.2210  0.9477  0.2446
 1994TIP3   OH230176   5.687   6.553  11.172 -0.2222  0.1154  0.1835
 1994TIP3    H130177   5.696   6.567  11.078 -0.5003  1.3069  0.3140
 1994TIP3    H230178   5.683   6.641  11.209 -2.6635 -0.2838  1.0626
 1995TIP3   OH230179   5.655   1.729  11.601 -0.1883  0.3251  0.2990
 1995TIP3    H130180   5.700   1.646  11.588 -1.7900 -0.3189 -1.8038
 1995TIP3    H230181   5.577   1.706  11.653 -0.6232  0.4864 -0.2671
 1996TIP3   OH230182   7.130   2.830  13.159 -0.0332 -0.2795  0.4689
 1996TIP3    H130183   7.217   2.827  13.120  0.2548 -0.1559  1.1006
 1996TIP3    H230184   7.097   2.741  13.151  0.0497 -0.2704  0.0005
 1997TIP3   OH230185   2.085   7.541  10.967 -0.3210  0.1196  0.4113
 1997TIP3    H130186   2.146   7.612  10.949  0.1264  0.1223  1.8204
 1997TIP3    H230187   2.138   7.461  10.957 -0.0440  0.1234  1.6597
 1998TIP3   OH230188   6.984   0.576  13.218  0.3097 -0.0036  0.3167
 1998TIP3    H130189   7.033   0.523  13.156  0.3372  1.7524 -1.2521
 1998TIP3    H230190   7.045   0.591  13.290  0.4546 -1.6398  0.5710
 1999TIP3   OH230191   7.061   0.012  13.298 -0.4318 -0.6631 -0.6219
 1999TIP3    H130192   7.102  -0.011  13.381 -0.3450 -1.6372 -0.9131
 1999TIP3    H230193   6.967   0.009  13.316 -0.3996  0.3426 -0.2602
 2000TIP3   OH230194   2.617   0.073  13.806  0.2002 -0.4177  0.7426
 2000TIP3    H130195   2.659   0.152  13.840  0.9488 -1.2680  1.8759
 2000TIP3    H230196   2.528   0.077  13.841  1.0437 -1.4345  3.2355
 2001TIP3   OH230197   1.163   6.130  11.456 -0.1577 -0.6116 -0.1643
 2001TIP3    H130198   1.146   6.224  11.452 -0.1503 -0.5498  0.8997
 2001TIP3    H230199   1.257   6.124  11.477 -0.4784 -0.8000  1.3782
 2002TIP3   OH230200   2.130   4.838  13.032  0.2623 -0.3506  0.2720
 2002TIP3    H130201   2.166   4.788  13.105 -0.4552 -1.7234 -0.2782
 2002TIP3    H230202   2.047   4.796  13.012 -0.3649  1.0525 -0.2585
 2003TIP3   OH230203   2.220   1.718  12.852  0.2513 -0.8199 -0.3713
 2003TIP3    H130204   2.278   1.771  12.796 -1.3914  0.9966 -0.4392
 2003TIP3    H230205   2.159   1.676  12.790 -1.7783  1.4501 -0.0489
 2004TIP3   OH230206   4.561   6.447  11.819  0.8438 -0.2203 -0.2368
 2004TIP3    H130207   4.483   6.433  11.872  0.4898  1.7743 -0.1279
 2004TIP3    H230208   4.589   6.536  11.841  2.3367 -0.3795 -1.3113
 2005TIP3   OH230209   3.693   6.443  12.766  0.1176  0.6369 -0.7151
 2005TIP3    H130210   3.763   6.403  12.818 -0.7728 -1.0542 -0.7643
 2005TIP3    H230211   3.738   6.477  12.689  0.8864 -0.6135 -0.8549
 2006TIP3   OH230212   2.431   0.953  12.579  0.4039  0.5552  0.6552
 2006TIP3    H130213   2.476   0.996  12.507  0.9318 -2.2204 -0.8261
 2006TIP3    H230214   2.340   0.947  12.551  0.7419 -1.2036 -0.2613
 2007TIP3   OH230215   1.867   5.404  11.532  0.3191 -0.1740 -0.2914
 2007TIP3    H130216   1.773   5.410  11.519  0.1164  1.6923  1.5532
 2007TIP3    H230217   1.879   5.410  11.627  2.2065 -2.5961 -0.2603
 2008TIP3   OH230218   2.173   3.666  11.361 -0.3644  0.1781  0.2645
 2008TIP3    H130219   2.203   3.716  11.285 -1.0742  1.0339  0.5290
 2008TIP3    H230220   2.078   3.672  11.358 -0.3974  0.3254  1.2735
 2009TIP3   OH230221   4.064   5.304  13.329  0.0126 -0.1794  0.0382
 2009TIP3    H130222   4.045   5.296  13.236 -1.2407  1.5578  0.0935
 2009TIP3    H230223   4.157   5.285  13.337  0.6133  1.6844 -1.8964
 2010TIP3   OH230224   4.132   6.512  11.121  0.5369 -0.3061  0.0329
 2010TIP3    H130225   4.043   6.477  11.121  0.0547  0.7481  2.0610
 2010TIP3    H230226   4.153   6.524  11.029 -1.2216 -1.0307 -0.5147
 2011TIP3   OH230227   1.360   4.039  11.116  0.0950 -0.4379 -0.1710
 2011TIP3    H130228   1.434   3.978  11.117 -0.4772 -1.1367  0.3986
 2011TIP3    H230229   1.401   4.125  11.104  1.0542 -0.7554  0.6014
 2012TIP3   OH230230   3.214   4.421  11.458  0.0859 -0.0781 -0.2844
 2012TIP3    H130231   3.234   4.466  11.376 -0.8950  1.3153  0.2012
 2012TIP3    H230232   3.131   4.376  11.441  0.9528 -1.5895 -0.6983
 2013TIP3   OH230233   6.447   6.800  11.217 -0.3413 -0.6022 -0.0690
 2013TIP3    H130234   6.456   6.713  11.179 -0.5471 -0.0451 -1.4416
 2013TIP3    H230235   6.360   6.799  11.258 -0.7534 -0.7359 -0.9238
 2014TIP3   OH230236   3.738   5.855  13.044 -0.1028  0.3871  0.2386
 2014TIP3    H130237   3.699   5.886  13.125  0.3225  0.7000  0.3283
 2014TIP3    H230238   3.831   5.879  13.051 -0.1927  1.0446 -0.6260
 2015TIP3   OH230239   5.736   4.883  11.282 -0.3802 -0.0238 -0.7642
 2015TIP3    H130240   5.798   4.948  11.313 -0.8055 -0.0618  0.2173
 2015TIP3    H230241   5.651   4.929  11.282 -1.0587 -1.1010  1.9683
 2016TIP3   OH230242   2.773   0.954  11.944  0.8790  0.2365  0.1693
 2016TIP3    H130243   2.771   0.934  12.038  1.9059 -1.3587 -0.1101
 2016TIP3    H230244   2.846   1.015  11.934  1.8350 -0.8656  0.2193
 2017TIP3   OH230245   1.215   1.044  13.325  0.4261 -0.6768 -0.3195
 2017TIP3    H130246   1.141   1.092  13.288  0.7314 -0.1275 -0.2214
 2017TIP3    H230247   1.288   1.063  13.266  1.2113  1.1362  1.1444
 2018TIP3   OH230248   0.516   4.058  13.443  0.6777 -0.4082 -0.1050
 2018TIP3    H130249   0.518   4.089  13.534  0.1857 -0.7750  0.0406
 2018TIP3    H230250   0.582   3.990  13.440  1.1093  0.0117 -0.1796
 2019TIP3   OH230251   3.928   6.102  12.541  0.7337  0.3707  0.2822
 2019TIP3    H130252   3.875   6.080  12.618 -0.7697  1.7904 -0.2893
 2019TIP3    H230253   3.976   6.181  12.567  1.6712 -0.2152  0.3773
 2020TIP3   OH230254   1.490   3.011  12.227  0.5630  0.1439  0.1345
 2020TIP3    H130255   1.405   2.968  12.223  1.0772 -1.0497  1.1067
 2020TIP3    H230256   1.553   2.942  12.209  1.3152  1.4061 -2.6111
 2021TIP3   OH230257   0.273   1.332  12.254 -0.7183 -0.0738 -0.0754
 2021TIP3    H130258   0.261   1.427  12.249  1.2787  0.3345  1.5081
 2021TIP3    H230259   0.233   1.307  12.337 -0.2350 -0.4179  0.0575
 2022TIP3   OH230260   4.767   7.243  12.401 -0.0033  0.2402  0.7173
 2022TIP3    H130261   4.756   7.325  12.352 -0.0358 -0.2701 -0.1314
 2022TIP3    H230262   4.809   7.183  12.339 -1.0704 -0.7639  0.9489
 2023TIP3   OH230263   0.502   1.179  11.993 -0.0634  0.3776 -0.1626
 2023TIP3    H130264   0.417   1.224  11.992 -0.1120  0.2926  0.1999
 2023TIP3    H230265   0.566   1.250  11.995 -0.1501  0.4342  1.1057
 2024TIP3   OH230266   0.063   2.333  13.405  0.0579 -0.3800  0.7271
 2024TIP3    H130267  -0.011   2.357  13.350  0.5724 -1.0525 -0.2979
 2024TIP3    H230268   0.138   2.336  13.346  1.0595  1.4148  1.9941
 2025TIP3   OH230269   2.766   5.600  11.347  0.3640  0.6751  0.2400
 2025TIP3    H130270   2.753   5.507  11.367 -2.1155  0.5810 -1.3638
 2025TIP3    H230271   2.860   5.607  11.327  0.9685 -1.0784  2.1195
 2026TIP3   OH230272   7.075   0.950  11.847  0.9367 -0.4324 -0.4455
 2026TIP3    H130273   7.074   1.038  11.885 -1.6971 -0.9171  0.9118
 2026TIP3    H230274   7.076   0.964  11.753  2.0484  0.9896 -0.2563
 2027TIP3   OH230275   0.968   3.063  11.334  0.4778 -0.5774 -0.3094
 2027TIP3    H130276   0.981   3.133  11.398  0.2600 -0.1395 -0.7374
 2027TIP3    H230277   0.875   3.065  11.314  0.8417  0.6873 -2.1792
 2028TIP3   OH230278   6.737   4.062  13.185 -0.4561 -0.2924 -0.0469
 2028TIP3    H130279   6.768   4.072  13.095 -3.1115 -2.3832 -1.3024
 2028TIP3    H230280   6.714   4.151  13.211  2.1261  0.6538 -0.6354
 2029TIP3   OH230281   0.321   1.474  12.563  0.0081  0.1041  0.1440
 2029TIP3    H130282   0.245   1.421  12.541 -0.5143  1.2900 -1.0305
 2029TIP3    H230283   0.396   1.417  12.545 -0.5863 -1.0106  1.1443
 2030TIP3   OH230284   1.009   1.430  13.606 -0.9077  0.0061 -0.4537
 2030TIP3    H130285   0.973   1.428  13.517 -0.2459 -2.1960 -0.7443
 2030TIP3    H230286   1.099   1.399  13.596 -0.4000  0.9653  0.8450
 2031TIP3   OH230287   4.685   5.015  11.087 -0.0736 -0.7315 -0.0001
 2031TIP3    H130288   4.771   4.994  11.052 -0.2688 -3.4982  0.9786
 2031TIP3    H230289   4.702   5.082  11.153  1.3125 -1.1614  0.1103
 2032TIP3   OH230290   5.489   0.065  11.896  0.6187  0.1924 -0.1497
 2032TIP3    H130291   5.465  -0.006  11.835 -3.5255  2.6721 -1.8630
 2032TIP3    H230292   5.459   0.034  11.981  1.2968 -1.1061 -0.3538
 2033TIP3   OH230293   4.203   2.308  12.543 -0.5835 -0.2116  0.7288
 2033TIP3    H130294   4.121   2.326  12.587  0.3469  0.9406  2.0754
 2033TIP3    H230295   4.248   2.245  12.600  0.3937  0.8640  1.1813
 2034TIP3   OH230296   1.662   2.818  12.105 -0.3941 -0.1184  0.0656
 2034TIP3    H130297   1.714   2.745  12.140 -0.3755 -0.9715 -1.6438
 2034TIP3    H230298   1.723   2.892  12.102  0.7977 -1.0951 -1.8800
 2035TIP3   OH230299   1.601   7.024  12.073  0.2808 -0.5854  0.6780
 2035TIP3    H130300   1.549   6.970  12.133 -0.4496 -1.3393 -0.6096
 2035TIP3    H230301   1.537   7.062  12.013  1.1777 -1.2874 -0.7519
 2036TIP3   OH230302   4.403   2.961  12.071  0.2736 -0.0391  0.0515
 2036TIP3    H130303   4.354   3.032  12.112  1.7051  1.0785 -0.0880
 2036TIP3    H230304   4.491   2.969  12.108  0.4936 -1.7022 -0.0440
 2037TIP3   OH230305   6.020   6.688  12.765  0.6790 -0.1758  0.1136
 2037TIP3    H130306   6.107   6.652  12.744  0.9766  1.4611 -1.7625
 2037TIP3    H230307   5.959   6.627  12.724  1.0444 -0.2920 -0.2750
 2038TIP3   OH230308   5.671   7.443  11.914  0.2221 -0.1256  0.3279
 2038TIP3    H130309   5.746   7.439  11.856 -0.7339  3.7541 -1.5121
 2038TIP3    H230310   5.603   7.393  11.870  0.5674 -0.3116  0.0049
 2039TIP3   OH230311   1.192   2.408  11.561  0.2421 -0.1519  0.2236
 2039TIP3    H130312   1.170   2.475  11.496  1.3435  0.0469  0.0285
 2039TIP3    H230313   1.218   2.458  11.639  0.3772 -0.3579  0.3129
 2040TIP3   OH230314   4.659   3.283  11.375 -0.3081 -0.2296  0.0125
 2040TIP3    H130315   4.693   3.195  11.392  0.3534 -0.2591 -1.3282
 2040TIP3    H230316   4.735   3.334  11.348 -0.2910  1.3476  2.7081
 2041TIP3   OH230317   3.362   7.565  11.179  0.7352  0.2702 -0.4080
 2041TIP3    H130318   3.345   7.588  11.270  0.2072 -2.2671  0.2185
 2041TIP3    H230319   3.280   7.585  11.134  0.6976  0.6858 -0.1622
 2042TIP3   OH230320   3.085   0.584  11.550 -0.8883  0.3613 -0.1684
 2042TIP3    H130321   3.171   0.626  11.545  0.3770 -2.0915 -0.5776
 2042TIP3    H230322   3.050   0.590  11.461 -0.7078  0.5272 -0.2281
 2043TIP3   OH230323   0.067   1.542  11.301 -0.4357 -0.1242 -0.6947
 2043TIP3    H130324   0.095   1.588  11.222 -1.3050 -1.9996 -2.1972
 2043TIP3    H230325   0.114   1.459  11.299 -2.4263 -1.3353 -0.7365
 2044TIP3   OH230326   2.943   2.985  13.707  0.0163  0.9630  0.1172
 2044TIP3    H130327   2.980   2.993  13.619  0.8326 -0.6404  0.2831
 2044TIP3    H230328   2.910   3.073  13.727 -2.2008  0.9041 -2.6553
 2045TIP3   OH230329   5.730   7.131  12.908  0.3627 -0.6031 -0.4905
 2045TIP3    H130330   5.767   7.203  12.857 -2.4063 -0.4247 -2.4648
 2045TIP3    H230331   5.638   7.153  12.918  0.5395 -0.9216  4.2738
 2046TIP3   OH230332   5.329   0.976  13.536 -0.0166 -0.3240 -0.2354
 2046TIP3    H130333   5.385   0.919  13.589  0.3276 -1.6701 -1.9597
 2046TIP3    H230334   5.265   0.916  13.496 -0.0259  0.5746 -1.6201
 2047TIP3   OH230335   1.887   6.627  12.316  0.5021 -0.1215 -0.9160
 2047TIP3    H130336   1.919   6.551  12.365 -0.4413  1.0707  1.7607
 2047TIP3    H230337   1.957   6.691  12.323  0.5592 -0.0982 -1.6041
 2048TIP3   OH230338   5.361   2.077  12.496 -0.3508  0.0175 -0.0476
 2048TIP3    H130339   5.274   2.087  12.535 -1.2667 -0.6954 -1.7960
 2048TIP3    H230340   5.404   2.010  12.549 -0.7537  0.5407  0.9702
 2049TIP3   OH230341   7.352   6.699  11.399  0.4399  0.4484 -0.4694
 2049TIP3    H130342   7.391   6.620  11.362  1.7223  1.0476 -0.4262
 2049TIP3    H230343   7.258   6.678  11.404  0.6589 -0.8142 -1.0770
 2050TIP3   OH230344   4.194   3.290  12.861 -0.1470  0.2969 -0.0091
 2050TIP3    H130345   4.253   3.215  12.852 -0.8567 -0.0515 -3.1536
 2050TIP3    H230346   4.251   3.362  12.889  1.0959 -0.7694  0.3274
 2051TIP3   OH230347   2.001   3.326  13.623 -0.6402 -0.3499 -0.5129
 2051TIP3    H130348   2.020   3.363  13.536 -2.6410  0.5734 -0.6320
 2051TIP3    H230349   1.976   3.236  13.605  0.4210 -0.6248 -0.6937
 2052TIP3   OH230350   6.706   7.332  12.543 -0.0530  0.4607 -0.0530
 2052TIP3    H130351   6.746   7.278  12.612  0.2788  0.3841 -0.3019
 2052TIP3    H230352   6.695   7.273  12.469 -2.1844  0.0430  0.5340
 2053TIP3   OH230353   5.796   4.010  11.791  0.3524  0.2682 -0.4402
 2053TIP3    H130354   5.748   3.954  11.730 -0.2867  0.8512 -0.4908
 2053TIP3    H230355   5.731   4.074  11.820  0.8552  0.4816  0.2443
 2054TIP3   OH230356   0.216   5.141  11.441  0.2233  0.6976 -0.6934
 2054TIP3    H130357   0.189   5.139  11.533 -1.5590 -1.6102 -1.1825
 2054TIP3    H230358   0.236   5.233  11.425  1.4044  1.0703  2.1858
 2055TIP3   OH230359   5.971   3.714  12.803  0.0445 -0.3051  0.6117
 2055TIP3    H130360   5.909   3.766  12.854 -1.1431 -1.5465  0.4927
 2055TIP3    H230361   5.945   3.623  12.819  2.1815 -0.9126  0.9809
 2056TIP3   OH230362   5.627   5.494  12.592  0.2874 -0.2899 -0.0030
 2056TIP3    H130363   5.680   5.422  12.626  1.1900 -0.4746 -1.6608
 2056TIP3    H230364   5.562   5.451  12.537 -0.0673  0.0847  0.1208
 2057TIP3   OH230365   6.629   6.277  11.377  0.0740 -0.0862 -0.3403
 2057TIP3    H130366   6.708   6.243  11.336 -0.7058 -2.2796 -0.1671
 2057TIP3    H230367   6.646   6.271  11.471 -0.2454 -0.4894 -0.3041
 2058TIP3   OH230368   5.315   4.579  12.975 -0.3211  0.0618 -0.3430
 2058TIP3    H130369   5.275   4.492  12.978  0.9119 -0.5658 -1.1913
 2058TIP3    H230370   5.355   4.584  12.888  4.5659 -0.8884  1.5264
 2059TIP3   OH230371   0.978   5.082  12.111  0.1526 -0.7585  0.4118
 2059TIP3    H130372   1.032   5.151  12.071 -0.9036  0.6052  1.2293
 2059TIP3    H230373   1.015   5.072  12.199  0.2916 -1.2504  0.3018
 2060TIP3   OH230374   4.648   1.961  11.642 -0.2385  0.3427  0.1204
 2060TIP3    H130375   4.671   1.993  11.729  2.2439  3.0333 -1.3301
 2060TIP3    H230376   4.605   2.035  11.600  0.1019 -0.3007 -1.4381
 2061TIP3   OH230377   3.978   6.781  11.015  0.3493 -0.4550 -0.2974
 2061TIP3    H130378   3.982   6.686  11.028  0.5276 -0.4034  0.0309
 2061TIP3    H230379   3.889   6.805  11.041  1.0437 -0.1884  1.9871
 2062TIP3   OH230380   6.710   7.052  11.658 -0.6260 -0.1333 -0.7794
 2062TIP3    H130381   6.652   6.977  11.672 -2.3459  1.0480 -1.1385
 2062TIP3    H230382   6.798   7.017  11.666 -1.3855 -2.0267 -0.1668
 2063TIP3   OH230383   6.609   2.350  11.939 -0.0408  0.3779 -0.5554
 2063TIP3    H130384   6.680   2.327  11.880 -0.0605 -0.5735 -0.2270
 2063TIP3    H230385   6.536   2.296  11.911  0.1916 -0.7167  0.8294
 2064TIP3   OH230386   7.397   1.841  11.206  0.1553 -0.4968 -0.4037
 2064TIP3    H130387   7.491   1.829  11.218  0.1629 -0.5653 -0.5217
 2064TIP3    H230388   7.383   1.823  11.113  0.0462 -0.3557 -0.4135
 2065TIP3   OH230389   0.145   6.049  13.390  0.7407  0.1736 -0.3104
 2065TIP3    H130390   0.152   5.953  13.393  0.6340  0.1144 -1.5681
 2065TIP3    H230391   0.097   6.072  13.470  1.3149 -0.7636  0.3152
 2066TIP3   OH230392   5.076   4.429  10.950  0.0722 -0.2464  0.3182
 2066TIP3    H130393   4.997   4.473  10.916  0.1090 -0.2404  0.2384
 2066TIP3    H230394   5.132   4.419  10.873 -0.0421 -0.6629  0.2878
 2067TIP3   OH230395   7.215   5.010  12.166 -0.3872  0.0360  0.2727
 2067TIP3    H130396   7.298   5.039  12.129 -0.3652 -0.8344 -0.3820
 2067TIP3    H230397   7.225   4.916  12.179 -1.2668 -0.0799  0.1941
 2068TIP3   OH230398   5.680   1.746  12.386 -0.1116 -0.0472  0.5089
 2068TIP3    H130399   5.767   1.707  12.401 -0.2378 -0.5120  0.0444
 2068TIP3    H230400   5.646   1.701  12.309 -0.9852 -0.2344  0.9893
 2069TIP3   OH230401   2.865   1.330  12.169  0.1545 -0.1346 -0.1953
 2069TIP3    H130402   2.946   1.382  12.164 -0.3247  0.5441 -1.2843
 2069TIP3    H230403   2.799   1.390  12.201  0.2776 -0.9764  1.7532
 2070TIP3   OH230404   7.341   3.920  10.869 -0.0176  0.0727  0.1320
 2070TIP3    H130405   7.399   3.867  10.923 -0.2568 -0.1940  0.1290
 2070TIP3    H230406   7.356   4.009  10.898  1.0333  0.1117 -0.4484
 2071TIP3   OH230407   0.499   5.523  12.250  0.1473  0.3007 -0.3721
 2071TIP3    H130408   0.570   5.476  12.206  0.1972  1.6435 -1.7865
 2071TIP3    H230409   0.421   5.501  12.200  0.3026  2.3366 -1.5832
 2072TIP3   OH230410   3.888   3.498  12.976 -0.3237 -0.3737  0.0562
 2072TIP3    H130411   3.934   3.472  13.055 -1.5192 -0.2808  0.8010
 2072TIP3    H230412   3.796   3.504  13.002 -0.3631  3.1752 -0.3830
 2073TIP3   OH230413   0.253   6.958  13.351 -0.5135  0.2586  0.0273
 2073TIP3    H130414   0.301   6.979  13.271 -0.5502  1.4346  0.2816
 2073TIP3    H230415   0.316   6.972  13.421  0.3360 -3.2849  0.1565
 2074TIP3   OH230416   3.390   1.038  12.598  0.2727  0.1955 -0.3123
 2074TIP3    H130417   3.408   1.077  12.684  1.1843  0.1514 -0.4822
 2074TIP3    H230418   3.371   0.946  12.617  2.5408 -0.3241 -0.3415
 2075TIP3   OH230419   1.742   7.260  12.128  0.2859 -0.1000  0.6098
 2075TIP3    H130420   1.684   7.185  12.119  0.0215  0.1616  0.0865
 2075TIP3    H230421   1.826   7.230  12.094  0.0267  0.0179 -0.1520
 2076TIP3   OH230422   5.859   0.265  12.830  0.2568  0.3134  0.3553
 2076TIP3    H130423   5.932   0.205  12.848 -0.4457 -0.1950  1.5885
 2076TIP3    H230424   5.887   0.348  12.868  1.0970  0.7216 -1.0814
 2077TIP3   OH230425   6.430   5.694  11.581 -1.1446  0.0618 -0.1154
 2077TIP3    H130426   6.428   5.765  11.645 -1.3270 -2.7154  3.2621
 2077TIP3    H230427   6.517   5.656  11.591 -1.2199 -0.5261 -1.4984
 2078TIP3   OH230428   6.493   0.692  12.041  0.2401  0.1562 -0.0000
 2078TIP3    H130429   6.491   0.665  11.949 -2.6348  2.6463 -0.8211
 2078TIP3    H230430   6.537   0.777  12.040 -1.1021  0.9010  0.6017
 2079TIP3   OH230431   3.850   4.350  12.669 -0.1420 -0.2491  0.3371
 2079TIP3    H130432   3.759   4.357  12.697 -0.5700  0.9458 -1.1937
 2079TIP3    H230433   3.866   4.257  12.659 -1.8899 -0.4053 -1.4365
 2080TIP3   OH230434   4.114   6.784  12.192 -0.0545  0.3300  0.1855
 2080TIP3    H130435   4.041   6.724  12.179  0.6248 -0.4190 -0.2935
 2080TIP3    H230436   4.074   6.864  12.224 -1.2937  0.5806 -1.8467
 2081TIP3   OH230437   6.489   0.153  12.164  0.1978 -0.0310 -0.0468
 2081TIP3    H130438   6.568   0.121  12.120  0.0218 -0.3111 -0.1633
 2081TIP3    H230439   6.494   0.249  12.156 -0.8862 -0.0987 -2.5768
 2082TIP3   OH230440   4.732   2.908  12.402  0.4688 -0.0540 -0.3250
 2082TIP3    H130441   4.713   2.868  12.317 -2.5245 -1.0679  0.7242
 2082TIP3    H230442   4.724   2.837  12.465  0.4944  1.1151  1.0377
 2083TIP3   OH230443   3.381   0.190  12.549 -0.2772 -0.6367 -0.3384
 2083TIP3    H130444   3.359   0.281  12.571  0.7313 -0.4095 -0.1870
 2083TIP3    H230445   3.472   0.181  12.577 -0.8913 -2.2477  1.3420
 2084TIP3   OH230446   3.289   7.410  13.225 -0.5750 -0.2933 -0.1594
 2084TIP3    H130447   3.333   7.458  13.294  1.8817 -1.1452 -1.0299
 2084TIP3    H230448   3.197   7.410  13.251  0.1365  0.0456  2.7019
 2085TIP3   OH230449   6.332   4.443  11.617 -0.3578  0.0934 -0.7220
 2085TIP3    H130450   6.419   4.412  11.592 -0.6020 -0.5203 -0.8366
 2085TIP3    H230451   6.280   4.363  11.624 -0.6307  0.3552  0.4379
 2086TIP3   OH230452   2.573   3.908  11.508 -0.3558 -0.5784  0.1923
 2086TIP3    H130453   2.661   3.886  11.477  0.7198  2.2585  0.9601
 2086TIP3    H230454   2.535   3.960  11.437 -0.5876 -0.0258  0.7156
 2087TIP3   OH230455   5.564   5.818  12.124 -0.6263 -0.3087 -0.1394
 2087TIP3    H130456   5.634   5.875  12.155 -0.9126  1.0618 -1.9044
 2087TIP3    H230457   5.593   5.730  12.148  0.1268  0.4710  2.0788
 2088TIP3   OH230458   7.497   7.253  12.460  0.3835 -0.3113  0.5706
 2088TIP3    H130459   7.581   7.278  12.499  0.3371 -1.8832  1.7855
 2088TIP3    H230460   7.455   7.335  12.438  1.0191  0.6332  2.6164
 2089TIP3   OH230461   6.140   0.378  11.386  0.0903 -0.3026  0.3966
 2089TIP3    H130462   6.120   0.326  11.464  0.1574 -0.2081  0.4766
 2089TIP3    H230463   6.160   0.313  11.319  0.4918 -0.3751  0.5815
 2090TIP3   OH230464   1.147   1.759  12.903  0.3968  0.0403  0.3197
 2090TIP3    H130465   1.116   1.843  12.869 -1.8703 -0.9941 -0.3682
 2090TIP3    H230466   1.241   1.770  12.913  0.3706  2.1487 -1.2016
 2091TIP3   OH230467   7.548   2.861  12.768 -0.3408 -0.1344  0.2243
 2091TIP3    H130468   7.506   2.947  12.772  0.1364  0.3178 -2.5604
 2091TIP3    H230469   7.636   2.878  12.735 -0.8385 -1.7472 -2.2788
 2092TIP3   OH230470   7.356   3.412  12.522  0.0096 -0.7608  0.6790
 2092TIP3    H130471   7.428   3.473  12.541 -0.7543  0.2330  0.4460
 2092TIP3    H230472   7.319   3.391  12.607 -3.2640  3.5077  0.6385
 2093TIP3   OH230473   4.393   4.127  10.991 -0.1846 -0.0760  0.2144
 2093TIP3    H130474   4.318   4.074  10.964 -0.7208  0.4137  0.7048
 2093TIP3    H230475   4.467   4.092  10.942 -0.6331 -0.9269  0.1364
 2094TIP3   OH230476   1.344   2.390  12.937  0.0094  0.0689 -0.0876
 2094TIP3    H130477   1.374   2.477  12.908  2.0602  0.0186  1.6464
 2094TIP3    H230478   1.424   2.338  12.942 -0.9221 -1.3178  0.8609
 2095TIP3   OH230479   7.353   5.430  12.092 -0.4202 -0.0132  0.1067
 2095TIP3    H130480   7.328   5.507  12.143 -2.5138 -0.0784 -0.7103
 2095TIP3    H230481   7.414   5.383  12.148  0.1683  1.7313  1.0200
 2096TIP3   OH230482   0.560   5.727  13.297  0.2606 -0.2162 -0.5436
 2096TIP3    H130483   0.511   5.646  13.286 -0.4420  0.3946 -2.5165
 2096TIP3    H230484   0.627   5.707  13.362 -1.1533 -1.7600  0.5165
 2097TIP3   OH230485   7.208   4.717  10.803  0.2236 -0.0522  0.0593
 2097TIP3    H130486   7.265   4.655  10.758  0.9285 -0.7326  1.8072
 2097TIP3    H230487   7.259   4.799  10.805 -0.2875  0.3324 -1.3393
 2098TIP3   OH230488   6.697   1.103  10.549  0.4186 -0.2028 -0.0384
 2098TIP3    H130489   6.787   1.126  10.571  0.1081  0.8491  0.1675
 2098TIP3    H230490   6.659   1.072  10.632  0.0417  1.1880  0.3343
 2099TIP3   OH230491   1.352   6.170  12.983  0.6038  0.6769 -0.0202
 2099TIP3    H130492   1.362   6.181  13.077  2.5547  0.1491 -0.1138
 2099TIP3    H230493   1.374   6.255  12.945 -1.7013  1.3524  0.0215
 2100TIP3   OH230494   0.724   5.359  13.144 -0.0851 -0.2292 -0.2062
 2100TIP3    H130495   0.637   5.380  13.109 -1.1633 -1.1804  1.6868
 2100TIP3    H230496   0.780   5.430  13.114 -0.9430 -0.7404 -3.4074
 2101TIP3   OH230497   5.877   5.287  12.405  0.1884  0.1512 -0.5868
 2101TIP3    H130498   5.865   5.329  12.490 -1.6125  0.6712 -1.0438
 2101TIP3    H230499   5.857   5.195  12.420  1.5318 -0.0911 -0.1328
 2102TIP3   OH230500   4.047   7.087  12.266  0.8472 -0.1181  0.3718
 2102TIP3    H130501   4.141   7.087  12.283  0.9225  1.2955  0.0611
 2102TIP3    H230502   4.011   7.147  12.331  0.4185  0.8544 -0.7312
 2103TIP3   OH230503   3.707   3.176  12.496 -0.0943  0.7246  0.2571
 2103TIP3    H130504   3.719   3.083  12.476 -0.0758  0.6511  0.6069
 2103TIP3    H230505   3.736   3.184  12.587  1.2199  1.3260 -0.1918
 2104TIP3   OH230506   3.381   0.243  13.315 -0.0177 -0.2411  0.0733
 2104TIP3    H130507   3.456   0.200  13.355  0.6278 -0.6391 -1.4602
 2104TIP3    H230508   3.328   0.170  13.280 -0.0682  0.1054 -0.5944
 2105TIP3   OH230509   2.637   6.531  11.260 -0.0835 -0.0973  0.6091
 2105TIP3    H130510   2.701   6.596  11.231 -1.2414  0.3527 -1.0740
 2105TIP3    H230511   2.639   6.463  11.193  0.9502 -1.7556  2.2402
 2106TIP3   OH230512   0.028   1.033  11.637 -0.1033  0.1890 -0.8817
 2106TIP3    H130513   0.040   1.064  11.727  1.5518 -0.6283 -0.7605
 2106TIP3    H230514   0.070   1.099  11.583 -0.4574  0.3230 -0.9940
 2107TIP3   OH230515   2.174   4.823  13.446  0.1359 -0.3586 -0.7074
 2107TIP3    H130516   2.240   4.813  13.377  0.6849 -0.1368 -0.2258
 2107TIP3    H230517   2.123   4.742  13.443 -0.6028  0.1425 -2.1506
 2108TIP3   OH230518   4.358   0.957  11.344 -0.6496  0.8956 -0.1698
 2108TIP3    H130519   4.313   1.009  11.277 -0.9433  0.1922 -0.5220
 2108TIP3    H230520   4.451   0.969  11.325 -0.7233  1.0063 -0.4587
 2109TIP3   OH230521   0.117   4.986  11.245 -0.6112 -0.0698  0.4631
 2109TIP3    H130522   0.137   5.064  11.296  0.8314  0.5527 -0.9540
 2109TIP3    H230523   0.163   4.915  11.291  1.2150  0.5901 -0.2402
 2110TIP3   OH230524   7.488   1.939  11.836 -0.7372 -0.5457 -0.3161
 2110TIP3    H130525   7.563   1.880  11.830 -0.3883  0.0410 -2.4967
 2110TIP3    H230526   7.412   1.882  11.820 -0.4337 -0.5431 -1.9811
 2111TIP3   OH230527   6.003   5.389  11.502 -0.0237 -0.0593 -0.2085
 2111TIP3    H130528   6.094   5.361  11.491 -0.6425 -2.8743  0.8663
 2111TIP3    H230529   5.989   5.391  11.597 -0.9354  0.9407 -0.3371
 2112TIP3   OH230530   5.848   1.529  12.874  0.5523 -0.5436  0.2497
 2112TIP3    H130531   5.810   1.474  12.942  0.2145  0.5769  0.9955
 2112TIP3    H230532   5.831   1.481  12.793 -0.0085 -1.3836  0.8414
 2113TIP3   OH230533   2.646   3.227  13.832  0.3263  0.3101 -0.2244
 2113TIP3    H130534   2.727   3.276  13.824  0.8145 -0.6266 -1.3267
 2113TIP3    H230535   2.632   3.189  13.745 -0.3386 -0.9853  0.4090
 2114TIP3   OH230536   1.292   6.264  11.723 -0.2500  0.1051 -0.0518
 2114TIP3    H130537   1.340   6.226  11.649  1.7585  1.5113  0.4504
 2114TIP3    H230538   1.215   6.304  11.684  0.3484  0.1150 -1.2736
 2115TIP3   OH230539   2.710   3.521  13.439  0.5340  0.1106 -0.3904
 2115TIP3    H130540   2.794   3.517  13.485  0.2049  0.1301  0.2293
 2115TIP3    H230541   2.734   3.528  13.347  1.2151 -0.6147 -0.2880
 2116TIP3   OH230542   5.938   1.672  12.416 -0.0515 -0.3690 -0.4382
 2116TIP3    H130543   6.020   1.638  12.452  1.9590 -0.3946 -4.4026
 2116TIP3    H230544   5.939   1.765  12.436  0.5373 -0.5242  0.2791
 2117TIP3   OH230545   7.577   6.217  12.184  0.4552 -0.2726 -0.1715
 2117TIP3    H130546   7.536   6.226  12.269  0.0713  2.8995 -0.5604
 2117TIP3    H230547   7.517   6.260  12.123  1.9654 -0.0576 -1.5897
 2118TIP3   OH230548   2.646   3.416  13.150  0.4192 -0.4064 -0.2611
 2118TIP3    H130549   2.627   3.326  13.123  1.4031 -1.1264  1.2645
 2118TIP3    H230550   2.571   3.442  13.203 -0.2701  0.0277 -1.4060
 2119TIP3   OH230551   2.347   6.271  12.116 -0.0193 -0.4458 -0.0310
 2119TIP3    H130552   2.325   6.178  12.122  1.5474 -0.7485  2.0892
 2119TIP3    H230553   2.420   6.276  12.056 -0.0480 -0.5963 -0.0773
 2120TIP3   OH230554   0.811   0.376  12.995  0.0874  0.2453 -0.2026
 2120TIP3    H130555   0.829   0.292  13.038  2.7768  0.2808 -1.0636
 2120TIP3    H230556   0.802   0.353  12.902 -1.3687  0.6939 -0.2038
 2121TIP3   OH230557   4.999   2.181  11.876  0.0413  0.1418 -0.5181
 2121TIP3    H130558   5.074   2.198  11.819  1.4666 -0.9057  0.9620
 2121TIP3    H230559   5.036   2.178  11.964 -1.8773  0.3279  0.3376
 2122TIP3   OH230560   2.959   4.832  12.581  0.0649  0.3379 -0.0826
 2122TIP3    H130561   2.898   4.764  12.609 -0.3400 -0.2435 -2.1850
 2122TIP3    H230562   3.042   4.807  12.621 -0.7456  0.4346  1.7787
 2123TIP3   OH230563   2.852   3.092  13.147  0.0752  0.3109 -0.2834
 2123TIP3    H130564   2.903   3.030  13.095  0.4304 -0.1145  0.5542
 2123TIP3    H230565   2.789   3.037  13.194  0.0914  0.6305  0.1168
 2124TIP3   OH230566   1.014   4.650  13.770  0.6039 -0.1651 -0.3978
 2124TIP3    H130567   0.990   4.644  13.862  0.4196 -1.6132 -0.5167
 2124TIP3    H230568   0.939   4.613  13.723  1.6218 -1.5891 -0.9766
 2125TIP3   OH230569   3.832   3.612  12.409 -0.6066  0.3531  0.0788
 2125TIP3    H130570   3.841   3.553  12.484  1.3964  1.7544  1.0047
 2125TIP3    H230571   3.888   3.574  12.341 -1.3088 -0.1432 -0.2392
 2126TIP3   OH230572   6.942   6.496  12.977 -0.3727  0.1139  0.0925
 2126TIP3    H130573   6.865   6.528  13.024 -0.1671 -0.4164  0.8133
 2126TIP3    H230574   7.013   6.552  13.008  0.1492 -1.5126  2.0035
 2127TIP3   OH230575   5.490   3.757  11.553  0.1638  0.1542  0.7165
 2127TIP3    H130576   5.502   3.663  11.536  1.1693  0.4224 -0.1560
 2127TIP3    H230577   5.410   3.780  11.505  1.4653  0.3152 -1.4918
 2128TIP3   OH230578   4.277   5.061  12.942 -0.4766 -0.1118  0.0697
 2128TIP3    H130579   4.249   4.980  12.985  0.6126 -1.2237 -1.2255
 2128TIP3    H230580   4.299   5.034  12.853  0.9973  1.4019 -0.0640
 2129TIP3   OH230581   1.260   7.150  12.357 -0.4093  0.4068  0.0408
 2129TIP3    H130582   1.180   7.101  12.341  0.9360 -1.6651 -0.7338
 2129TIP3    H230583   1.273   7.203  12.278 -0.0756 -0.6714 -0.6488
 2130TIP3   OH230584   3.433   5.763  10.936  0.0848 -0.2768 -0.4359
 2130TIP3    H130585   3.429   5.852  10.969 -2.1498 -0.6974  0.6577
 2130TIP3    H230586   3.521   5.753  10.902  0.0853  2.6697 -1.5479
 2131TIP3   OH230587   1.176   5.443  12.391 -0.7641  0.0774  0.2993
 2131TIP3    H130588   1.103   5.492  12.429 -0.5848  1.0269 -0.5364
 2131TIP3    H230589   1.164   5.353  12.424 -1.8240  0.3989  0.8459
 2132TIP3   OH230590   0.064   5.465  11.496  0.2945  0.0247 -0.1692
 2132TIP3    H130591   0.138   5.439  11.442  0.2851  0.0873 -0.2111
 2132TIP3    H230592   0.081   5.556  11.518 -0.0173  0.1836 -0.5850
 2133TIP3   OH230593   5.125   7.057  12.295 -0.3139  0.7070 -0.3005
 2133TIP3    H130594   5.041   7.016  12.275 -0.5431  1.3759 -0.7235
 2133TIP3    H230595   5.108   7.151  12.296  0.2214  0.8024  0.6349
 2134TIP3   OH230596   7.374   2.450  12.328  0.5322 -0.0171  0.2142
 2134TIP3    H130597   7.369   2.545  12.324 -0.5610 -0.1047 -1.4278
 2134TIP3    H230598   7.438   2.432  12.397  1.2189  1.9080  0.1346
 2135TIP3   OH230599   7.333   1.095  12.452 -0.4548  0.4768  0.4491
 2135TIP3    H130600   7.256   1.091  12.395 -0.4747 -1.0833  0.5316
 2135TIP3    H230601   7.299   1.073  12.539  0.1059 -0.5398  0.4284
 2136TIP3   OH230602   0.459   5.144  12.251  0.1196  0.4079  0.2993
 2136TIP3    H130603   0.447   5.160  12.157 -0.2689 -2.0375 -0.1467
 2136TIP3    H230604   0.550   5.115  12.259  0.3602  1.2724  0.8085
 2137TIP3   OH230605   3.677   6.669  12.283 -0.0232 -0.1381  0.3667
 2137TIP3    H130606   3.689   6.764  12.273 -1.4816 -0.0250 -0.6027
 2137TIP3    H230607   3.602   6.649  12.229 -0.0647 -1.7898  0.9898
 2138TIP3   OH230608   3.729   4.160  11.850  0.3887 -0.3871 -0.4007
 2138TIP3    H130609   3.704   4.110  11.772 -1.8849 -2.4121  1.4417
 2138TIP3    H230610   3.816   4.125  11.873 -0.1490 -1.8802 -0.4845
 2139TIP3   OH230611   5.660   7.310  13.479 -0.4325  0.2575  0.3007
 2139TIP3    H130612   5.721   7.311  13.406  2.0269 -0.7682  2.1659
 2139TIP3    H230613   5.616   7.225  13.473  0.9833 -0.5596  0.8436
 2140TIP3   OH230614   1.192   2.170  12.662 -0.3572 -0.3286 -0.6476
 2140TIP3    H130615   1.096   2.167  12.659 -0.3539 -0.1786 -0.9734
 2140TIP3    H230616   1.219   2.176  12.570 -0.0186 -0.7861 -0.5821
 2141TIP3   OH230617   5.543   5.453  12.004 -0.1682 -0.0091  0.4095
 2141TIP3    H130618   5.508   5.364  12.004 -2.3819  0.7977  1.3201
 2141TIP3    H230619   5.625   5.446  12.054  0.6366 -1.8031 -1.0519
 2142TIP3   OH230620   4.525   6.349  12.573  0.6782  0.1643  0.2392
 2142TIP3    H130621   4.508   6.320  12.663  0.4267 -0.2041  0.0751
 2142TIP3    H230622   4.571   6.432  12.583 -0.2736  0.6490  0.6988
 2143TIP3   OH230623   0.536   7.581  11.942  0.3071  0.0334  0.0897
 2143TIP3    H130624   0.496   7.501  11.909  1.5208 -0.0913 -1.2169
 2143TIP3    H230625   0.506   7.649  11.881 -1.9521  0.9506  2.0483
 2144TIP3   OH230626   2.187   4.273  12.345 -0.4448  0.0314 -0.3980
 2144TIP3    H130627   2.095   4.276  12.321 -0.2513 -0.7750 -1.3032
 2144TIP3    H230628   2.231   4.332  12.284 -0.0208 -1.6440 -1.7866
 2145TIP3   OH230629   1.978   7.196  12.006  0.3243 -0.3698 -0.0595
 2145TIP3    H130630   2.044   7.238  12.061  0.7585  1.8929 -2.1536
 2145TIP3    H230631   2.026   7.167  11.928 -0.8242 -0.5318 -0.7262
 2146TIP3   OH230632   2.571   2.214  12.148 -0.3695  0.0911 -0.2203
 2146TIP3    H130633   2.521   2.295  12.149  0.6483  0.7410 -0.6533
 2146TIP3    H230634   2.571   2.187  12.056 -1.1449 -0.6980 -0.0044
 2147TIP3   OH230635   3.093   3.493  11.267 -0.4964 -0.1520 -0.1715
 2147TIP3    H130636   3.081   3.549  11.190 -1.6767  0.1301  0.1915
 2147TIP3    H230637   3.006   3.457  11.284  0.5494 -3.7680 -1.5829
 2148TIP3   OH230638   0.052   7.140  13.197 -0.3575  0.4132  0.3579
 2148TIP3    H130639   0.095   7.121  13.280 -0.3108  1.8169  0.6862
 2148TIP3    H230640   0.051   7.236  13.192  0.5287  0.3613 -1.7340
 2149TIP3   OH230641   6.283   4.011  11.762 -0.1959 -0.3844  0.3009
 2149TIP3    H130642   6.282   3.915  11.755 -0.7846 -0.4119  0.6137
 2149TIP3    H230643   6.198   4.032  11.801 -0.1568  0.2826  0.0362
 2150TIP3   OH230644   4.828   7.173  11.995  0.4176 -0.2239 -0.2506
 2150TIP3    H130645   4.901   7.214  12.041  0.6203 -0.6728 -0.1747
 2150TIP3    H230646   4.789   7.244  11.944  0.1488  0.3031  0.6546
 2151TIP3   OH230647   6.771   6.585  13.340  0.0421  0.0565  1.0432
 2151TIP3    H130648   6.752   6.587  13.434 -0.9522 -0.8821  0.8802
 2151TIP3    H230649   6.863   6.559  13.334 -0.2138 -1.0708  1.7407
 2152TIP3   OH230650   2.362   2.746  11.729  0.3019  0.0599 -0.2056
 2152TIP3    H130651   2.397   2.681  11.668  0.7748  0.5113 -0.4143
 2152TIP3    H230652   2.267   2.739  11.719  0.3845  0.7068 -1.5936
 2153TIP3   OH230653   5.848   5.931  13.097 -0.0147 -0.1402 -0.1166
 2153TIP3    H130654   5.797   5.907  13.020 -1.0753  1.3620  0.0779
 2153TIP3    H230655   5.796   5.998  13.141  2.1595  1.6155  0.0070
 2154TIP3   OH230656   4.821   3.634  12.260  0.3815  0.2993  0.5624
 2154TIP3    H130657   4.752   3.623  12.326  0.7224 -0.0486  0.8657
 2154TIP3    H230658   4.890   3.681  12.307  0.4126  0.5157  0.2996
 2155TIP3   OH230659   6.356   4.530  13.225  0.3705  0.3640  0.4522
 2155TIP3    H130660   6.274   4.493  13.260  1.1839 -2.1099 -0.0941
 2155TIP3    H230661   6.396   4.574  13.301  0.0443 -1.1825  1.5733
 2156TIP3   OH230662   1.355   2.334  13.655 -0.3353  0.0975  0.1120
 2156TIP3    H130663   1.440   2.378  13.649  0.7446 -1.7786  0.8980
 2156TIP3    H230664   1.359   2.266  13.588 -1.6456  0.6055 -0.5193
 2157TIP3   OH230665   6.837   1.112  12.461 -0.1275  0.0809 -0.3334
 2157TIP3    H130666   6.809   1.182  12.520  0.3865 -0.0351  0.0536
 2157TIP3    H230667   6.757   1.061  12.444  0.0274 -0.9448  1.6861
 2158TIP3   OH230668   6.829   2.525  13.024  0.1433  0.5537  0.1527
 2158TIP3    H130669   6.821   2.604  12.972 -2.0073  0.9641  1.0157
 2158TIP3    H230670   6.784   2.457  12.974  0.2139  0.3508  0.3592
 2159TIP3   OH230671   3.463   6.653  12.114 -0.3688 -0.2362 -0.0174
 2159TIP3    H130672   3.518   6.619  12.043 -0.0276  1.3568 -0.5633
 2159TIP3    H230673   3.427   6.575  12.155 -0.8124 -1.2270 -2.1305
 2160TIP3   OH230674   3.281   7.215  11.653 -0.1011 -0.1647  0.0771
 2160TIP3    H130675   3.277   7.274  11.578 -1.1838 -0.4512 -0.1104
 2160TIP3    H230676   3.287   7.127  11.614 -2.9820 -0.5285  0.1907
 2161TIP3   OH230677   6.264   3.712  12.758  0.4200 -0.3709 -0.0424
 2161TIP3    H130678   6.318   3.746  12.829 -0.4245 -1.8486  1.3678
 2161TIP3    H230679   6.176   3.707  12.794 -0.7408  1.8025 -2.2291
 2162TIP3   OH230680   2.177   7.680  13.587  0.1737  0.1876  0.4367
 2162TIP3    H130681   2.084   7.668  13.571  0.1806  0.7896 -0.1099
 2162TIP3    H230682   2.203   7.606  13.642 -0.6790  0.1617  0.8103
 2163TIP3   OH230683   3.988   4.043  11.844 -0.2794 -0.1490 -0.4436
 2163TIP3    H130684   3.968   4.048  11.751 -1.9204 -3.6072 -0.4174
 2163TIP3    H230685   4.082   4.061  11.849  0.5688 -2.9224 -3.2551
 2164TIP3   OH230686   3.326   1.749  13.151 -0.5214  0.8214 -0.1283
 2164TIP3    H130687   3.365   1.662  13.159 -2.0648  0.0799 -0.2583
 2164TIP3    H230688   3.297   1.754  13.060 -0.6563  1.3802 -0.0592
 2165TIP3   OH230689   3.213   0.824  12.404 -0.0031  0.1719 -0.0144
 2165TIP3    H130690   3.124   0.800  12.430 -0.7528  1.8217 -0.9026
 2165TIP3    H230691   3.269   0.757  12.444 -1.8130 -2.3015 -1.3832
 2166TIP3   OH230692   7.344   4.808  12.632 -0.4253 -0.2124 -0.0664
 2166TIP3    H130693   7.368   4.886  12.682  1.5740 -1.2900  0.8011
 2166TIP3    H230694   7.262   4.779  12.670 -0.3663  0.5662  0.6862
 2167TIP3   OH230695   0.514   3.179  12.858  0.1629  0.4361  0.2797
 2167TIP3    H130696   0.444   3.221  12.808 -0.4548  1.3816  1.8785
 2167TIP3    H230697   0.474   3.098  12.891 -0.1001  0.8124  0.9119
 2168TIP3   OH230698   1.318   0.046  12.676 -0.0023  0.1233 -0.0682
 2168TIP3    H130699   1.401   0.055  12.630 -0.7287  0.4934 -1.3619
 2168TIP3    H230700   1.298   0.134  12.708 -0.7483  0.4460 -1.3403
 2169TIP3   OH230701   1.971   7.182  11.620 -0.0981  0.2865 -0.6714
 2169TIP3    H130702   1.975   7.098  11.666 -0.2065  0.3550 -0.5340
 2169TIP3    H230703   2.060   7.199  11.592  0.4912  1.4544  1.6886
 2170TIP3   OH230704   4.304   4.898  11.048 -0.2504 -0.3544 -0.1819
 2170TIP3    H130705   4.316   4.968  10.984  0.2223 -0.7122 -0.4929
 2170TIP3    H230706   4.239   4.840  11.008  2.2833 -2.2912 -1.8764
 2171TIP3   OH230707   0.419   2.896  13.197 -0.4001 -0.0416  0.4304
 2171TIP3    H130708   0.507   2.931  13.204 -0.3455 -0.2812  1.0920
 2171TIP3    H230709   0.424   2.811  13.241 -0.7697 -0.4219 -0.2403
 2172TIP3   OH230710   2.864   6.636  12.853  0.5373 -0.5181 -0.1588
 2172TIP3    H130711   2.798   6.644  12.784  1.4896 -1.8782 -1.2920
 2172TIP3    H230712   2.892   6.725  12.870 -0.7623 -0.0211 -0.4631
 2173TIP3   OH230713   2.720   0.605  13.935  0.0137 -0.4429 -0.1538
 2173TIP3    H130714   2.798   0.656  13.958 -0.3160 -0.9996  2.4924
 2173TIP3    H230715   2.708   0.622  13.842  4.3126 -1.7505 -1.1754
 2174TIP3   OH230716   2.102   0.395  11.892  0.0769 -0.2576  0.5542
 2174TIP3    H130717   2.032   0.330  11.885 -0.0517 -0.1876  1.1790
 2174TIP3    H230718   2.146   0.375  11.974  0.6068 -0.1126  0.3147
 2175TIP3   OH230719   6.664   2.148  13.455  0.1470  0.4387  0.0227
 2175TIP3    H130720   6.680   2.229  13.503  0.3353  0.2930  0.2054
 2175TIP3    H230721   6.590   2.108  13.500 -0.6533  1.0378 -0.7292
 2176TIP3   OH230722   2.594   7.541  13.295  0.5764  0.0911 -0.3900
 2176TIP3    H130723   2.564   7.469  13.350  0.8010  0.8898  0.8006
 2176TIP3    H230724   2.559   7.620  13.337 -0.9300  0.6366 -2.4584
 2177TIP3   OH230725   2.769   6.746  12.159  0.4915  0.3723 -1.0294
 2177TIP3    H130726   2.750   6.798  12.237  0.5704 -0.8179 -0.1874
 2177TIP3    H230727   2.683   6.721  12.126  0.4559 -1.1625  0.1198
 2178TIP3   OH230728   6.658   6.098  13.159 -0.3773 -0.3260  0.4018
 2178TIP3    H130729   6.717   6.100  13.235 -0.5317 -1.4981  0.5617
 2178TIP3    H230730   6.570   6.094  13.197 -0.5060  0.0877  0.1533
 2179TIP3   OH230731   2.811   6.092  13.692  0.2374 -0.2814  0.5192
 2179TIP3    H130732   2.736   6.037  13.670 -0.2652 -0.1959  1.9108
 2179TIP3    H230733   2.877   6.069  13.627 -1.1037 -0.0806 -0.9914
 2180TIP3   OH230734   6.546   2.113  11.509  0.1420 -0.4088  0.0308
 2180TIP3    H130735   6.583   2.182  11.455 -1.2334 -0.1574 -0.6258
 2180TIP3    H230736   6.539   2.037  11.450 -2.0092  0.0637 -0.4319
 2181TIP3   OH230737   6.525   7.174  13.440  0.2262  0.1152  0.1781
 2181TIP3    H130738   6.560   7.187  13.352  0.9886 -0.8586  0.3095
 2181TIP3    H230739   6.549   7.083  13.461 -0.9566 -0.0369  0.9373
 2182TIP3   OH230740   3.547   5.863  11.624  0.2361  0.5174 -0.2025
 2182TIP3    H130741   3.459   5.849  11.589  0.2144 -1.1740  0.4519
 2182TIP3    H230742   3.547   5.817  11.708  2.0606 -0.4362 -0.6755
 2183TIP3   OH230743   5.296   1.467  11.682  0.3078 -0.3305  0.1422
 2183TIP3    H130744   5.351   1.390  11.700  0.2800 -0.2295  0.6601
 2183TIP3    H230745   5.298   1.475  11.586 -0.3124 -1.4355  0.0166
 2184TIP3   OH230746   5.914   2.324  13.016  0.1969  0.2613  0.0453
 2184TIP3    H130747   5.959   2.402  12.982 -0.3773  1.0278  1.0058
 2184TIP3    H230748   5.927   2.258  12.948  2.1161  0.6850 -0.0579
 2185TIP3   OH230749   4.154   4.208  11.621 -0.5293 -0.6499  0.1933
 2185TIP3    H130750   4.108   4.125  11.637 -0.5863 -0.1418  3.1701
 2185TIP3    H230751   4.160   4.249  11.707  0.6873  1.8545 -0.9944
 2186TIP3   OH230752   6.961   1.581  10.564 -0.1977  0.0030  0.5935
 2186TIP3    H130753   6.973   1.521  10.638  0.3373  1.9715  2.2200
 2186TIP3    H230754   7.006   1.539  10.491  1.0822 -1.0846  1.9393
 2187TIP3   OH230755   5.204   2.156  11.716 -0.0634 -0.0455  0.0651
 2187TIP3    H130756   5.284   2.120  11.755 -0.2135  1.9220  2.3705
 2187TIP3    H230757   5.235   2.199  11.636  1.2184  0.6208  0.8743
 2188TIP3   OH230758   0.992   0.088  12.257 -0.6001  0.6604  0.4197
 2188TIP3    H130759   1.076   0.090  12.212 -0.2836  2.8769  1.0005
 2188TIP3    H230760   0.930   0.061  12.190  0.5922 -1.4670  0.1011
 2189TIP3   OH230761   0.212   7.487  12.538  0.0058 -0.2481 -0.4544
 2189TIP3    H130762   0.257   7.417  12.585 -2.6150 -0.7994  1.4835
 2189TIP3    H230763   0.211   7.560  12.600 -0.5465  0.1920 -0.9688
 2190TIP3   OH230764   5.413   0.368  12.700  0.5856 -0.0483 -0.1594
 2190TIP3    H130765   5.504   0.393  12.710  0.3935  0.7336 -0.3388
 2190TIP3    H230766   5.384   0.412  12.620  0.5279 -1.6779 -1.0785
 2191TIP3   OH230767   1.569   5.522  12.981  0.2839 -0.2414  0.2741
 2191TIP3    H130768   1.474   5.513  12.983  0.3853 -3.3752 -1.9146
 2191TIP3    H230769   1.600   5.459  13.046  0.8472 -1.7104 -1.3517
 2192TIP3   OH230770   6.424   2.626  12.275  0.0594 -0.1418  0.2129
 2192TIP3    H130771   6.342   2.672  12.291  0.9727  1.1481  1.4663
 2192TIP3    H230772   6.403   2.534  12.291 -1.8055 -0.2606 -2.3162
 2193TIP3   OH230773   3.161   3.349  12.618 -0.2806  0.2798  0.2129
 2193TIP3    H130774   3.170   3.417  12.552 -0.8457 -0.0299 -0.2025
 2193TIP3    H230775   3.066   3.340  12.629 -0.2245  2.0850  2.9416
 2194TIP3   OH230776   4.309   1.376  12.049 -0.0239 -0.4652 -0.0923
 2194TIP3    H130777   4.359   1.442  12.000 -0.2237 -0.1291  0.1529
 2194TIP3    H230778   4.372   1.307  12.068  0.0132 -0.6941 -0.9965
 2195TIP3   OH230779   4.256   3.364  12.542  0.2137 -0.2334 -0.0639
 2195TIP3    H130780   4.225   3.411  12.620  0.4045  0.6018 -0.4769
 2195TIP3    H230781   4.255   3.430  12.473 -0.8376 -1.1987 -0.9939
 2196TIP3   OH230782   5.708   3.698  12.639 -0.1490  0.0988 -0.1273
 2196TIP3    H130783   5.764   3.621  12.637  0.3440  0.4685 -0.8909
 2196TIP3    H230784   5.704   3.722  12.732  0.3575 -0.3639  0.0188
 2197TIP3   OH230785   1.570   6.346  12.485 -0.2235  0.1648  0.0673
 2197TIP3    H130786   1.594   6.289  12.557 -0.2217 -1.1113 -0.9171
 2197TIP3    H230787   1.607   6.431  12.509 -0.5646 -0.1228  1.7335
 2198TIP3   OH230788   6.234   0.546  12.335  0.3811 -0.5825  0.0271
 2198TIP3    H130789   6.187   0.484  12.392  1.7302 -1.2025  0.5355
 2198TIP3    H230790   6.300   0.585  12.393  1.9519 -1.3996 -1.1230
 2199TIP3   OH230791   6.886   2.012  11.974 -0.3652 -0.2789  0.1350
 2199TIP3    H130792   6.964   2.027  11.920 -0.9018  2.0903 -0.0945
 2199TIP3    H230793   6.920   1.979  12.057  0.7525 -0.5626 -0.4066
 2200TIP3   OH230794   5.509   5.011  12.565 -0.0803 -0.4354 -0.2692
 2200TIP3    H130795   5.424   5.055  12.562  0.2469  0.2043 -0.3059
 2200TIP3    H230796   5.543   5.031  12.653  0.6498  0.5138 -0.7399
 2201TIP3   OH230797   5.590   0.815  12.511  0.1356 -0.2560 -0.1372
 2201TIP3    H130798   5.553   0.903  12.503 -0.0756 -0.1961  1.3116
 2201TIP3    H230799   5.681   0.825  12.481  0.6919  0.9115  1.7667
 2202TIP3   OH230800   5.083   5.720  11.526  0.2257  0.2038  0.5760
 2202TIP3    H130801   5.138   5.653  11.568 -0.9486 -0.6169  0.8686
 2202TIP3    H230802   5.092   5.704  11.432  1.4924  0.9271  0.5488
 2203TIP3   OH230803   0.456   5.989  11.885 -0.2299  0.4836  0.3138
 2203TIP3    H130804   0.551   5.997  11.885 -0.2354  0.5488  0.1949
 2203TIP3    H230805   0.430   6.000  11.976 -0.2301  1.7040  0.1830
 2204TIP3   OH230806   0.133   0.434  11.638  0.0263 -0.2732 -0.2792
 2204TIP3    H130807   0.197   0.487  11.591 -0.0542 -0.1086 -0.2037
 2204TIP3    H230808   0.120   0.479  11.721 -0.3708 -0.1694 -0.3926
 2205TIP3   OH230809   6.101   2.055  12.380 -0.2527  0.2201  0.1312
 2205TIP3    H130810   6.196   2.053  12.390 -0.2318  0.0732 -0.1003
 2205TIP3    H230811   6.070   1.980  12.431 -0.0847 -1.0559 -1.5717
 2206TIP3   OH230812   7.336   5.254  11.639  0.3773 -0.3336 -0.4415
 2206TIP3    H130813   7.250   5.243  11.598  1.1122 -0.8204 -1.9596
 2206TIP3    H230814   7.365   5.341  11.611 -0.6231  0.9002  2.1219
 2207TIP3   OH230815   4.322   4.889  11.736  0.6583 -0.2016  0.2820
 2207TIP3    H130816   4.298   4.973  11.774 -0.1042 -0.2287 -0.1314
 2207TIP3    H230817   4.398   4.861  11.787  0.4542  0.3770  0.9207
 2208TIP3   OH230818   5.840   5.718  11.452  0.4611 -0.2794  0.6763
 2208TIP3    H130819   5.936   5.721  11.451  0.5073 -1.4364  0.3612
 2208TIP3    H230820   5.816   5.698  11.362 -0.1004  0.3861  0.6777
 2209TIP3   OH230821   5.416   2.882  13.471  0.7184  0.0609 -1.2066
 2209TIP3    H130822   5.453   2.969  13.483  0.0180  0.2787 -0.5281
 2209TIP3    H230823   5.324   2.892  13.494  1.1546 -1.4280  1.5913
 2210TIP3   OH230824   0.503   1.296  13.069  0.0591  1.1266 -0.2246
 2210TIP3    H130825   0.427   1.269  13.121 -0.9961 -1.7384 -2.9245
 2210TIP3    H230826   0.576   1.247  13.106 -0.1678  0.9806  0.0328
 2211TIP3   OH230827   5.007   5.292  13.074  0.0214  0.1187  0.1119
 2211TIP3    H130828   4.977   5.289  12.983  1.1083 -4.0371 -0.3141
 2211TIP3    H230829   5.101   5.309  13.068  0.1135 -0.2626  0.4325
 2212TIP3   OH230830   6.472   0.646  11.770 -0.5631  0.3722 -0.7826
 2212TIP3    H130831   6.429   0.570  11.731  0.2427 -0.7407  0.4199
 2212TIP3    H230832   6.549   0.660  11.715  0.2750 -0.8498  0.0472
 2213TIP3   OH230833   4.408   0.096  12.969  0.5026 -0.1628 -0.3001
 2213TIP3    H130834   4.463   0.023  12.998  2.4645  1.6443  0.7696
 2213TIP3    H230835   4.339   0.102  13.036  0.6555 -0.6829 -0.0893
 2214TIP3   OH230836   0.950   3.979  13.206  0.4540 -0.2242  0.4688
 2214TIP3    H130837   1.045   3.969  13.194  0.2088 -1.9880 -0.2573
 2214TIP3    H230838   0.921   4.022  13.125  0.6431  0.5187  0.7851
 2215TIP3   OH230839   1.194   6.551  12.898  0.5579  0.1534  0.0136
 2215TIP3    H130840   1.230   6.634  12.867  0.4280 -0.1663 -1.0327
 2215TIP3    H230841   1.267   6.490  12.896  0.1149 -0.3809 -1.6757
 2216TIP3   OH230842   3.126   1.598  11.540  0.0544 -0.2250  0.0001
 2216TIP3    H130843   3.212   1.624  11.506  0.5876 -1.1310  0.6173
 2216TIP3    H230844   3.068   1.669  11.513  0.4837 -0.7306 -2.5699
 2217TIP3   OH230845   3.462   0.548  11.700 -0.4753  0.0143 -0.2937
 2217TIP3    H130846   3.523   0.477  11.682  0.0444  0.3829 -0.0185
 2217TIP3    H230847   3.402   0.513  11.765  2.7364  1.2635  3.8292
 2218TIP3   OH230848   3.868   1.818  12.722 -0.6292  0.3804 -0.6657
 2218TIP3    H130849   3.930   1.747  12.707  0.7680  1.1787  0.9191
 2218TIP3    H230850   3.803   1.810  12.652  1.4321 -0.2994 -2.6017
 2219TIP3   OH230851   0.431   5.243  12.717 -0.2481  0.0344  0.2953
 2219TIP3    H130852   0.407   5.150  12.709 -0.5223 -0.0496  1.8021
 2219TIP3    H230853   0.514   5.242  12.764  0.9789  0.4949 -1.7274
 2220TIP3   OH230854   4.036   2.765  12.006  0.5937 -0.2445  0.0433
 2220TIP3    H130855   4.060   2.858  11.999 -0.1053 -0.1042 -0.5964
 2220TIP3    H230856   4.020   2.738  11.915 -0.4402 -0.6622  0.3435
 2221TIP3   OH230857   6.937   3.713  11.074  0.0956  0.5153 -0.0800
 2221TIP3    H130858   6.995   3.789  11.079  1.5482 -0.5603  0.2808
 2221TIP3    H230859   6.985   3.650  11.020 -0.9694 -0.2371 -0.1874
 2222TIP3   OH230860   6.191   6.011  11.458 -0.7298 -0.4021 -0.0231
 2222TIP3    H130861   6.273   6.052  11.434 -0.7776 -0.6806 -0.6830
 2222TIP3    H230862   6.135   6.083  11.489 -0.3552 -0.1689  0.1083
 2223TIP3   OH230863   3.930   1.584  12.078 -0.1549 -0.0959 -0.2968
 2223TIP3    H130864   3.862   1.558  12.015 -1.6970  1.5018  0.6320
 2223TIP3    H230865   3.975   1.502  12.099  1.0529 -0.5936 -4.0924
 2224TIP3   OH230866   4.285   1.088  11.135  0.6126  0.0096 -0.0363
 2224TIP3    H130867   4.191   1.098  11.119  0.8980  0.7804 -1.3840
 2224TIP3    H230868   4.323   1.171  11.106  1.9029 -0.9984 -1.3604
 2225TIP3   OH230869   0.996   3.675  12.591  0.3330  0.0007  0.2597
 2225TIP3    H130870   0.970   3.753  12.639 -0.5352 -0.7228  1.0121
 2225TIP3    H230871   0.958   3.686  12.504  0.4449  0.5301  0.2775
 2226TIP3   OH230872   6.888   5.165  12.330 -0.2050 -0.6996  0.7208
 2226TIP3    H130873   6.854   5.080  12.302 -0.1017 -0.3537 -0.5085
 2226TIP3    H230874   6.983   5.155  12.326 -0.1868 -0.6681  1.0424
 2227TIP3   OH230875   3.708   6.953  12.255  0.1307  0.1396 -0.1593
 2227TIP3    H130876   3.726   7.001  12.174 -1.3440  1.4184  0.2228
 2227TIP3    H230877   3.613   6.941  12.256  0.3417 -1.9558  0.2637
 2228TIP3   OH230878   1.540   0.628  12.553  0.0853 -0.1457  0.2575
 2228TIP3    H130879   1.452   0.595  12.572  0.9775 -3.1729 -0.3146
 2228TIP3    H230880   1.539   0.648  12.460  0.3510 -1.5241 -0.0578
 2229TIP3   OH230881   7.613   6.365  11.851 -0.4260  0.4796  0.4065
 2229TIP3    H130882   7.550   6.298  11.877  0.2425 -1.1096 -1.7530
 2229TIP3    H230883   7.698   6.330  11.878 -0.1582  0.9440  0.1861
 2230TIP3   OH230884   3.998   3.145  13.003 -0.4902 -0.0758  0.3088
 2230TIP3    H130885   4.030   3.224  12.959 -0.6978 -0.0128  0.2696
 2230TIP3    H230886   3.906   3.163  13.021 -0.0960  0.4249  1.9525
 2231TIP3   OH230887   7.561   6.420  11.592 -0.1794 -0.0312 -0.0938
 2231TIP3    H130888   7.555   6.373  11.675 -1.0868  0.3369  0.0569
 2231TIP3    H230889   7.602   6.504  11.616 -0.6085  0.1500  0.0255
 2232TIP3   OH230890   3.115   7.380  11.808 -0.0363  0.6640  0.0195
 2232TIP3    H130891   3.169   7.306  11.781  0.1572  0.6307  0.4917
 2232TIP3    H230892   3.164   7.457  11.780  0.0883  0.6270  0.1385
 2233TIP3   OH230893   1.552   7.582  11.647  0.4597  0.0387 -0.0106
 2233TIP3    H130894   1.536   7.627  11.730  0.5293  0.2806 -0.1261
 2233TIP3    H230895   1.634   7.535  11.660  1.5701  1.7168 -0.5989
 2234TIP3   OH230896   3.748   5.400  12.355 -0.5705  0.7221  0.7046
 2234TIP3    H130897   3.763   5.475  12.297 -0.3792  0.8842  0.9616
 2234TIP3    H230898   3.654   5.402  12.373 -0.6208  0.7045  0.4458
 2235TIP3   OH230899   4.506   4.710  13.663 -0.2066 -0.1686 -0.4185
 2235TIP3    H130900   4.455   4.783  13.698 -1.3493 -1.1438  0.0136
 2235TIP3    H230901   4.596   4.744  13.657 -0.9313  1.6770 -1.4915
 2236TIP3   OH230902   5.786   3.378  13.396  0.1265  0.0989 -0.1420
 2236TIP3    H130903   5.872   3.386  13.356  0.5698  0.0412  0.7677
 2236TIP3    H230904   5.754   3.292  13.369  0.7992 -0.3124  0.3439
 2237TIP3   OH230905   4.773   6.308  12.752 -0.4058 -0.0758  0.0611
 2237TIP3    H130906   4.780   6.387  12.698 -0.5009 -0.9586 -1.2776
 2237TIP3    H230907   4.747   6.341  12.838  2.2102  1.6100  0.3238
 2238TIP3   OH230908   5.811   6.377  12.219  0.2652  0.5684 -0.0658
 2238TIP3    H130909   5.857   6.340  12.143  0.1740  2.3482 -1.0421
 2238TIP3    H230910   5.718   6.365  12.199  0.2385  1.1371 -0.3177
 2239TIP3   OH230911   0.467   0.829  13.331 -0.4866 -0.5299 -0.5456
 2239TIP3    H130912   0.423   0.780  13.261 -0.7934  0.4198 -1.0291
 2239TIP3    H230913   0.402   0.892  13.361 -0.2127 -0.6413  0.3219
 2240TIP3   OH230914   6.881   1.852  13.433  0.4864 -0.3825  0.0469
 2240TIP3    H130915   6.846   1.782  13.489  0.3160 -1.3527 -1.2190
 2240TIP3    H230916   6.915   1.917  13.494  0.1096 -1.2951  1.2733
 2241TIP3   OH230917   0.768   3.850  12.524 -0.1540 -0.2263  0.4680
 2241TIP3    H130918   0.790   3.935  12.487  0.4554 -1.0363 -1.1383
 2241TIP3    H230919   0.714   3.808  12.457 -1.9284 -0.4707  1.9746
 2242TIP3   OH230920   7.515   3.339  12.985  0.1968  0.4395  0.4848
 2242TIP3    H130921   7.500   3.257  13.033  0.8224  0.3456  0.5226
 2242TIP3    H230922   7.576   3.316  12.916  0.2582  0.8469  0.4009
 2243TIP3   OH230923   1.367   6.760  13.665  0.1115  0.3263  0.0464
 2243TIP3    H130924   1.386   6.847  13.630  0.6309  0.6668  1.1468
 2243TIP3    H230925   1.434   6.745  13.731 -0.6529 -0.4449  0.6719
 2244TIP3   OH230926   1.873   4.022  11.226  0.1694 -0.1896 -0.3916
 2244TIP3    H130927   1.929   4.091  11.190  0.9121  0.0648  1.1699
 2244TIP3    H230928   1.916   3.941  11.199  0.7068 -0.0028 -0.1252
 2245TIP3   OH230929   0.742   0.264  11.372  0.4515 -0.1874 -0.0860
 2245TIP3    H130930   0.758   0.345  11.325 -0.2124  0.4210  0.7021
 2245TIP3    H230931   0.812   0.205  11.345  0.6629  0.4886 -1.0261
 2246TIP3   OH230932   7.664   1.825  11.297  0.0844  0.6666 -0.8818
 2246TIP3    H130933   7.673   1.883  11.373 -2.1145  2.0788 -1.6060
 2246TIP3    H230934   7.705   1.743  11.325  0.7960  1.6622  1.2240
 2247TIP3   OH230935   2.883   3.289  12.651 -0.7808 -0.3233  0.0880
 2247TIP3    H130936   2.804   3.312  12.603 -0.8443  1.1331  0.8284
 2247TIP3    H230937   2.852   3.274  12.741 -0.1380  0.9728  0.5404
 2248TIP3   OH230938   4.632   4.508  11.140 -0.1288 -0.1722 -0.3249
 2248TIP3    H130939   4.624   4.484  11.048  0.0158 -0.5834 -0.2325
 2248TIP3    H230940   4.568   4.578  11.153 -1.1576 -1.0690 -0.4086
 2249TIP3   OH230941   4.309   1.875  12.289 -0.5588 -0.7166 -0.2159
 2249TIP3    H130942   4.347   1.787  12.294 -0.2861 -0.6784 -1.3802
 2249TIP3    H230943   4.221   1.861  12.255 -0.7830 -0.6027  0.3158
 2250TIP3   OH230944   0.397   6.495  13.652 -0.0300 -0.5204 -0.5064
 2250TIP3    H130945   0.492   6.508  13.658  0.2120 -2.4491  0.9519
 2250TIP3    H230946   0.362   6.582  13.637  1.8111  0.6669  1.4152
 2251TIP3   OH230947   2.791   3.936  11.703 -0.1994 -0.4730 -0.5211
 2251TIP3    H130948   2.706   3.975  11.723 -0.5039 -0.6633 -1.3934
 2251TIP3    H230949   2.789   3.923  11.608 -0.0797 -2.5004 -0.2919
 2252TIP3   OH230950   7.215   6.902  12.134 -0.3725 -0.2982 -0.4766
 2252TIP3    H130951   7.150   6.907  12.063 -0.8875 -2.6365 -0.2615
 2252TIP3    H230952   7.190   6.972  12.194 -1.7596 -0.1589 -1.1588
 2253TIP3   OH230953   4.454   4.697  11.213 -0.4298  0.4346 -0.2510
 2253TIP3    H130954   4.501   4.742  11.283  1.2016  0.2891 -1.1942
 2253TIP3    H230955   4.422   4.768  11.156 -0.5318  0.4984 -0.1153
 2254TIP3   OH230956   3.573   5.144  13.530  0.3095 -0.8005  0.3505
 2254TIP3    H130957   3.636   5.182  13.469 -0.8751  3.6408  1.5375
 2254TIP3    H230958   3.613   5.156  13.616 -1.3954  0.6793  0.9932
 2255TIP3   OH230959   1.666   7.632  10.998  0.4035  0.5938  0.2113
 2255TIP3    H130960   1.693   7.540  10.991 -0.3964  0.3724 -0.0082
 2255TIP3    H230961   1.593   7.641  10.937  0.7956  1.5059 -0.1408
 2256TIP3   OH230962   5.959   7.304  11.849 -0.6708  0.1815  0.3354
 2256TIP3    H130963   5.961   7.366  11.922  0.0929 -1.2289  1.5608
 2256TIP3    H230964   6.051   7.283  11.833 -0.7947  0.8254 -1.3820
 2257TIP3   OH230965   1.130   4.736  12.469 -0.0592 -0.3730  0.1651
 2257TIP3    H130966   1.068   4.681  12.516 -1.3818 -0.3893 -1.5056
 2257TIP3    H230967   1.213   4.723  12.514 -0.9158 -1.6453  1.4459
 2258TIP3   OH230968   5.210   0.494  12.866 -0.1141 -0.2502  0.8643
 2258TIP3    H130969   5.142   0.471  12.803  0.2302  0.6227  0.1312
 2258TIP3    H230970   5.289   0.450  12.833 -0.6814 -2.9946  2.8587
 2259TIP3   OH230971   1.419   6.486  13.184 -0.1164  0.0154  0.2606
 2259TIP3    H130972   1.409   6.461  13.092  0.5881 -2.2056  0.7321
 2259TIP3    H230973   1.330   6.486  13.219 -0.1379 -4.1885  0.7045
 2260TIP3   OH230974   3.955   2.463  12.638 -0.2561 -0.1242  0.0008
 2260TIP3    H130975   3.961   2.554  12.669  1.6421 -0.5334  0.9491
 2260TIP3    H230976   3.972   2.410  12.716  0.7250 -1.2539 -0.9568
 2261TIP3   OH230977   1.075   5.050  11.806  0.1710 -0.3227 -0.7173
 2261TIP3    H130978   1.046   5.101  11.731 -0.9364 -0.7822 -0.6145
 2261TIP3    H230979   0.997   5.041  11.861  1.1451  0.6898  0.8891
 2262TIP3   OH230980   6.090   2.907  11.729  0.2191 -0.5595  0.4544
 2262TIP3    H130981   6.100   2.826  11.680  0.5944 -0.2861  0.0659
 2262TIP3    H230982   6.097   2.881  11.821  1.1871 -0.8530  0.3070
 2263TIP3   OH230983   2.113   6.004  10.604  0.9724 -0.0256 -0.1953
 2263TIP3    H130984   2.070   6.089  10.608 -1.5445 -1.1942 -0.1387
 2263TIP3    H230985   2.149   5.990  10.691  0.3961  0.5148  0.1366
 2264TIP3   OH230986   2.063   5.057  11.829 -0.4458  0.4493  0.9633
 2264TIP3    H130987   2.150   5.039  11.793  0.1952  6.2684 -1.7272
 2264TIP3    H230988   2.006   4.995  11.785  1.8525 -0.5456 -0.8764
 2265TIP3   OH230989   3.393   1.839  12.232  0.6110  0.1776  0.2544
 2265TIP3    H130990   3.468   1.874  12.183 -1.7802  2.8822 -1.8085
 2265TIP3    H230991   3.403   1.876  12.320  1.3297  1.0782 -0.1870
 2266TIP3   OH230992   7.599   7.497  12.924  0.1191  0.3376  0.4183
 2266TIP3    H130993   7.692   7.477  12.929  0.6656  2.2606 -0.7399
 2266TIP3    H230994   7.590   7.548  12.844 -1.8559  0.6780  0.7942
 2267TIP3   OH230995   3.159   2.765  12.004 -0.1100 -0.0396  0.3049
 2267TIP3    H130996   3.117   2.771  11.918 -0.8235 -1.1846  0.5612
 2267TIP3    H230997   3.251   2.784  11.986 -0.2109 -0.4726 -0.7621
 2268TIP3   OH230998   7.546   1.541  12.629 -0.3215  0.8858  0.1740
 2268TIP3    H130999   7.483   1.493  12.575 -1.1555  1.4881  0.5780
 2268TIP3    H231000   7.498   1.562  12.709  0.7574  0.3957  0.9707
 2269TIP3   OH231001   7.336   0.191  13.089 -0.1506  0.0771 -0.7359
 2269TIP3    H131002   7.326   0.113  13.143 -0.2140  0.3080 -0.4105
 2269TIP3    H231003   7.353   0.158  13.001 -1.4867 -0.3233 -0.8653
 2270TIP3   OH231004   3.750   6.012  12.119  0.0922  0.2322 -0.0527
 2270TIP3    H131005   3.816   6.048  12.178  0.5661 -1.2654  0.3800
 2270TIP3    H231006   3.668   6.017  12.169  0.8498 -3.3144  1.9318
 2271TIP3   OH231007   1.706   5.756  12.356  0.2595 -0.4873 -0.0743
 2271TIP3    H131008   1.764   5.736  12.282 -1.4845 -1.4814 -1.2388
 2271TIP3    H231009   1.765   5.786  12.425  2.0563 -0.5471 -1.5058
 2272TIP3   OH231010   2.997   5.460  10.708 -0.4459 -0.3258 -0.1251
 2272TIP3    H131011   2.989   5.454  10.803 -0.1788  1.3178  0.0379
 2272TIP3    H231012   2.912   5.431  10.674 -0.9133  0.0807  0.6695
 2273TIP3   OH231013   1.963   0.132  10.999  0.5984 -0.4068 -0.1969
 2273TIP3    H131014   1.871   0.146  11.024  0.3700  0.8765 -1.6084
 2273TIP3    H231015   1.972   0.037  10.995 -0.2823 -0.5868  1.2452
 2274TIP3   OH231016   0.771   2.161  11.998 -0.0575 -0.2444 -0.3817
 2274TIP3    H131017   0.779   2.066  12.004 -0.9534 -0.3183 -0.2595
 2274TIP3    H231018   0.703   2.184  12.060  0.0068  0.4603 -0.5585
 2275TIP3   OH231019   0.102   4.615  13.313  0.1968 -0.0555  0.0323
 2275TIP3    H131020   0.042   4.551  13.351 -0.6163 -0.0139 -1.1394
 2275TIP3    H231021   0.091   4.605  13.219  1.7008  0.2886 -0.1947
 2276TIP3   OH231022   7.374   3.567  11.799  0.1406  0.2454  0.3262
 2276TIP3    H131023   7.305   3.631  11.816  0.5032  0.4822  0.9122
 2276TIP3    H231024   7.374   3.557  11.704 -0.2167  0.7803  0.2649
 2277TIP3   OH231025   2.179   1.840  13.102 -0.0779  0.2596  0.6161
 2277TIP3    H131026   2.179   1.806  13.013  0.3094  0.9713  0.3309
 2277TIP3    H231027   2.171   1.935  13.091  2.1853  0.5949  1.1998
 2278TIP3   OH231028   7.405   1.721  13.500 -0.4874 -0.0632  0.2746
 2278TIP3    H131029   7.403   1.759  13.588  1.6356 -0.3040  0.5024
 2278TIP3    H231030   7.390   1.794  13.441 -1.1571  0.2457  0.8140
 2279TIP3   OH231031   1.948   7.502  12.060  0.6682 -0.3104  0.6184
 2279TIP3    H131032   1.884   7.447  12.017  1.3333  0.5494 -1.6045
 2279TIP3    H231033   1.903   7.535  12.138 -0.7616 -1.5241  0.3419
 2280TIP3   OH231034   2.968   0.128  13.969 -0.0604  0.2288 -0.1293
 2280TIP3    H131035   2.962   0.220  13.946 -1.9909  0.1787  0.0663
 2280TIP3    H231036   2.899   0.114  14.034 -0.5974 -1.5971 -1.0207
 2281TIP3   OH231037   1.324   0.468  12.601 -0.2522 -0.3253 -0.2695
 2281TIP3    H131038   1.254   0.434  12.657 -0.6435  0.5973 -0.1779
 2281TIP3    H231039   1.337   0.400  12.535 -1.3479 -0.4573 -0.3729
 2282TIP3   OH231040   3.721   7.540  13.246  0.1076  0.0712 -0.4362
 2282TIP3    H131041   3.687   7.556  13.158 -0.6860  0.2324 -0.1098
 2282TIP3    H231042   3.771   7.459  13.238  0.3826  0.3009 -1.1210
 2283TIP3   OH231043   2.419   0.311  13.552 -0.3554 -0.0370 -0.0350
 2283TIP3    H131044   2.454   0.382  13.499 -1.9662  1.8783  1.2841
 2283TIP3    H231045   2.463   0.320  13.637 -0.6493 -0.5517  0.1800
 2284TIP3   OH231046   6.551   3.761  11.968  0.3470  0.3794 -0.1686
 2284TIP3    H131047   6.577   3.669  11.966  1.2482  0.5160  2.1602
 2284TIP3    H231048   6.456   3.760  11.971  0.2750 -0.3780 -1.6677
 2285TIP3   OH231049   4.907   5.984  11.988 -0.0853  0.1907 -0.2600
 2285TIP3    H131050   4.945   6.002  12.074 -2.7191 -1.3691  1.3426
 2285TIP3    H231051   4.855   6.062  11.968  3.0080  1.9974 -2.1110
 2286TIP3   OH231052   1.632   0.190  12.330 -0.6778 -0.1458  0.1960
 2286TIP3    H131053   1.689   0.242  12.386  0.0145 -0.3637 -0.2860
 2286TIP3    H231054   1.583   0.134  12.391 -1.2884  0.9132  0.6981
 2287TIP3   OH231055   6.177   1.264  12.724  0.2572  0.1544 -0.1889
 2287TIP3    H131056   6.247   1.214  12.766 -1.0607 -1.0910  0.6695
 2287TIP3    H231057   6.219   1.343  12.692  1.7748  0.1377  1.5866
 2288TIP3   OH231058   2.397   2.078  13.310  0.6837  0.2456  0.1960
 2288TIP3    H131059   2.389   2.172  13.329  1.2094  0.5159 -0.8206
 2288TIP3    H231060   2.326   2.037  13.358 -1.3810  1.5074 -1.6072
 2289TIP3   OH231061   0.903   3.628  12.037 -0.1946 -0.0815 -0.2098
 2289TIP3    H131062   0.894   3.551  12.094  1.1863  1.0645  1.6434
 2289TIP3    H231063   0.813   3.661  12.028 -0.6603 -1.2444 -0.1231
 2290TIP3   OH231064   6.622   0.276  11.785 -0.5510  0.3327  0.2766
 2290TIP3    H131065   6.546   0.330  11.760  0.0038  0.6460 -0.8093
 2290TIP3    H231066   6.620   0.275  11.880 -2.4719 -0.4663  0.2822
 2291TIP3   OH231067   4.966   4.160  12.564 -0.2502  0.0089  0.3248
 2291TIP3    H131068   5.039   4.197  12.516 -0.3337 -0.9466 -0.5914
 2291TIP3    H231069   5.000   4.078  12.601 -0.1305  0.8206  2.0954
 2292TIP3   OH231070   7.232   4.697  11.947 -0.3792  0.5099 -0.0818
 2292TIP3    H131071   7.312   4.749  11.956 -2.4864  3.7358  2.1121
 2292TIP3    H231072   7.213   4.698  11.853  1.9753 -0.2338 -0.6451
 2293TIP3   OH231073   4.379   2.995  11.523 -0.2380  0.1652  0.0168
 2293TIP3    H131074   4.397   3.069  11.581 -0.3273 -0.4046  0.7876
 2293TIP3    H231075   4.331   2.932  11.578 -1.5085  0.1683 -1.0335
 2294TIP3   OH231076   4.755   1.577  11.525 -0.1524 -0.8721  1.2242
 2294TIP3    H131077   4.665   1.587  11.494  0.5707  3.0656 -0.2513
 2294TIP3    H231078   4.806   1.556  11.447  0.5263 -0.5067  1.5533
 2295TIP3   OH231079   4.575   5.665  13.491 -0.5500 -0.0639  0.5812
 2295TIP3    H131080   4.577   5.756  13.459 -0.9589 -0.2190  0.0933
 2295TIP3    H231081   4.553   5.673  13.584 -1.9555  0.2875  0.2462
 2296TIP3   OH231082   7.260   0.255  12.400  0.0849 -0.2941  0.2590
 2296TIP3    H131083   7.171   0.246  12.434  0.4165 -0.1427  1.2012
 2296TIP3    H231084   7.316   0.257  12.478  0.9858 -1.1501 -0.3372
 2297TIP3   OH231085   4.218   6.102  11.570  0.2402 -0.6538 -0.0258
 2297TIP3    H131086   4.134   6.082  11.611 -0.7822 -0.7379 -2.0334
 2297TIP3    H231087   4.267   6.020  11.575  0.7076 -0.3056  2.1643
 2298TIP3   OH231088   7.171   1.098  13.258  0.1392 -0.1998  0.6451
 2298TIP3    H131089   7.210   1.107  13.171 -1.2087  3.3458  0.2604
 2298TIP3    H231090   7.077   1.098  13.243 -0.1188 -0.7926  2.0542
 2299TIP3   OH231091   0.400   1.633  13.364 -0.0321 -0.5950  0.1421
 2299TIP3    H131092   0.489   1.615  13.333  0.2258  0.0765  0.4891
 2299TIP3    H231093   0.356   1.672  13.289 -0.3011 -1.7177 -0.3047
 2300TIP3   OH231094   1.435   1.965  11.627  0.0637 -0.6276 -1.1426
 2300TIP3    H131095   1.345   1.994  11.617 -0.0373 -0.6456 -0.3728
 2300TIP3    H231096   1.442   1.887  11.573 -0.5563 -0.9742 -0.7394
 2301TIP3   OH231097   1.078   3.713  11.820 -0.2091 -0.0150  0.2229
 2301TIP3    H131098   1.034   3.718  11.904 -0.6585 -2.3676  0.1962
 2301TIP3    H231099   1.107   3.622  11.813  0.2057  0.2190 -1.9730
 2302TIP3   OH231100   1.368   2.069  12.022 -0.1920  0.0729  1.0161
 2302TIP3    H131101   1.273   2.066  12.033 -0.4296 -0.7593 -0.9010
 2302TIP3    H231102   1.399   1.985  12.056 -0.6551 -1.4091 -1.8506
 2303TIP3   OH231103   2.053   4.538  13.453 -0.2924 -0.2709  0.0959
 2303TIP3    H131104   2.090   4.473  13.512 -0.5917 -1.2922 -0.8164
 2303TIP3    H231105   2.056   4.497  13.367  0.3465  1.2708 -0.6522
 2304TIP3   OH231106   3.479   1.353  12.105 -0.1695  0.1545 -0.1432
 2304TIP3    H131107   3.550   1.300  12.140 -1.4843 -1.4680  0.2217
 2304TIP3    H231108   3.466   1.422  12.171  0.5301 -0.0155  0.1804
 2305TIP3   OH231109   5.814   7.669  13.240  0.6728 -0.2585 -0.4111
 2305TIP3    H131110   5.887   7.610  13.257  1.9392 -0.0867 -4.2353
 2305TIP3    H231111   5.737   7.612  13.234  1.3597 -1.1402 -1.0534
 2306TIP3   OH231112   1.224   6.258  12.174  0.0962 -0.0958  0.0533
 2306TIP3    H131113   1.286   6.224  12.109 -0.1713 -0.3010 -0.0970
 2306TIP3    H231114   1.278   6.306  12.236  0.9242 -3.2244  1.9646
 2307TIP3   OH231115   0.079   5.892  10.911 -0.4211  0.0345 -0.3210
 2307TIP3    H131116   0.014   5.823  10.920 -0.7113  0.4421  0.8828
 2307TIP3    H231117   0.032   5.965  10.873  0.0073 -0.5654 -2.0991
 2308TIP3   OH231118   0.804   1.078  11.060 -0.2566 -0.3105 -0.5727
 2308TIP3    H131119   0.777   0.987  11.054  0.1800 -0.4215 -0.8474
 2308TIP3    H231120   0.730   1.128  11.026  0.0425 -0.6338 -1.7191
 2309TIP3   OH231121   2.969   2.614  12.984  0.8544  0.1099 -0.3589
 2309TIP3    H131122   2.978   2.519  12.973 -0.8898 -0.5081  2.4643
 2309TIP3    H231123   3.044   2.640  13.037 -0.3026 -0.3798  1.6311
 2310TIP3   OH231124   3.319   2.542  11.817 -0.4139  0.0504 -0.4658
 2310TIP3    H131125   3.293   2.566  11.728 -0.6008 -0.9935 -0.7150
 2310TIP3    H231126   3.240   2.504  11.855  0.1842 -1.3531 -0.5585
 2311TIP3   OH231127   5.641   2.490  12.824 -0.3764 -0.0103  0.0083
 2311TIP3    H131128   5.667   2.402  12.797  0.0629 -0.3515  1.4914
 2311TIP3    H231129   5.616   2.533  12.742  0.2281 -1.2270 -0.8491
 2312TIP3   OH231130   2.178   1.077  12.711  0.2149 -0.5452 -0.1421
 2312TIP3    H131131   2.088   1.072  12.678 -0.1784 -0.6755  0.9317
 2312TIP3    H231132   2.170   1.062  12.805  1.1840  0.9529  0.2128
 2313TIP3   OH231133   4.200   3.033  13.145 -0.3661  0.4176 -0.3842
 2313TIP3    H131134   4.203   2.966  13.213  1.1665 -0.7970 -1.5704
 2313TIP3    H231135   4.110   3.032  13.113 -0.9438  0.5678  1.1490
 2314TIP3   OH231136   0.977   3.739  12.975  0.3682  0.1233 -0.7252
 2314TIP3    H131137   1.035   3.787  13.034  0.5696  0.2116 -0.9939
 2314TIP3    H231138   0.906   3.800  12.956 -0.3476 -0.3177  0.3866
 2315TIP3   OH231139   1.551   7.451  11.387 -0.1539  0.1825  0.3672
 2315TIP3    H131140   1.526   7.444  11.479  0.3145 -0.3876  0.4544
 2315TIP3    H231141   1.504   7.528  11.355 -2.2742 -0.9985  0.4496
 2316TIP3   OH231142   7.153   3.612  10.887  0.3041 -0.0031  0.0727
 2316TIP3    H131143   7.088   3.579  10.825  1.1231 -1.2417 -0.1695
 2316TIP3    H231144   7.199   3.681  10.839  0.7628 -0.7852 -0.6454
 2317TIP3   OH231145   4.968   2.600  13.453  0.1377 -0.7980  0.2188
 2317TIP3    H131146   5.032   2.553  13.506  1.4828  1.5272  0.8193
 2317TIP3    H231147   4.919   2.532  13.407  1.0092 -2.7740  2.0625
 2318TIP3   OH231148   1.382   3.316  11.663  0.2366  0.0754 -0.2625
 2318TIP3    H131149   1.446   3.360  11.719  0.6466  0.4425 -1.0011
 2318TIP3    H231150   1.410   3.224  11.662  0.5352  0.1659 -0.2926
 2319TIP3   OH231151   1.051   4.848  11.622 -0.3126 -0.1703 -0.2905
 2319TIP3    H131152   1.079   4.924  11.674 -1.1895  0.0766 -0.1746
 2319TIP3    H231153   0.975   4.814  11.668 -2.0929  0.9771 -2.2193
 2320TIP3   OH231154   4.625   6.990  10.798  0.4794 -0.1313  0.5170
 2320TIP3    H131155   4.548   6.944  10.832 -1.3062  1.6666 -0.9108
 2320TIP3    H231156   4.652   6.938  10.723 -0.9555  0.5823 -0.5259
 2321TIP3   OH231157   7.447   1.525  12.239  0.5842 -0.3643  0.1332
 2321TIP3    H131158   7.476   1.463  12.172  0.2769 -0.6330  0.2458
 2321TIP3    H231159   7.433   1.607  12.191 -1.1025 -0.9396 -0.4437
 2322TIP3   OH231160   6.971   3.637  12.051 -0.4256  0.0560  0.1731
 2322TIP3    H131161   6.996   3.626  12.143 -2.6051 -0.2716  0.7811
 2322TIP3    H231162   6.953   3.549  12.020 -0.4980  0.2463 -0.3331
 2323TIP3   OH231163   1.122   0.345  11.250 -0.1172 -0.1576 -0.8497
 2323TIP3    H131164   1.045   0.316  11.201 -0.3018 -2.6436  0.7287
 2323TIP3    H231165   1.195   0.298  11.209  0.6055  2.0012 -2.1818
 2324TIP3   OH231166   6.490   1.568  13.743 -0.1017 -0.0210  0.2797
 2324TIP3    H131167   6.480   1.548  13.836  0.8728 -1.0693  0.1827
 2324TIP3    H231168   6.505   1.483  13.702 -0.1876  0.4643 -0.7992
 2325TIP3   OH231169   6.710   6.934  12.258 -0.2571  0.7300 -0.0072
 2325TIP3    H131170   6.677   6.896  12.176  1.3061 -1.6286  0.3537
 2325TIP3    H231171   6.754   7.015  12.230 -0.8980  0.6736 -1.2900
 2326TIP3   OH231172   6.450   1.410  12.536  0.3870 -0.3457  0.2820
 2326TIP3    H131173   6.434   1.444  12.624 -0.1096 -0.3097  0.1789
 2326TIP3    H231174   6.473   1.487  12.484 -1.5978 -0.0061 -0.1589
 2327TIP3   OH231175   4.774   0.163  12.829 -0.1629  0.1952 -0.5492
 2327TIP3    H131176   4.819   0.184  12.747 -0.2942  3.5561  0.0699
 2327TIP3    H231177   4.819   0.085  12.862  0.4505 -0.7616 -3.3549
 2328TIP3   OH231178   2.686   0.786  13.248 -0.3133  0.3714 -0.3268
 2328TIP3    H131179   2.740   0.767  13.172  0.8624  1.6127  0.1674
 2328TIP3    H231180   2.661   0.700  13.282  1.6868 -0.2527 -0.3434
 2329TIP3   OH231181   7.084   0.694  12.764 -0.4976 -0.1188 -0.3448
 2329TIP3    H131182   7.062   0.752  12.837 -1.3753  0.8945 -1.3801
 2329TIP3    H231183   7.066   0.746  12.686 -0.1829 -1.3961 -1.2920
 2330TIP3   OH231184   5.835   6.306  13.096 -0.3813 -0.4843  0.3096
 2330TIP3    H131185   5.843   6.386  13.147 -0.0299 -0.7638  0.6875
 2330TIP3    H231186   5.893   6.319  13.021  2.3370 -1.7326  2.0646
 2331TIP3   OH231187   5.270   7.265  11.464  0.4119  0.1124 -1.1662
 2331TIP3    H131188   5.365   7.274  11.471  0.2220  1.2098  0.4198
 2331TIP3    H231189   5.247   7.193  11.522  0.3043 -0.5162 -1.9641
 2332TIP3   OH231190   2.616   3.905  12.795 -0.0400  0.2101 -0.6959
 2332TIP3    H131191   2.661   3.838  12.846 -0.0364 -0.2661 -1.3262
 2332TIP3    H231192   2.544   3.933  12.852  1.1570  1.1383  0.4066
 2333TIP3   OH231193   7.250   6.979  11.765  0.0304  0.6334  0.2968
 2333TIP3    H131194   7.256   7.059  11.713 -0.7000  0.8714  0.5649
 2333TIP3    H231195   7.181   6.997  11.829 -0.6726 -0.4553 -0.1201
 2334TIP3   OH231196   2.755   1.884  12.453 -0.5554 -0.3572  0.0809
 2334TIP3    H131197   2.817   1.869  12.381 -1.4477 -1.5508 -0.4917
 2334TIP3    H231198   2.694   1.810  12.447 -1.8093  0.5694  0.8479
 2335TIP3   OH231199   1.526   1.260  12.100  0.2002 -0.0462  0.0616
 2335TIP3    H131200   1.621   1.265  12.112  0.5012 -3.3260 -0.1260
 2335TIP3    H231201   1.513   1.264  12.005  0.0823  0.9014  0.1111
 2336TIP3   OH231202   0.435   6.885  10.872  0.1737 -0.5140  0.0166
 2336TIP3    H131203   0.429   6.963  10.927 -0.8923 -0.3171 -0.3748
 2336TIP3    H231204   0.504   6.832  10.914  0.8682  0.5925  0.3128
 2337TIP3   OH231205   4.598   3.009  12.635  0.1480 -0.2734 -0.0187
 2337TIP3    H131206   4.594   2.916  12.659  1.3133 -0.5591 -0.7772
 2337TIP3    H231207   4.642   3.009  12.549  2.8494  1.1286  1.2281
 2338TIP3   OH231208   6.249   1.741  11.899  0.3064  0.0077 -0.3843
 2338TIP3    H131209   6.274   1.784  11.817 -0.5611 -0.0627 -0.6959
 2338TIP3    H231210   6.195   1.805  11.944  1.3940  0.3306  0.4907
 2339TIP3   OH231211   0.040   3.291  13.706  0.0117  0.0715  0.3375
 2339TIP3    H131212   0.128   3.276  13.673  0.7517  1.4218  1.5989
 2339TIP3    H231213  -0.007   3.210  13.687  1.7848 -1.0493  0.5421
 2340TIP3   OH231214   2.334   2.319  13.415 -0.0870 -0.0141 -0.1442
 2340TIP3    H131215   2.285   2.359  13.344  1.6824 -3.2509 -3.5061
 2340TIP3    H231216   2.268   2.297  13.481 -2.6601 -1.1679 -2.9256
 2341TIP3   OH231217   5.359   4.982  13.408 -0.0901  0.2743  0.3805
 2341TIP3    H131218   5.335   5.048  13.343  0.4995  0.8857  0.7730
 2341TIP3    H231219   5.451   5.001  13.428  0.5225 -1.5340 -0.5247
 2342TIP3   OH231220   5.845   6.433  10.794 -0.1064  0.1090  0.3508
 2342TIP3    H131221   5.783   6.424  10.722  0.5894 -0.9515 -0.1374
 2342TIP3    H231222   5.924   6.389  10.764  1.0990  1.8879  0.7461
 2343TIP3   OH231223   4.126   0.160  11.866 -0.4628  0.0384  0.3291
 2343TIP3    H131224   4.051   0.118  11.824  1.2945 -2.7648 -0.2559
 2343TIP3    H231225   4.161   0.218  11.799 -2.1658  1.5805  0.6913
 2344TIP3   OH231226   5.075   0.429  11.210  0.1411  0.0785 -0.2157
 2344TIP3    H131227   5.156   0.450  11.256 -0.0577  0.3071  0.0304
 2344TIP3    H231228   5.056   0.339  11.236  0.9282 -0.3815 -1.1749
 2345TIP3   OH231229   0.271   1.266  13.204  0.1579 -0.1930 -0.3675
 2345TIP3    H131230   0.238   1.176  13.205 -1.6427  0.4124 -0.2933
 2345TIP3    H231231   0.220   1.310  13.273  1.5198  0.7162  0.0958
 2346TIP3   OH231232   1.877   4.862  11.806 -0.1399 -0.1583 -0.2297
 2346TIP3    H131233   1.808   4.809  11.766  0.8578 -0.3335 -1.7733
 2346TIP3    H231234   1.879   4.833  11.897 -2.1990 -0.0308 -0.0945
 2347TIP3   OH231235   3.152   7.116  12.953 -0.2050 -0.0563 -0.1477
 2347TIP3    H131236   3.129   7.105  13.046 -0.0594 -0.0477 -0.1109
 2347TIP3    H231237   3.070   7.144  12.912 -1.2459 -3.3503 -0.6675
 2348TIP3   OH231238   5.728   6.806  11.295 -0.0865 -0.6610  0.1243
 2348TIP3    H131239   5.708   6.800  11.388 -1.2555 -1.7928 -0.1549
 2348TIP3    H231240   5.755   6.896  11.281 -1.3779 -0.0704  1.2841
 2349TIP3   OH231241   4.411   7.006  11.382 -0.2406 -0.2980  0.2642
 2349TIP3    H131242   4.477   6.982  11.447  0.9394 -0.4547 -0.9344
 2349TIP3    H231243   4.414   6.935  11.318  1.1491  1.4869 -1.7702
 2350TIP3   OH231244   6.297   3.731  13.053 -0.0209 -0.1935 -0.1860
 2350TIP3    H131245   6.333   3.815  13.081  1.6432 -1.0701  0.4594
 2350TIP3    H231246   6.214   3.723  13.099  0.0865  0.8347  0.2072
 2351TIP3   OH231247   1.867   1.375  13.311 -0.1502  0.2142  0.1458
 2351TIP3    H131248   1.819   1.306  13.265 -0.5798 -0.1371  1.0754
 2351TIP3    H231249   1.930   1.407  13.247 -0.5168 -0.4594 -0.5810
 2352TIP3   OH231250   4.682   6.685  11.347 -0.3060  0.2641 -0.2347
 2352TIP3    H131251   4.660   6.679  11.254  1.1983 -0.6648 -0.5623
 2352TIP3    H231252   4.628   6.619  11.389 -1.2493  0.9264 -0.3848
 2353TIP3   OH231253   4.773   4.739  13.584  0.1815 -0.3009 -0.2428
 2353TIP3    H131254   4.863   4.716  13.603  0.2753 -1.8631 -2.2011
 2353TIP3    H231255   4.775   4.832  13.561  0.9354  0.1486  1.5384
 2354TIP3   OH231256   0.652   0.256  12.210  0.1836  0.2142 -0.3425
 2354TIP3    H131257   0.633   0.204  12.289  1.2141 -0.5463 -0.5729
 2354TIP3    H231258   0.614   0.342  12.228 -2.1578 -0.7676 -0.2047
 2355TIP3   OH231259   0.772   6.815  13.411 -0.2807 -0.2840 -0.3018
 2355TIP3    H131260   0.757   6.812  13.317 -1.6331 -0.3337 -0.1119
 2355TIP3    H231261   0.821   6.896  13.426 -1.0755  0.3293 -0.9394
 2356TIP3   OH231262   1.005   1.232  13.189 -0.2477 -0.4654  0.0909
 2356TIP3    H131263   0.992   1.139  13.205  0.1069 -0.4748  0.3148
 2356TIP3    H231264   0.991   1.242  13.094  1.6100 -1.0695 -0.2671
 2357TIP3   OH231265   4.368   0.614  11.603  0.6118 -0.0265 -0.1020
 2357TIP3    H131266   4.283   0.640  11.568  0.9109  0.3818 -0.5445
 2357TIP3    H231267   4.420   0.694  11.602  1.3043 -0.4681 -0.7482
 2358TIP3   OH231268   1.654   6.884  12.945  0.6663  0.0263 -0.0693
 2358TIP3    H131269   1.602   6.838  13.011  0.6427 -0.2274 -0.2612
 2358TIP3    H231270   1.594   6.897  12.872  1.4189 -2.1823 -1.1634
 2359TIP3   OH231271   6.178   2.377  11.733 -0.0122 -0.1179  0.0427
 2359TIP3    H131272   6.238   2.439  11.774 -0.7200  0.8433 -0.3375
 2359TIP3    H231273   6.225   2.345  11.656 -0.3632  1.4367 -0.8601
 2360TIP3   OH231274   4.658   2.413  11.539 -0.1258  0.8017 -0.6548
 2360TIP3    H131275   4.602   2.484  11.571  0.7217  1.6380 -0.9506
 2360TIP3    H231276   4.613   2.333  11.564 -2.0931  1.4207 -1.9467
 2361TIP3   OH231277   0.610   5.808  13.685  0.2830  0.1822  0.6002
 2361TIP3    H131278   0.637   5.779  13.598  0.4865  1.5900  0.1771
 2361TIP3    H231279   0.692   5.810  13.736  0.1675 -0.6168  0.8407
 2362TIP3   OH231280   0.987   2.942  11.934 -0.0563  0.1481  0.6162
 2362TIP3    H131281   1.082   2.937  11.932 -0.0866 -0.0944 -0.9743
 2362TIP3    H231282   0.964   3.006  11.868 -0.9962  0.5852  1.3378
 2363TIP3   OH231283   7.403   2.821  13.175  0.7991  0.4591 -0.2868
 2363TIP3    H131284   7.428   2.779  13.257 -0.4239  1.3949  0.5908
 2363TIP3    H231285   7.459   2.779  13.109  3.2477  1.0393  1.2634
 2364TIP3   OH231286   7.254   1.272  13.871  0.0848  0.4418  0.2589
 2364TIP3    H131287   7.201   1.207  13.916 -0.1820  1.4581  1.4761
 2364TIP3    H231288   7.280   1.230  13.789 -1.6470 -0.4912  0.1499
 2365TIP3   OH231289   1.143   6.723  11.060  0.1233  0.3814 -0.7973
 2365TIP3    H131290   1.147   6.819  11.067 -1.1118  0.4856 -1.1695
 2365TIP3    H231291   1.056   6.706  11.023  1.1514 -0.7797 -2.8250
 2366TIP3   OH231292   7.320   5.427  13.262  0.2735 -0.4184 -0.3781
 2366TIP3    H131293   7.224   5.434  13.261  0.3777  2.3833  0.5978
 2366TIP3    H231294   7.339   5.367  13.190 -2.1555  0.3970 -1.8588
 2367TIP3   OH231295   4.078   0.459  13.004 -0.1415 -0.6008  0.0446
 2367TIP3    H131296   4.056   0.550  13.022  2.7079 -0.1576  1.9234
 2367TIP3    H231297   4.045   0.410  13.079 -1.0030 -1.0193 -0.5964
 2368TIP3   OH231298   0.750   2.259  11.707  0.0020 -0.0092  0.0591
 2368TIP3    H131299   0.777   2.168  11.695 -1.7340 -0.5163 -0.2498
 2368TIP3    H231300   0.714   2.263  11.796 -1.0416  0.0596 -0.3515
 2369TIP3   OH231301   0.926   0.986  13.262  0.4152  0.2173  0.0645
 2369TIP3    H131302   0.837   0.958  13.245 -0.0310  1.2234  0.6593
 2369TIP3    H231303   0.948   0.945  13.346  0.6748 -0.3587 -0.2746
 2370TIP3   OH231304   0.888   0.224  12.478  0.0993 -0.3001  0.0403
 2370TIP3    H131305   0.930   0.174  12.408 -2.1140 -2.2458 -0.0216
 2370TIP3    H231306   0.913   0.315  12.461  0.2563 -0.7934 -2.8151
 2371TIP3   OH231307   1.674   7.300  11.746 -0.9075 -0.2326  0.3085
 2371TIP3    H131308   1.736   7.358  11.702  1.5881 -0.8962  2.6982
 2371TIP3    H231309   1.711   7.213  11.738 -1.1275 -0.5791  2.3258
 2372TIP3   OH231310   7.376   3.413  13.592 -0.3085  0.4027  0.8968
 2372TIP3    H131311   7.418   3.329  13.609 -0.0788  0.6384  1.5204
 2372TIP3    H231312   7.286   3.391  13.568 -0.9517  0.0879  3.3939
 2373TIP3   OH231313   6.729   0.081  12.020 -0.6367 -0.4627 -0.1369
 2373TIP3    H131314   6.788   0.022  12.067 -0.5020 -0.5053 -0.3579
 2373TIP3    H231315   6.787   0.150  11.986 -0.8709  0.1049  0.6021
 2374TIP3   OH231316   2.301   4.857  12.635 -0.1632 -0.1284 -0.1234
 2374TIP3    H131317   2.360   4.832  12.564 -0.3376 -0.1107 -0.2785
 2374TIP3    H231318   2.270   4.774  12.671 -0.2438 -0.1389 -0.2145
 2375TIP3   OH231319   3.179   2.671  12.263 -0.1236  0.5583  0.3609
 2375TIP3    H131320   3.271   2.675  12.286 -0.0313 -0.8161  0.3534
 2375TIP3    H231321   3.177   2.674  12.167 -0.2138  2.0682  0.3853
 2376TIP3   OH231322   6.144   4.662  10.759 -0.4460  0.5465 -0.2118
 2376TIP3    H131323   6.063   4.621  10.727  0.5408 -1.0879 -0.7537
 2376TIP3    H231324   6.120   4.753  10.776 -2.2313  0.2588 -0.9718
 2377TIP3   OH231325   1.087   4.591  11.872 -0.6097 -0.5062  0.2461
 2377TIP3    H131326   1.166   4.597  11.927 -0.3250  0.9346 -0.2914
 2377TIP3    H231327   1.106   4.519  11.811  0.3803 -0.0556 -0.0001
 2378TIP3   OH231328   0.412   3.483  12.228  0.3122 -0.2596 -0.3481
 2378TIP3    H131329   0.383   3.424  12.158 -1.2508 -0.7246  0.6371
 2378TIP3    H231330   0.450   3.424  12.294 -0.8706 -0.1551  0.4548
 2379TIP3   OH231331   5.188   1.028  12.940 -0.2544  0.3232  0.4162
 2379TIP3    H131332   5.180   1.057  12.849  1.1485  1.5621  0.6359
 2379TIP3    H231333   5.170   0.934  12.937  1.3410 -0.0030 -1.4462
 2380TIP3   OH231334   3.253   0.011  13.225 -1.1286 -0.3228 -0.8360
 2380TIP3    H131335   3.211   0.022  13.140 -2.6619 -1.6655 -0.2922
 2380TIP3    H231336   3.182   0.013  13.289 -0.2096 -1.0398  0.2621
 2381TIP3   OH231337   4.750   6.987  11.403  0.2285 -0.1436  0.2715
 2381TIP3    H131338   4.703   7.034  11.473  1.9390  1.0089  0.7022
 2381TIP3    H231339   4.747   6.895  11.430 -0.9495  0.0100  0.7473
 2382TIP3   OH231340   2.652   0.439  11.898 -0.4871  0.3589 -0.1840
 2382TIP3    H131341   2.685   0.481  11.819  1.8387 -1.0464 -0.0330
 2382TIP3    H231342   2.557   0.435  11.885 -0.3388  1.6838 -2.1039
 2383TIP3   OH231343   2.827   5.558  13.448  0.2413 -0.6896 -0.0757
 2383TIP3    H131344   2.778   5.568  13.529  0.6164  0.0107  0.0733
 2383TIP3    H231345   2.877   5.477  13.459  0.5832 -0.3979  0.5528
 2384TIP3   OH231346   6.058   4.651  12.545 -0.3246  0.2508 -0.1748
 2384TIP3    H131347   6.069   4.714  12.616  0.0616 -0.0492  0.0342
 2384TIP3    H231348   6.144   4.643  12.505 -0.3398 -0.2275 -0.1265
 2385TIP3   OH231349   6.936   0.135  13.083  0.1696 -0.3668  0.1308
 2385TIP3    H131350   6.864   0.174  13.132  0.1486  1.6309 -1.3878
 2385TIP3    H231351   6.996   0.103  13.151 -0.4399  1.1720  1.4525
 2386TIP3   OH231352   4.199   5.516  13.581 -0.2192 -0.0213  0.0127
 2386TIP3    H131353   4.199   5.530  13.486 -1.3645  1.6063  0.2161
 2386TIP3    H231354   4.288   5.486  13.600 -0.0227 -0.5580 -1.5914
 2387TIP3   OH231355   6.687   5.586  13.023  0.4699  0.6330 -0.3263
 2387TIP3    H131356   6.650   5.522  13.084 -2.3198  2.1123 -0.3076
 2387TIP3    H231357   6.776   5.555  13.007  0.2390 -1.5677  1.9885
 2388TIP3   OH231358   2.824   0.001  13.013 -0.2249  0.2515 -0.3268
 2388TIP3    H131359   2.729   0.012  13.016 -0.1943  0.3985  0.2173
 2388TIP3    H231360   2.847  -0.032  13.099  0.2020  0.0538 -0.5141
 2389TIP3   OH231361   3.680   6.913  12.993 -0.3108 -0.2439 -0.1761
 2389TIP3    H131362   3.711   6.955  12.913 -0.6820  1.3317  0.4720
 2389TIP3    H231363   3.587   6.935  12.998 -0.6345 -1.5651 -0.0537
 2390TIP3   OH231364   0.053   5.483  12.786 -0.3228 -0.1334  0.3269
 2390TIP3    H131365   0.073   5.470  12.693  0.6634 -3.3485  0.8871
 2390TIP3    H231366   0.089   5.569  12.806  3.5190 -1.1771 -1.2703
 2391TIP3   OH231367   7.062   1.579  13.551  0.3452 -0.4332 -0.5349
 2391TIP3    H131368   7.114   1.544  13.624 -0.0784 -0.1918 -0.1103
 2391TIP3    H231369   7.093   1.669  13.541  1.4582 -0.9182 -1.6500
 2392TIP3   OH231370   1.039   3.924  12.717 -0.7699 -0.4054 -0.0854
 2392TIP3    H131371   0.993   3.960  12.641 -0.1546  1.3334  0.3153
 2392TIP3    H231372   0.977   3.932  12.789  0.4912  3.5144  0.8398
 2393TIP3   OH231373   3.709   0.745  12.357  0.0687 -0.4002 -0.0122
 2393TIP3    H131374   3.735   0.827  12.400 -1.2551 -0.1240  0.2956
 2393TIP3    H231375   3.769   0.679  12.392 -0.6649 -0.0942  1.9275
 2394TIP3   OH231376   6.079   1.645  13.759 -0.0343  0.3209  0.3446
 2394TIP3    H131377   6.147   1.592  13.801 -0.4666  0.0063  0.6510
 2394TIP3    H231378   6.009   1.582  13.741 -1.3735  1.1227  2.4414
 2395TIP3   OH231379   4.670   6.471  12.128  0.2413  0.5815 -0.6343
 2395TIP3    H131380   4.586   6.506  12.160  1.2687  2.0070  0.7023
 2395TIP3    H231381   4.720   6.549  12.103  1.9564 -0.0302  0.6736
 2396TIP3   OH231382   1.842   3.908  12.414 -0.2319  0.1583  0.0567
 2396TIP3    H131383   1.864   3.815  12.428  0.9574  0.0923 -1.8488
 2396TIP3    H231384   1.924   3.954  12.429 -0.9269  0.9881  1.4346
 2397TIP3   OH231385   3.310   3.665  13.617 -0.4499 -0.0002 -0.8995
 2397TIP3    H131386   3.297   3.740  13.675  1.1048 -0.9905  0.8515
 2397TIP3    H231387   3.365   3.698  13.546 -2.0299  1.1334 -1.6560
 2398TIP3   OH231388   0.641   3.928  12.154  0.6651  0.7619  0.3051
 2398TIP3    H131389   0.690   3.858  12.196 -0.0162 -0.1535 -0.3780
 2398TIP3    H231390   0.707   3.981  12.109  1.1789  0.5031  0.7526
 2399TIP3   OH231391   0.980   1.515  11.182 -0.7020 -0.1821  0.6846
 2399TIP3    H131392   0.889   1.490  11.170 -0.5612  0.1224 -1.3400
 2399TIP3    H231393   1.029   1.433  11.175 -0.6057  0.0095 -1.3525
 2400TIP3   OH231394   2.053   0.027  12.605 -0.1520  0.5960 -0.1601
 2400TIP3    H131395   2.011  -0.029  12.670  0.3964  0.1360 -0.1940
 2400TIP3    H231396   2.002   0.109  12.606 -1.7039 -0.3136 -0.9480
 2401TIP3   OH231397   0.751   0.365  13.532 -0.0175  0.0674  0.1121
 2401TIP3    H131398   0.815   0.427  13.496 -0.0326 -0.4036 -0.7522
 2401TIP3    H231399   0.804   0.296  13.572  0.0253 -0.1376 -0.2863
 2402TIP3   OH231400   3.670   4.990  11.222 -0.2924  0.0623  0.1000
 2402TIP3    H131401   3.680   5.026  11.134 -0.2310 -0.0196  0.0742
 2402TIP3    H231402   3.576   4.992  11.238 -0.2583  0.6632  0.2767
 2403TIP3   OH231403   1.641   6.144  12.291 -0.9529 -0.3015 -0.0581
 2403TIP3    H131404   1.608   6.233  12.306 -1.7448 -0.8203  1.5935
 2403TIP3    H231405   1.730   6.146  12.326 -0.6077  0.0840 -0.9348
 2404TIP3   OH231406   2.754   0.129  13.281  0.4415  0.2028 -0.0486
 2404TIP3    H131407   2.754   0.162  13.371  0.6308  1.8992 -0.6247
 2404TIP3    H231408   2.785   0.039  13.288  1.0220  0.4943  1.5283
 2405TIP3   OH231409   2.819   3.595  12.477  0.4005  0.2403  0.3063
 2405TIP3    H131410   2.813   3.499  12.472  1.0676  0.2090 -0.0298
 2405TIP3    H231411   2.900   3.616  12.430  1.1958  0.8240  1.8645
 2406TIP3   OH231412   7.463   5.779  13.513  0.0713 -0.3707 -0.3779
 2406TIP3    H131413   7.464   5.784  13.417  0.8425  1.0523 -0.3241
 2406TIP3    H231414   7.465   5.870  13.542 -2.0510 -0.7099  1.0195
 2407TIP3   OH231415   2.874   0.047  13.651 -0.3567  0.0085  0.2101
 2407TIP3    H131416   2.806   0.042  13.717 -0.3696  0.2112  0.2156
 2407TIP3    H231417   2.862   0.134  13.611 -0.0364  0.0915  0.2863
 2408TIP3   OH231418   0.985   6.134  11.203 -0.2116  0.0930  0.1133
 2408TIP3    H131419   0.976   6.126  11.108 -0.3266 -1.7691  0.2559
 2408TIP3    H231420   0.932   6.210  11.225  0.3783  0.9961 -1.3739
 2409TIP3   OH231421   3.544   6.465  12.479  0.8957  0.1905 -0.2334
 2409TIP3    H131422   3.519   6.453  12.387  1.5542 -1.8355 -0.1991
 2409TIP3    H231423   3.463   6.494  12.522 -0.0101 -0.9608 -1.0793
 2410TIP3   OH231424   0.060   2.934  12.088  0.5071  0.0824  0.7246
 2410TIP3    H131425  -0.027   2.966  12.065  0.5240  0.5295  1.2672
 2410TIP3    H231426   0.049   2.839  12.095 -0.0789  0.1921  1.3861
 2411TIP3   OH231427   0.860   2.174  11.276 -0.2566 -0.3733 -0.5841
 2411TIP3    H131428   0.893   2.133  11.196  0.4158  0.1474 -0.5856
 2411TIP3    H231429   0.937   2.180  11.333 -0.9009 -1.5562  0.4653
 2412TIP3   OH231430   7.518   1.030  11.324  0.3182 -0.1704 -0.2803
 2412TIP3    H131431   7.554   0.969  11.259  0.3742  0.3295 -0.7200
 2412TIP3    H231432   7.533   1.117  11.288 -0.6330  0.0805 -0.1217
 2413TIP3   OH231433   7.156   4.711  12.223 -0.4491  0.1370 -0.7013
 2413TIP3    H131434   7.228   4.698  12.284 -0.8866  0.5531 -0.0839
 2413TIP3    H231435   7.197   4.710  12.136  0.3637  0.8410 -0.3354
 2414TIP3   OH231436   0.672   4.533  12.986 -0.8284 -0.0441 -0.3473
 2414TIP3    H131437   0.639   4.448  13.015 -1.2608 -0.5178 -2.1147
 2414TIP3    H231438   0.600   4.571  12.936 -0.0895  0.6630 -0.9074
 2415TIP3   OH231439   7.389   0.338  13.323  0.0518 -0.1172  0.5600
 2415TIP3    H131440   7.482   0.358  13.307 -0.1615  1.1853  0.7993
 2415TIP3    H231441   7.360   0.295  13.243  1.4942 -3.0711  1.4833
 2416TIP3   OH231442   1.041   4.936  11.044  0.1063 -0.0171  0.2273
 2416TIP3    H131443   1.104   5.009  11.046  0.5510 -0.4052  0.7198
 2416TIP3    H231444   1.085   4.866  11.092 -1.0778  0.0005  1.3781
 2417TIP3   OH231445   4.323   2.662  12.738 -0.3348  0.1295 -0.0191
 2417TIP3    H131446   4.249   2.668  12.798 -0.6527  0.2316 -0.4163
 2417TIP3    H231447   4.284   2.637  12.654  0.0040  0.7804 -0.3796
 2418TIP3   OH231448   2.275   5.600  12.929 -0.2578 -0.1402  0.5486
 2418TIP3    H131449   2.312   5.548  12.858  1.8794  0.5320  1.1040
 2418TIP3    H231450   2.239   5.678  12.886  1.0788  0.2953  0.1709
 2419TIP3   OH231451   3.297   2.457  11.307  0.0227  0.2218 -0.3082
 2419TIP3    H131452   3.238   2.382  11.303  0.9678 -0.5039 -1.1208
 2419TIP3    H231453   3.385   2.420  11.315  0.6329  1.1605 -2.0184
 2420TIP3   OH231454   6.989   4.068  11.529  0.8997  0.1387  0.1132
 2420TIP3    H131455   6.894   4.079  11.543  0.2231 -1.8942 -2.2029
 2420TIP3    H231456   7.004   4.097  11.440  2.3179 -0.2679  0.1933
 2421TIP3   OH231457   3.805   7.503  11.865  0.0602 -0.1867 -0.8533
 2421TIP3    H131458   3.821   7.594  11.888  0.9582 -0.1253 -1.6250
 2421TIP3    H231459   3.842   7.452  11.937 -0.4263  0.0565 -0.4313
 2422TIP3   OH231460   6.641   0.713  12.328 -0.1682 -0.3024 -0.3719
 2422TIP3    H131461   6.634   0.620  12.307  1.3602 -0.6120  0.3258
 2422TIP3    H231462   6.655   0.756  12.243  0.5877 -0.8972 -0.5637
 2423TIP3   OH231463   3.743   2.786  12.452  0.1971  0.3321 -0.6900
 2423TIP3    H131464   3.740   2.740  12.368  0.9268 -0.1194 -0.4771
 2423TIP3    H231465   3.822   2.840  12.447  1.6593 -1.5185  0.6013
 2424TIP3   OH231466   1.307   4.785  13.084 -0.1402 -0.0490  1.1866
 2424TIP3    H131467   1.401   4.799  13.070  0.2523 -3.7901 -1.1620
 2424TIP3    H231468   1.266   4.819  13.005 -0.4662 -0.8728  0.9997
 2425TIP3   OH231469   6.826   1.011  12.838 -0.3014 -0.0053  0.5565
 2425TIP3    H131470   6.860   1.018  12.928 -0.1828  0.3196  0.4855
 2425TIP3    H231471   6.771   1.088  12.826 -0.0299  0.1425  0.2292
 2426TIP3   OH231472   6.813   5.491  11.460 -0.1688  0.0585  0.0994
 2426TIP3    H131473   6.808   5.490  11.364  0.4384  1.3170  0.0372
 2426TIP3    H231474   6.835   5.581  11.482  0.3670 -0.3692  1.4007
 2427TIP3   OH231475   2.634   4.031  12.537  0.6721  0.4108  0.1434
 2427TIP3    H131476   2.606   3.990  12.619 -0.4461 -0.2295 -0.5335
 2427TIP3    H231477   2.718   3.989  12.517  0.1155 -0.6974  0.0747
 2428TIP3   OH231478   0.701   3.594  11.681 -0.0228 -0.2332  0.0766
 2428TIP3    H131479   0.687   3.667  11.742  0.9342  0.3960 -0.4311
 2428TIP3    H231480   0.666   3.518  11.727 -1.9088  0.6699  0.2435
 2429TIP3   OH231481   7.011   2.994  12.265  1.3109  0.0249 -0.0230
 2429TIP3    H131482   7.040   3.064  12.208 -0.0191  1.7037  1.2375
 2429TIP3    H231483   6.920   2.979  12.241  1.1196 -0.1568  0.7608
 2430TIP3   OH231484   1.853   3.244  11.502  0.4241 -0.5879 -0.3284
 2430TIP3    H131485   1.837   3.250  11.596  1.6688 -0.8617 -0.0856
 2430TIP3    H231486   1.891   3.157  11.490  0.9668 -0.2714 -0.9719
 2431TIP3   OH231487   0.573   1.785  12.353  0.0947 -0.2200  0.7000
 2431TIP3    H131488   0.482   1.770  12.381  0.8559 -2.3251  2.2871
 2431TIP3    H231489   0.614   1.828  12.428  1.3282 -2.8582  1.6427
 2432TIP3   OH231490   3.426   2.752  10.798 -0.4827  0.7273  0.1707
 2432TIP3    H131491   3.483   2.819  10.835 -1.1656  0.2236  2.2606
 2432TIP3    H231492   3.407   2.694  10.872 -0.8259 -1.1328 -1.3086
 2433TIP3   OH231493   0.805   7.422  12.239 -0.1890 -0.3642 -0.5355
 2433TIP3    H131494   0.795   7.501  12.186  2.5608  0.5705  0.1768
 2433TIP3    H231495   0.785   7.451  12.328  1.2306 -0.3074 -0.2102
 2434TIP3   OH231496   5.465   0.589  11.677  0.5129  0.1162  0.1417
 2434TIP3    H131497   5.500   0.500  11.676  0.5407  0.1148  0.6976
 2434TIP3    H231498   5.542   0.646  11.687  0.3446  0.0836  1.9395
 2435TIP3   OH231499   3.575   4.632  12.511  0.2880  0.3100  0.0589
 2435TIP3    H131500   3.642   4.642  12.578  0.3312  0.3210  0.0145
 2435TIP3    H231501   3.613   4.572  12.447  0.2281  0.2611  0.0689
 2436TIP3   OH231502   7.028   5.422  13.381  0.1014  0.5908 -0.0032
 2436TIP3    H131503   6.995   5.511  13.370 -0.5172  0.3391 -0.2268
 2436TIP3    H231504   7.078   5.425  13.463  0.0724  1.1397 -0.0042
 2437TIP3   OH231505   7.109   3.378  13.497  0.0382  0.1125 -0.0637
 2437TIP3    H131506   7.112   3.405  13.405  1.7924 -2.1125 -0.7467
 2437TIP3    H231507   7.025   3.335  13.507  0.1443 -0.3195 -0.8782
 2438TIP3   OH231508   3.011   4.005  10.841 -0.4327 -0.1077  0.0307
 2438TIP3    H131509   2.988   3.970  10.755 -1.5292  1.6017 -0.4277
 2438TIP3    H231510   2.965   4.089  10.846  0.8661  0.5718  1.6600
 2439TIP3   OH231511   4.508   0.339  13.080  0.3903  0.8713 -0.2362
 2439TIP3    H131512   4.602   0.355  13.068  0.4935 -0.3512 -1.2746
 2439TIP3    H231513   4.486   0.274  13.013 -0.7653 -0.4377  1.3417
 2440TIP3   OH231514   0.128   4.171  11.050 -0.0970 -0.2606 -0.0201
 2440TIP3    H131515   0.102   4.260  11.028  0.3429  0.5217  2.3777
 2440TIP3    H231516   0.139   4.128  10.965  1.3621  2.4089 -1.2994
 2441TIP3   OH231517   0.132   6.132  11.846 -0.8242  0.3131  0.1136
 2441TIP3    H131518   0.050   6.082  11.844 -1.1180  0.5000  3.0690
 2441TIP3    H231519   0.147   6.149  11.939  1.5648  1.9934 -0.4978
 2442TIP3   OH231520   3.068   0.036  13.434  0.2843  0.6275 -0.0719
 2442TIP3    H131521   3.043   0.023  13.526  3.0685 -0.5190  0.6403
 2442TIP3    H231522   3.062   0.131  13.421  0.4809  0.8942  1.5282
 2443TIP3   OH231523   5.572   0.806  12.193 -0.4039  0.3696 -0.0496
 2443TIP3    H131524   5.594   0.890  12.234 -1.3205  0.3607  0.4883
 2443TIP3    H231525   5.649   0.784  12.141 -0.0566  1.4261 -0.0064
 2444TIP3   OH231526   4.025   2.586  12.354  0.0651  0.3500  0.8063
 2444TIP3    H131527   3.943   2.536  12.346  0.2473  0.2104 -0.2633
 2444TIP3    H231528   4.081   2.551  12.285  0.7462  0.9949  1.0257
 2445TIP3   OH231529   2.261   7.193  13.338 -0.5405  0.4048 -0.0352
 2445TIP3    H131530   2.276   7.287  13.351  0.5229  0.1779  0.4645
 2445TIP3    H231531   2.302   7.152  13.414 -1.7740 -0.4182  0.2124
 2446TIP3   OH231532   1.010   5.842  12.381 -0.6530  0.8180 -0.1998
 2446TIP3    H131533   1.105   5.836  12.373 -0.5877 -0.9189  1.3351
 2446TIP3    H231534   0.997   5.896  12.459 -0.9055  0.3198  0.1034
 2447TIP3   OH231535   1.933   3.710  12.849 -0.2116  0.3576  0.1138
 2447TIP3    H131536   1.942   3.616  12.836 -0.7227  0.6201 -2.8373
 2447TIP3    H231537   1.888   3.719  12.933  0.1651 -1.9886  0.6211
 2448TIP3   OH231538   6.514   7.288  11.693 -0.3773 -0.4792 -0.0743
 2448TIP3    H131539   6.518   7.271  11.787  0.8285  0.1520  0.0079
 2448TIP3    H231540   6.594   7.247  11.658  1.5356  2.9584 -0.1643
 2449TIP3   OH231541   1.866   0.406  12.071 -0.6173  0.4803  0.0637
 2449TIP3    H131542   1.902   0.487  12.035 -0.3774  0.3614  0.0299
 2449TIP3    H231543   1.783   0.395  12.026 -0.9058  0.9900  0.4611
 2450TIP3   OH231544   5.994   3.011  13.149  0.0955  0.1903 -0.0160
 2450TIP3    H131545   5.951   2.928  13.129 -0.2845  0.0117  1.3957
 2450TIP3    H231546   5.944   3.076  13.100  0.0671 -0.3545 -0.7206
 2451TIP3   OH231547   1.940   4.612  12.281  0.0172  0.1073  0.2089
 2451TIP3    H131548   2.000   4.657  12.341  0.0877  0.6920 -0.2900
 2451TIP3    H231549   1.979   4.625  12.194 -2.5175  3.5145 -0.6206
 2452TIP3   OH231550   7.257   3.935  13.425 -0.0846  0.5052 -0.2077
 2452TIP3    H131551   7.225   3.886  13.349 -0.5726  0.2727  0.1448
 2452TIP3    H231552   7.254   3.871  13.497 -1.7404  1.3435  0.5023
 2453TIP3   OH231553   4.294   6.434  11.313 -0.4523  0.1041 -0.3827
 2453TIP3    H131554   4.375   6.427  11.262 -0.4476  0.2282 -0.3938
 2453TIP3    H231555   4.229   6.465  11.250 -0.6658 -0.6309 -0.5302
 2454TIP3   OH231556   1.557   6.711  11.013  0.4207  0.2376  0.5800
 2454TIP3    H131557   1.501   6.766  10.958  1.0602  2.3894  1.9496
 2454TIP3    H231558   1.498   6.672  11.077  0.0726  0.0149  0.1237
 2455TIP3   OH231559   0.149   3.310  12.248 -0.6862  0.0658 -0.0915
 2455TIP3    H131560   0.060   3.278  12.241 -0.4592 -0.2403 -3.1904
 2455TIP3    H231561   0.148   3.393  12.200  0.4039  0.8142  1.1092
 2456TIP3   OH231562   4.048   7.136  11.998 -0.3023  0.2149 -0.3762
 2456TIP3    H131563   4.040   7.089  12.080  0.6958  0.5150 -0.0851
 2456TIP3    H231564   4.001   7.218  12.012 -0.9228 -0.1235 -0.4345
 2457TIP3   OH231565   4.279   4.083  13.148  0.5846  0.0971  0.1035
 2457TIP3    H131566   4.263   4.158  13.092 -0.6012  0.7344  1.2300
 2457TIP3    H231567   4.192   4.056  13.178  0.7862 -2.8242 -1.5808
 2458TIP3   OH231568   1.730   2.317  13.300 -0.0483  0.2355  0.5149
 2458TIP3    H131569   1.820   2.335  13.326  0.0806  1.2620 -0.5653
 2458TIP3    H231570   1.737   2.251  13.231 -0.0405  0.9815 -0.2124
 2459TIP3   OH231571   7.044   1.252  11.378 -0.0424  0.8607 -0.5610
 2459TIP3    H131572   7.032   1.160  11.354 -0.1483  0.6762  0.1823
 2459TIP3    H231573   7.050   1.298  11.294  2.2940 -0.0962 -0.9916
 2460TIP3   OH231574   3.971   2.172  10.895 -0.6212  0.3284  0.1650
 2460TIP3    H131575   4.002   2.219  10.817 -1.2565  0.5886  0.0640
 2460TIP3    H231576   3.939   2.241  10.953 -0.5454  0.0998  0.4797
 2461TIP3   OH231577   3.183   3.922  11.593 -0.1032 -0.4098  0.2473
 2461TIP3    H131578   3.117   3.865  11.553  0.1427 -0.2196 -0.4326
 2461TIP3    H231579   3.267   3.888  11.561  0.0657  0.0816  0.1678
 2462TIP3   OH231580   6.407   1.119  12.291  0.1759  0.1601 -0.0847
 2462TIP3    H131581   6.403   1.060  12.216 -3.5299 -0.2033  0.2142
 2462TIP3    H231582   6.379   1.203  12.257  0.5268  0.5113  0.4807
 2463TIP3   OH231583   5.112   4.353  12.271  0.4443 -0.1997  0.0498
 2463TIP3    H131584   5.117   4.310  12.185  1.1901 -0.3303  0.1540
 2463TIP3    H231585   5.160   4.295  12.330  0.4349  0.1814  0.4351
 2464TIP3   OH231586   4.780   7.459  11.278  0.0886  0.9106 -0.3661
 2464TIP3    H131587   4.790   7.554  11.271 -0.0255  1.1359  1.9114
 2464TIP3    H231588   4.743   7.445  11.365  0.6030 -1.2527 -0.4467
 2465TIP3   OH231589   3.730   5.816  10.963 -0.1674 -0.1272 -0.5525
 2465TIP3    H131590   3.812   5.802  10.917  0.2144  0.4748 -0.0669
 2465TIP3    H231591   3.748   5.888  11.024 -1.2019  0.3732 -0.8143
 2466TIP3   OH231592   2.271   6.572  12.511 -0.3960  0.0363 -0.5106
 2466TIP3    H131593   2.217   6.635  12.463  0.1021 -0.4777 -1.7954
 2466TIP3    H231594   2.332   6.625  12.561 -1.1322  0.5938 -0.1903
 2467TIP3   OH231595   5.317   6.996  12.113  0.3195  0.3805 -0.1082
 2467TIP3    H131596   5.266   7.013  12.192 -0.4553 -1.7282 -0.0963
 2467TIP3    H231597   5.369   6.918  12.134  0.6406  0.2063 -1.4369
 2468TIP3   OH231598   1.463   0.040  11.906 -0.8524  0.3212 -0.6417
 2468TIP3    H131599   1.538   0.080  11.949 -0.0646 -0.9157 -0.8194
 2468TIP3    H231600   1.408   0.114  11.881 -0.0169  1.2126  0.0672
 2469TIP3   OH231601   4.314   7.181  12.020 -0.7798 -0.0200  0.0332
 2469TIP3    H131602   4.233   7.133  12.004 -0.5957 -0.6967  1.0379
 2469TIP3    H231603   4.316   7.193  12.115  2.4150 -3.9539  0.7323
 2470TIP3   OH231604   7.530   5.710  10.687 -0.2964  0.3166 -0.6848
 2470TIP3    H131605   7.472   5.701  10.762 -0.2158  0.0860 -0.6485
 2470TIP3    H231606   7.577   5.626  10.682  0.7405  0.8431 -0.1115
 2471TIP3   OH231607   4.314   3.522  11.300  0.0697  0.3783  0.2278
 2471TIP3    H131608   4.339   3.614  11.292 -1.4886  0.9839  1.7984
 2471TIP3    H231609   4.352   3.494  11.384 -0.4539 -0.0773  0.3130
 2472TIP3   OH231610   3.490   0.272  13.028 -0.0233 -0.0637 -0.8820
 2472TIP3    H131611   3.423   0.337  13.047 -0.5437 -0.6988 -0.5088
 2472TIP3    H231612   3.473   0.201  13.089  1.2234 -0.0844 -0.5266
 2473TIP3   OH231613   4.575   2.686  12.525 -0.1772  0.1899  0.2607
 2473TIP3    H131614   4.522   2.652  12.454 -0.9390  1.5285  0.1425
 2473TIP3    H231615   4.587   2.612  12.585 -1.0789 -0.4641 -0.3527
 2474TIP3   OH231616   5.443   6.421  12.030  0.1799  0.9446 -0.1920
 2474TIP3    H131617   5.512   6.461  11.977  2.2615 -2.3292 -0.2957
 2474TIP3    H231618   5.419   6.342  11.981  1.3476 -1.5960  2.9546
 2475TIP3   OH231619   2.762   2.256  13.280  0.3126  0.1647 -0.2366
 2475TIP3    H131620   2.845   2.302  13.288 -1.2163  3.6907 -2.0262
 2475TIP3    H231621   2.704   2.299  13.343 -0.7541 -0.6261 -0.6351
 2476TIP3   OH231622   0.016   5.681  13.210 -0.0457 -0.0142  0.3386
 2476TIP3    H131623   0.040   5.670  13.302 -1.6089 -1.1827  0.6455
 2476TIP3    H231624   0.021   5.593  13.173 -1.2505  0.1220 -0.2034
 2477TIP3   OH231625   1.014   6.714  12.198 -0.1774  0.3151  0.2554
 2477TIP3    H131626   0.951   6.749  12.135 -0.5314 -0.7137  0.0105
 2477TIP3    H231627   1.069   6.655  12.146 -0.1732 -0.1793  0.8194
 2478TIP3   OH231628   4.961   6.442  13.157  0.2556  0.1006 -0.5142
 2478TIP3    H131629   4.897   6.512  13.167  0.5649  0.4646 -0.9820
 2478TIP3    H231630   5.040   6.475  13.201  0.2978 -0.0965 -0.4419
 2479TIP3   OH231631   4.570   2.786  12.794 -0.3425  0.1789 -0.5965
 2479TIP3    H131632   4.486   2.744  12.778 -1.4299  1.2330  1.7569
 2479TIP3    H231633   4.552   2.850  12.863  2.4088  0.3953  0.0618
 2480TIP3   OH231634   0.168   4.965  10.956  0.0138  0.1595 -0.1103
 2480TIP3    H131635   0.128   4.959  11.043  0.1511  0.0396 -0.0564
 2480TIP3    H231636   0.244   5.021  10.968  0.7653 -0.8812  0.1125
 2481TIP3   OH231637   1.182   4.858  12.845  0.0862 -0.4472 -0.0306
 2481TIP3    H131638   1.147   4.783  12.797 -1.3679  1.1443 -1.6008
 2481TIP3    H231639   1.249   4.895  12.787  1.7151 -1.2093  1.2855
 2482TIP3   OH231640   0.788   5.683  11.774 -0.6698 -0.2031 -0.3018
 2482TIP3    H131641   0.719   5.689  11.839 -1.9500 -1.1001 -1.5131
 2482TIP3    H231642   0.858   5.738  11.808 -1.3306 -0.5375  1.7506
 2483TIP3   OH231643   2.839   5.009  13.499 -0.3615 -0.2849  0.3443
 2483TIP3    H131644   2.803   4.924  13.474 -0.0105 -0.5146  0.6029
 2483TIP3    H231645   2.791   5.033  13.578  1.0808 -1.3318  1.6192
 2484TIP3   OH231646   6.438   0.628  10.739  0.2356 -0.6140  0.4352
 2484TIP3    H131647   6.346   0.613  10.761 -0.4879  1.1755 -1.0262
 2484TIP3    H231648   6.441   0.619  10.644  1.7579 -1.3676  0.5302
 2485TIP3   OH231649   0.080   7.439  12.171 -0.4026  0.5748  0.1604
 2485TIP3    H131650   0.005   7.498  12.162 -2.1912 -1.5193  0.5639
 2485TIP3    H231651   0.108   7.422  12.081 -1.5136  0.0852 -0.1149
 2486TIP3   OH231652   6.320   6.984  12.103 -0.0019  0.3559  0.1663
 2486TIP3    H131653   6.269   6.926  12.161  0.8233  0.6279  1.2025
 2486TIP3    H231654   6.314   7.070  12.145  1.1017  0.4373  0.1881
 2487TIP3   OH231655   2.630   6.259  12.495  0.0290 -0.3695 -0.2334
 2487TIP3    H131656   2.571   6.317  12.446 -0.9241 -1.4449 -0.4032
 2487TIP3    H231657   2.638   6.301  12.581 -2.8486 -1.2912  0.5955
 2488TIP3   OH231658   0.115   0.278  12.366 -0.4844  0.3286  0.0337
 2488TIP3    H131659   0.119   0.341  12.438 -0.8032  0.8315 -0.3797
 2488TIP3    H231660   0.184   0.216  12.385 -2.0941 -0.9757  2.1000
 2489TIP3   OH231661   0.932   4.550  11.074  0.0592 -0.1956  0.0251
 2489TIP3    H131662   0.932   4.458  11.047  1.5050  0.1564 -1.2728
 2489TIP3    H231663   0.844   4.581  11.051 -0.3549 -1.1568  0.2247
 2490TIP3   OH231664   0.686   5.345  11.839 -0.1114  0.1135  0.0706
 2490TIP3    H131665   0.653   5.425  11.879  0.7590  1.3551 -1.5704
 2490TIP3    H231666   0.772   5.369  11.805 -0.2960 -1.2005 -1.4164
 2491TIP3   OH231667   1.162   0.567  12.836  0.3481  0.7986 -0.1758
 2491TIP3    H131668   1.078   0.592  12.875  1.2670  2.7799  0.6547
 2491TIP3    H231669   1.183   0.639  12.777  1.6778  0.5552 -0.0372
 2492TIP3   OH231670   6.681   5.379  12.362 -0.3115 -0.1387 -0.3344
 2492TIP3    H131671   6.727   5.365  12.444 -0.5883  0.9527  0.0256
 2492TIP3    H231672   6.748   5.408  12.301  0.1753 -2.3739 -0.9504
 2493TIP3   OH231673   0.654   1.559  13.237  0.1597  0.1313  0.2089
 2493TIP3    H131674   0.652   1.533  13.146 -1.3238 -0.8409  0.4836
 2493TIP3    H231675   0.651   1.477  13.286  0.3870  0.6585  1.1374
 2494TIP3   OH231676   5.248   0.234  11.538  0.2567  0.4598 -0.0891
 2494TIP3    H131677   5.175   0.274  11.491 -1.0539 -0.7921  0.7634
 2494TIP3    H231678   5.307   0.204  11.469 -0.5605  0.5540 -0.8557
 2495TIP3   OH231679   2.713   3.001  12.290 -0.3038 -0.3065  0.6963
 2495TIP3    H131680   2.756   2.924  12.252  0.7678  1.4146 -1.8913
 2495TIP3    H231681   2.783   3.048  12.335  0.3576  1.5981 -2.0296
 2496TIP3   OH231682   0.978   4.410  12.468  0.2982 -0.5473  0.2763
 2496TIP3    H131683   0.998   4.462  12.545 -0.2071  1.6615 -0.9939
 2496TIP3    H231684   0.891   4.440  12.440 -0.5569 -2.9389  0.1255
 2497TIP3   OH231685   2.859   2.755  13.270  0.1893 -0.2334 -0.1553
 2497TIP3    H131686   2.822   2.792  13.190  1.1920 -0.1453 -0.5906
 2497TIP3    H231687   2.953   2.773  13.264  0.3148 -0.4583  0.9183
 2498TIP3   OH231688   3.113   1.927  13.271  0.7390 -0.6066 -0.6889
 2498TIP3    H131689   3.158   2.011  13.282  0.6104 -0.2556 -2.4522
 2498TIP3    H231690   3.174   1.875  13.218  0.4048 -1.2750 -0.4178
 2499TIP3   OH231691   5.112   0.892  10.913  0.1817 -0.1181  0.0882
 2499TIP3    H131692   5.201   0.903  10.881 -0.1123  3.6068  0.1370
 2499TIP3    H231693   5.072   0.978  10.902 -3.3852 -1.5853  0.2650
 2500TIP3   OH231694   4.185   1.904  11.544  0.2634  0.2978 -0.1988
 2500TIP3    H131695   4.220   1.878  11.459  0.4398  2.3217 -0.7965
 2500TIP3    H231696   4.171   1.821  11.591 -1.5651 -1.0172 -2.8305
 2501TIP3   OH231697   2.981   3.021  13.444  0.0260  0.1656  0.2765
 2501TIP3    H131698   2.895   3.040  13.406  0.2985 -1.2630 -1.1721
 2501TIP3    H231699   3.039   3.088  13.408  0.0531 -0.5141 -0.9979
 2502TIP3   OH231700   2.548   6.796  11.494  0.2124 -0.1307  0.1404
 2502TIP3    H131701   2.498   6.815  11.414 -1.6172 -0.2746  1.1768
 2502TIP3    H231702   2.637   6.826  11.475 -0.2854  0.2589 -1.7751
 2503TIP3   OH231703   3.621   2.734  13.559  0.1866  0.0272 -0.4901
 2503TIP3    H131704   3.542   2.779  13.591  1.0994  2.2276 -1.1500
 2503TIP3    H231705   3.684   2.804  13.544  2.5798 -1.7346  0.7453
 2504TIP3   OH231706   0.596   2.211  11.365 -0.7226  0.1818 -0.0076
 2504TIP3    H131707   0.685   2.215  11.330 -0.8056  0.4490 -0.1901
 2504TIP3    H231708   0.551   2.149  11.307 -0.8378  0.5612 -0.3289
 2505TIP3   OH231709   2.827   6.513  12.016 -0.4889 -0.5531 -0.1884
 2505TIP3    H131710   2.832   6.568  12.093  0.5881  0.5370 -0.9996
 2505TIP3    H231711   2.909   6.463  12.016  0.4453  0.8830 -1.6184
 2506TIP3   OH231712   4.941   7.264  11.040 -0.2427  0.0818  0.1198
 2506TIP3    H131713   4.899   7.194  11.090 -0.4024  0.2518  0.2222
 2506TIP3    H231714   4.888   7.273  10.961 -0.3738  0.2631  0.2269
 2507TIP3   OH231715   0.053   6.093  13.638  0.0882 -0.1488 -0.2095
 2507TIP3    H131716   0.118   6.164  13.639 -0.2072  0.1438 -1.1144
 2507TIP3    H231717   0.090   6.027  13.696  0.6793  0.4739  0.1453
 2508TIP3   OH231718   7.375   0.870  13.005 -0.2378 -0.2528 -0.3847
 2508TIP3    H131719   7.452   0.816  12.987  0.0258  0.4320 -1.3711
 2508TIP3    H231720   7.410   0.952  13.038 -0.4039  0.7741 -2.5963
 2509TIP3   OH231721   4.198   4.489  12.268  0.5976 -0.0070  0.3360
 2509TIP3    H131722   4.134   4.558  12.285 -0.0634 -0.9614  2.0517
 2509TIP3    H231723   4.223   4.458  12.356 -0.4071 -3.0735 -0.3351
 2510TIP3   OH231724   3.746   0.987  12.521 -0.1014 -0.0580 -0.0213
 2510TIP3    H131725   3.816   1.019  12.463 -1.7519  0.0340 -2.0938
 2510TIP3    H231726   3.731   1.059  12.582 -0.0208  0.9262 -1.1264
 2511TIP3   OH231727   0.345   2.481  11.323 -0.0243 -0.3192 -0.1416
 2511TIP3    H131728   0.383   2.549  11.379  0.3417 -0.7699  0.1693
 2511TIP3    H231729   0.402   2.477  11.247  0.1379 -0.4862 -0.0146
 2512TIP3   OH231730   3.488   7.482  11.619 -0.1355 -0.3797 -0.5192
 2512TIP3    H131731   3.566   7.513  11.572 -0.9799  1.5157 -0.7680
 2512TIP3    H231732   3.422   7.470  11.551  0.0959 -2.7224 -0.4109
 2513TIP3   OH231733   6.949   4.345  11.759  0.1717  0.1903 -0.0090
 2513TIP3    H131734   6.915   4.291  11.688 -1.2223 -0.1461  0.8704
 2513TIP3    H231735   6.892   4.421  11.760 -0.0769  0.0048  0.9825
 2514TIP3   OH231736   4.704   3.755  13.535 -0.2087 -0.3700  0.6604
 2514TIP3    H131737   4.631   3.704  13.570  0.4452 -0.5715  1.7574
 2514TIP3    H231738   4.682   3.846  13.555 -1.7671 -0.0640 -2.0029
 2515TIP3   OH231739   5.919   1.793  12.866  0.1803  0.2083 -0.3930
 2515TIP3    H131740   5.966   1.795  12.949 -0.1835 -0.1121 -0.1762
 2515TIP3    H231741   5.891   1.702  12.855  1.5676 -0.1086 -1.6424
 2516TIP3   OH231742   1.866   4.353  12.614  0.5073 -0.3630  0.2679
 2516TIP3    H131743   1.822   4.306  12.544  0.3168  1.3149 -0.8076
 2516TIP3    H231744   1.827   4.319  12.695 -1.6505 -0.0427 -0.5814
 2517TIP3   OH231745   4.774   3.379  12.470  0.3633  0.1063 -0.3414
 2517TIP3    H131746   4.733   3.387  12.557  0.9696 -0.7598  0.0431
 2517TIP3    H231747   4.831   3.302  12.478 -0.4892 -0.7293 -1.8758
 2518TIP3   OH231748   5.251   0.523  13.146 -0.3595  0.6160  0.4429
 2518TIP3    H131749   5.302   0.536  13.066 -0.2827 -1.8731  0.0064
 2518TIP3    H231750   5.160   0.520  13.116 -0.3480 -0.0625  0.4442
 2519TIP3   OH231751   3.159   1.818  12.049  0.3972  0.3833 -0.5699
 2519TIP3    H131752   3.234   1.861  12.089  0.3219  1.2644 -1.3437
 2519TIP3    H231753   3.101   1.798  12.123  1.3695 -0.3041  0.0332
 2520TIP3   OH231754   2.680   1.691  12.703 -0.3742 -0.2990 -0.1518
 2520TIP3    H131755   2.747   1.630  12.674 -0.8454 -0.7640 -0.2756
 2520TIP3    H231756   2.609   1.635  12.737 -0.5720  0.1880  0.2569
 2521TIP3   OH231757   3.566   6.693  12.840 -0.1599  0.5912  0.1213
 2521TIP3    H131758   3.599   6.608  12.810 -2.3569  0.3474 -1.9345
 2521TIP3    H231759   3.610   6.708  12.923  0.6673 -2.3432  0.3357
 2522TIP3   OH231760   6.069   0.140  12.939 -0.1637  1.0450  0.1822
 2522TIP3    H131761   6.136   0.138  12.871  0.2774 -1.8272  0.5764
 2522TIP3    H231762   6.110   0.183  13.014 -0.1213  2.7745 -0.7889
 2523TIP3   OH231763   6.673   1.141  13.428  0.2686  0.2749  0.0288
 2523TIP3    H131764   6.594   1.095  13.456  0.8756 -0.4092  0.6845
 2523TIP3    H231765   6.642   1.224  13.392 -0.8167 -0.4321 -0.7101
 2524TIP3   OH231766   6.901   6.646  11.519 -0.7950 -0.0724 -0.0932
 2524TIP3    H131767   6.964   6.690  11.576 -1.4587  0.5104  0.2007
 2524TIP3    H231768   6.947   6.568  11.489 -0.6959 -0.8586  1.9174
 2525TIP3   OH231769   4.564   3.477  12.315  0.0062  0.0560  0.2316
 2525TIP3    H131770   4.625   3.434  12.375  0.7866  1.5493  0.5582
 2525TIP3    H231771   4.605   3.467  12.229 -0.6362 -1.2365  0.0399
 2526TIP3   OH231772   0.953   4.023  11.707 -0.3311  0.0088  0.3465
 2526TIP3    H131773   0.899   3.954  11.669 -0.7579 -0.0479  1.0349
 2526TIP3    H231774   0.914   4.105  11.676 -0.9008 -0.0286  0.9383
 2527TIP3   OH231775   2.384   0.564  12.140 -0.0683  0.4467  0.1230
 2527TIP3    H131776   2.406   0.558  12.047 -0.9936 -0.9082 -0.0326
 2527TIP3    H231777   2.300   0.611  12.142  0.1644  0.8682  0.3253
 2528TIP3   OH231778   4.705   4.154  11.421  0.0081  0.0974 -0.4539
 2528TIP3    H131779   4.695   4.066  11.383 -1.5971 -0.4041  1.0156
 2528TIP3    H231780   4.622   4.198  11.401  0.4169  0.9428 -0.3150
 2529TIP3   OH231781   2.409   5.330  11.770  0.4224  0.0825 -0.5454
 2529TIP3    H131782   2.477   5.385  11.808 -1.2793  0.7455  1.7858
 2529TIP3    H231783   2.348   5.314  11.842 -1.5499 -1.0541 -2.3370
 2530TIP3   OH231784   1.944   3.154  12.852  0.4158 -0.3623  0.1291
 2530TIP3    H131785   1.877   3.184  12.791  0.6946  1.5617  0.7101
 2530TIP3    H231786   1.980   3.075  12.811  0.2206  0.5452 -1.9207
 2531TIP3   OH231787   2.855   6.891  11.451  0.1086  0.0035  0.6826
 2531TIP3    H131788   2.930   6.839  11.480 -0.1098 -0.4354  0.4690
 2531TIP3    H231789   2.892   6.978  11.433  0.3490  0.1206  1.6998
 2532TIP3   OH231790   5.537   1.293  13.245 -0.1838  0.3216 -0.4664
 2532TIP3    H131791   5.617   1.321  13.290  0.5473 -1.9226 -0.2464
 2532TIP3    H231792   5.471   1.290  13.314 -0.4533  1.9817 -0.6075
 2533TIP3   OH231793   4.769   7.655  11.959 -0.4976  0.4212 -0.2315
 2533TIP3    H131794   4.729   7.741  11.949 -0.8634  0.1693 -1.0648
 2533TIP3    H231795   4.857   7.673  11.991 -0.9460  1.0351  0.7002
 2534TIP3   OH231796   3.815   6.419  13.277 -0.0525  0.0323  0.0157
 2534TIP3    H131797   3.759   6.390  13.205 -0.2861 -0.2999  0.3279
 2534TIP3    H231798   3.852   6.338  13.312 -0.9446  0.0666  1.0942
 2535TIP3   OH231799   0.806   1.838  13.482  0.4618 -0.0591  0.1058
 2535TIP3    H131800   0.822   1.764  13.540 -0.4481  0.6834  1.3363
 2535TIP3    H231801   0.851   1.911  13.523  1.2186  0.1429 -1.0220
 2536TIP3   OH231802   1.715   0.385  12.520 -0.1439 -0.3446 -0.1759
 2536TIP3    H131803   1.806   0.377  12.551 -0.2584  0.1350  0.3027
 2536TIP3    H231804   1.698   0.479  12.522 -1.2016 -0.5309  1.3823
 2537TIP3   OH231805   1.601   5.691  11.986  0.3425  0.2509  0.2650
 2537TIP3    H131806   1.691   5.656  11.985  1.0232  1.9002 -0.4926
 2537TIP3    H231807   1.613   5.785  11.999 -1.2939  0.5141 -0.0027
 2538TIP3   OH231808   6.383   5.243  13.422  0.6638 -0.0542  0.3943
 2538TIP3    H131809   6.314   5.294  13.380 -1.1930 -0.7381  2.4021
 2538TIP3    H231810   6.445   5.308  13.454  0.0823  0.7119  0.0083
 2539TIP3   OH231811   5.380   5.930  12.833  0.0735 -0.0149 -0.2683
 2539TIP3    H131812   5.287   5.938  12.856 -0.1468 -0.2648 -1.0431
 2539TIP3    H231813   5.395   5.836  12.823  0.3107  0.0469 -0.5198
 2540TIP3   OH231814   1.077   2.073  13.231 -0.4309  0.0738  0.2852
 2540TIP3    H131815   1.075   1.982  13.262  2.1479 -0.6680 -1.3524
 2540TIP3    H231816   1.095   2.125  13.309  0.2791 -1.0852  0.9271
 2541TIP3   OH231817   0.966   0.629  13.039  0.1760 -0.3346  0.2287
 2541TIP3    H131818   0.905   0.564  13.073 -0.7962  1.1141  1.3815
 2541TIP3    H231819   1.036   0.633  13.105  0.3567 -0.3924  0.0397
 2542TIP3   OH231820   5.431   6.876  11.539 -0.0471 -0.2469  0.4919
 2542TIP3    H131821   5.418   6.911  11.451  0.0243 -1.0838  0.1474
 2542TIP3    H231822   5.423   6.953  11.596  0.0195  0.3177 -0.2467
 2543TIP3   OH231823   6.843   5.433  12.776 -0.0701 -0.0365 -0.0211
 2543TIP3    H131824   6.825   5.369  12.708  1.5183 -2.2135  1.4840
 2543TIP3    H231825   6.836   5.384  12.858  1.3424  1.6638  1.1875
 2544TIP3   OH231826   7.413   7.183  11.337 -0.4127  0.1419 -0.1185
 2544TIP3    H131827   7.465   7.263  11.326  0.7697 -0.4497  0.9599
 2544TIP3    H231828   7.441   7.125  11.267 -3.2988  1.6059 -2.7252
 2545TIP3   OH231829   2.842   2.736  13.715  0.2522 -0.3663 -0.4427
 2545TIP3    H131830   2.847   2.720  13.810 -0.0835 -0.0060 -0.3605
 2545TIP3    H231831   2.878   2.824  13.704 -1.3580  0.3281 -0.4214
 2546TIP3   OH231832   2.222   6.517  12.140 -0.3715 -0.4734  0.2638
 2546TIP3    H131833   2.273   6.436  12.131 -1.0740 -0.8711 -0.2707
 2546TIP3    H231834   2.161   6.515  12.066 -2.6846 -1.1364  2.0590
 2547TIP3   OH231835   4.587   2.412  12.632  0.1021  0.1555 -0.0069
 2547TIP3    H131836   4.545   2.336  12.591  2.2431 -1.4209  0.5213
 2547TIP3    H231837   4.550   2.415  12.721 -0.2264 -0.0720 -0.1349
 2548TIP3   OH231838   5.871   2.465  11.980  0.0732  0.2502 -0.3418
 2548TIP3    H131839   5.947   2.467  12.037  1.9567 -1.9517 -2.5599
 2548TIP3    H231840   5.881   2.542  11.923  1.1281 -0.4437 -1.1287
 2549TIP3   OH231841   0.579   1.486  12.227  0.1526  0.0538  0.6862
 2549TIP3    H131842   0.496   1.524  12.197 -0.4027 -2.3699 -1.1724
 2549TIP3    H231843   0.622   1.455  12.147  0.8709 -2.4759  1.9300
 2550TIP3   OH231844   6.969   0.624  11.257  0.1738  0.0993 -0.1908
 2550TIP3    H131845   7.005   0.702  11.215 -0.7567  0.4860 -0.3128
 2550TIP3    H231846   6.962   0.559  11.187  1.8541 -0.4389  0.1107
 2551TIP3   OH231847   1.952   5.766  12.539 -0.0889  0.0112 -0.1553
 2551TIP3    H131848   2.007   5.709  12.486  0.9904  0.7940  0.1018
 2551TIP3    H231849   1.985   5.757  12.628 -0.7071  0.1135  0.0940
 2552TIP3   OH231850   2.281   4.550  11.835 -0.0684  0.0871  0.1214
 2552TIP3    H131851   2.243   4.539  11.749  0.7720  0.3108 -0.2909
 2552TIP3    H231852   2.321   4.465  11.855  2.1473  0.8055 -0.9362
 2553TIP3   OH231853   5.262   0.718  11.523  0.3143  0.0786  0.5589
 2553TIP3    H131854   5.303   0.784  11.579  0.3330 -0.6387  1.4064
 2553TIP3    H231855   5.291   0.634  11.560 -0.6752 -0.4206  0.2245
 2554TIP3   OH231856   6.954   4.118  12.563  0.5026  0.0760  0.2599
 2554TIP3    H131857   6.936   4.080  12.477  1.5882  0.5261 -0.1914
 2554TIP3    H231858   6.868   4.133  12.602 -0.0548 -3.2091  0.6585
 2555TIP3   OH231859   7.227   1.888  11.688 -0.0504 -0.4363 -0.1125
 2555TIP3    H131860   7.269   1.821  11.635  0.0878  1.0576 -1.9876
 2555TIP3    H231861   7.236   1.969  11.637 -3.2967  0.3683  0.3343
 2556TIP3   OH231862   0.734   6.968  13.710  0.2703 -0.8206 -0.2665
 2556TIP3    H131863   0.795   6.970  13.636  1.4950 -0.1711  0.7316
 2556TIP3    H231864   0.741   6.879  13.745  1.0969 -0.5864  0.1912
 2557TIP3   OH231865   1.841   6.850  11.413 -0.3317 -0.9041 -0.7492
 2557TIP3    H131866   1.937   6.845  11.412  0.0842  2.8191  1.1249
 2557TIP3    H231867   1.815   6.842  11.321  1.6220 -3.0080 -1.1985
 2558TIP3   OH231868   4.304   5.929  12.440  0.1110  0.2099 -0.2053
 2558TIP3    H131869   4.271   5.839  12.430 -3.2148  1.3456 -0.7876
 2558TIP3    H231870   4.331   5.935  12.532 -1.0058 -1.0078  0.2343
 2559TIP3   OH231871   2.558   4.853  12.054  0.5038  0.5057 -0.2362
 2559TIP3    H131872   2.605   4.771  12.073 -1.7076 -0.3552  2.0607
 2559TIP3    H231873   2.567   4.864  11.960  0.2297 -2.8811 -0.7910
 2560TIP3   OH231874   7.462   1.857  13.117 -0.0062  0.3960 -0.3845
 2560TIP3    H131875   7.501   1.892  13.198 -0.5509 -1.6844  0.8502
 2560TIP3    H231876   7.369   1.876  13.126  0.1938  2.1968 -1.6600
 2561TIP3   OH231877   7.353   3.515  11.032  0.2536 -0.0244 -0.1894
 2561TIP3    H131878   7.269   3.537  10.991 -0.6671  1.3634  2.2317
 2561TIP3    H231879   7.370   3.425  11.005 -1.4439  0.0258 -1.6288
 2562TIP3   OH231880   4.014   3.046  12.072  0.5940  0.6072 -0.1506
 2562TIP3    H131881   3.944   3.022  12.011 -0.3904 -1.4561  1.6389
 2562TIP3    H231882   3.972   3.103  12.136  0.6295 -0.2664  0.6733
 2563TIP3   OH231883   7.062   2.195  13.623 -0.2433  0.2874 -0.6878
 2563TIP3    H131884   7.143   2.182  13.672 -0.9452 -1.0227  0.1919
 2563TIP3    H231885   7.090   2.234  13.540  1.2966 -0.2453 -0.4537
 2564TIP3   OH231886   2.550   2.572  13.641 -0.5550 -0.0998  0.2348
 2564TIP3    H131887   2.538   2.665  13.623  0.5457  0.1593  0.7405
 2564TIP3    H231888   2.625   2.569  13.700 -0.3623 -1.3344 -0.0501
 2565TIP3   OH231889   6.467   3.912  12.289  0.3231  0.1884  0.1664
 2565TIP3    H131890   6.461   3.820  12.267  0.0461  0.6388 -1.8116
 2565TIP3    H231891   6.381   3.935  12.324 -0.1541  0.0404 -0.8697
 2566TIP3   OH231892   4.178   0.515  12.106  0.0615 -0.7712 -0.0067
 2566TIP3    H131893   4.103   0.456  12.110 -0.8126  0.3367  0.8122
 2566TIP3    H231894   4.234   0.489  12.179  1.2854 -2.5540 -1.4717
 2567TIP3   OH231895   4.395   6.509  12.200  0.5949 -0.2753  1.0737
 2567TIP3    H131896   4.318   6.476  12.246 -0.2511  0.4508  0.2078
 2567TIP3    H231897   4.390   6.604  12.210  1.3662 -0.2166  0.9790
 2568TIP3   OH231898   5.976   0.932  13.767 -0.1497  0.0420 -0.6815
 2568TIP3    H131899   5.909   1.000  13.767 -0.4932 -0.2876 -0.0500
 2568TIP3    H231900   5.933   0.856  13.729 -0.0902 -0.1290 -0.4084
 2569TIP3   OH231901   6.194   3.708  11.412 -0.5382 -0.0493  0.1285
 2569TIP3    H131902   6.258   3.769  11.377 -0.1892  0.3547  1.4042
 2569TIP3    H231903   6.224   3.622  11.382 -0.8613  0.3483 -1.4184
 2570TIP3   OH231904   2.987   2.620  12.431 -0.6108 -0.3423  0.0092
 2570TIP3    H131905   3.036   2.640  12.351  0.7131  2.5480  1.3977
 2570TIP3    H231906   3.045   2.564  12.482 -0.8801 -1.0198 -0.4042
 2571TIP3   OH231907   7.377   2.795  11.865  0.0890  0.0895 -0.7168
 2571TIP3    H131908   7.327   2.785  11.784 -0.3720  2.1919 -0.7469
 2571TIP3    H231909   7.468   2.781  11.839 -0.2202 -1.3431 -1.1402
 2572TIP3   OH231910   4.009   5.829  11.738  0.4239  0.2946 -0.2042
 2572TIP3    H131911   3.963   5.821  11.821  0.6039  0.3378 -0.1007
 2572TIP3    H231912   4.072   5.757  11.737  2.2086  1.7710  0.8354
 2573TIP3   OH231913   2.968   2.431  13.279 -0.3714  0.0508 -0.8485
 2573TIP3    H131914   2.894   2.490  13.292 -1.5422 -1.0511 -2.2821
 2573TIP3    H231915   3.044   2.490  13.277 -1.5720  1.6957 -3.1212
 2574TIP3   OH231916   7.131   5.119  13.555 -0.0932 -0.3974 -0.1027
 2574TIP3    H131917   7.205   5.138  13.496  0.0746  0.5644  0.3865
 2574TIP3    H231918   7.100   5.033  13.528 -0.0382  0.0349 -1.6114
 2575TIP3   OH231919   5.536   1.668  13.086  0.3369 -0.3204 -0.9051
 2575TIP3    H131920   5.517   1.757  13.115 -1.9592 -1.3293  1.0266
 2575TIP3    H231921   5.450   1.628  13.072  1.2560 -2.5606 -0.6335
 2576TIP3   OH231922   6.951   2.952  12.686  0.1823  0.0747  0.7014
 2576TIP3    H131923   6.961   2.929  12.778 -0.4945 -2.6831  0.1730
 2576TIP3    H231924   6.907   2.876  12.647  0.4936  1.1321 -1.8979
 2577TIP3   OH231925   1.677   5.114  12.479 -0.0919  0.0383 -0.1168
 2577TIP3    H131926   1.746   5.048  12.478  1.1735  1.2925  0.5555
 2577TIP3    H231927   1.686   5.159  12.394 -0.5470 -0.2619 -0.3222
 2578TIP3   OH231928   2.054   7.245  12.911 -0.2449 -0.1162  0.4498
 2578TIP3    H131929   2.065   7.340  12.912  2.0054 -0.3121 -0.1584
 2578TIP3    H231930   2.018   7.226  12.824 -0.9803  0.1875  0.6825
 2579TIP3   OH231931   3.658   3.601  13.167  0.3624  0.0564 -0.2012
 2579TIP3    H131932   3.575   3.599  13.117  0.1098  1.4000  0.1025
 2579TIP3    H231933   3.688   3.692  13.157  1.0233 -0.0273  0.9465
 2580TIP3   OH231934   3.632   1.897  13.123 -0.0731  0.1275 -0.2010
 2580TIP3    H131935   3.555   1.907  13.178 -2.5191 -1.9174 -2.9321
 2580TIP3    H231936   3.625   1.967  13.058  1.3872  0.9579  0.4723
 2581TIP3   OH231937   6.223   3.402  12.924 -0.5029  0.2657  0.1900
 2581TIP3    H131938   6.183   3.482  12.959  1.3333  1.2167  0.2318
 2581TIP3    H231939   6.219   3.413  12.829  0.9803  1.0821  0.2030
 2582TIP3   OH231940   5.666   5.944  12.889  0.6122 -0.6618 -0.3191
 2582TIP3    H131941   5.675   5.990  12.973  2.2897 -0.6991 -0.4433
 2582TIP3    H231942   5.573   5.948  12.869  0.4388  0.9329  0.6624
 2583TIP3   OH231943   4.496   6.872  12.434  0.5412 -0.1500 -0.2263
 2583TIP3    H131944   4.584   6.858  12.400  0.3510  0.3913 -0.9792
 2583TIP3    H231945   4.440   6.865  12.356  0.0160  0.4191  0.0986
 2584TIP3   OH231946   1.732   2.468  12.340 -0.2141  0.2017  0.5488
 2584TIP3    H131947   1.688   2.521  12.407  0.4331  0.7403  0.5539
 2584TIP3    H231948   1.731   2.523  12.262  2.1167  1.0369  1.0326
 2585TIP3   OH231949   0.937   2.763  12.520  0.2787 -0.1417  0.2302
 2585TIP3    H131950   1.027   2.781  12.548  0.8449 -0.0665 -1.5409
 2585TIP3    H231951   0.937   2.671  12.495  0.1880  0.1314 -0.8415
 2586TIP3   OH231952   3.496   5.770  12.904 -0.1443 -0.1844  0.2422
 2586TIP3    H131953   3.562   5.786  12.972 -0.7949  0.1117  0.8235
 2586TIP3    H231954   3.430   5.716  12.948  0.0703 -1.1242 -0.5517
 2587TIP3   OH231955   4.548   5.893  12.249 -0.0257 -0.5669  0.1744
 2587TIP3    H131956   4.615   5.961  12.247 -0.7210  0.1679  1.1002
 2587TIP3    H231957   4.477   5.930  12.302 -1.2538 -1.2471 -0.9276
 2588TIP3   OH231958   4.426   7.451  11.629  0.0733 -0.5751 -0.3314
 2588TIP3    H131959   4.382   7.532  11.653  0.0815 -0.6676 -0.0053
 2588TIP3    H231960   4.466   7.419  11.710 -1.6594 -1.9848  0.0333
 2589TIP3   OH231961   2.097   0.751  11.489 -0.1118 -0.2651 -0.2402
 2589TIP3    H131962   2.172   0.722  11.539 -0.6143 -0.8544  0.1884
 2589TIP3    H231963   2.134   0.795  11.413  0.8087 -3.9931 -2.2100
 2590TIP3   OH231964   2.228   3.386  11.030  0.4571 -0.1131  0.0704
 2590TIP3    H131965   2.303   3.384  11.090  0.5291  2.2236  0.1653
 2590TIP3    H231966   2.193   3.474  11.039 -2.3883 -1.1394  0.0520
 2591TIP3   OH231967   5.860   5.132  11.414  0.2102  0.5362 -0.1482
 2591TIP3    H131968   5.853   5.228  11.407  1.1320  0.6791  0.5486
 2591TIP3    H231969   5.851   5.115  11.508 -1.7776 -0.2524 -0.4505
 2592TIP3   OH231970   0.234   6.299  12.986 -0.2930 -0.1532 -0.3441
 2592TIP3    H131971   0.256   6.387  13.015  1.7388 -0.5577 -0.4964
 2592TIP3    H231972   0.219   6.308  12.892 -1.2378  0.2002 -0.1711
 2593TIP3   OH231973   5.026   2.528  12.737  0.5510  0.5234 -0.3501
 2593TIP3    H131974   5.108   2.479  12.741  0.3304 -0.4104 -3.7217
 2593TIP3    H231975   4.961   2.468  12.776  1.1474  0.4921  0.6207
 2594TIP3   OH231976   4.689   0.510  11.685 -0.4250 -0.3471 -0.3980
 2594TIP3    H131977   4.640   0.566  11.624  1.5006 -1.3482 -3.1009
 2594TIP3    H231978   4.740   0.570  11.738 -1.5166  0.5478 -0.3301
 2595TIP3   OH231979   1.131   7.261  12.865  0.4834  0.1813 -0.3145
 2595TIP3    H131980   1.166   7.175  12.889  1.2454  0.5652 -0.0326
 2595TIP3    H231981   1.081   7.290  12.941  0.7567  0.2680 -0.1687
 2596TIP3   OH231982   1.444   3.141  11.241 -0.3876  0.4940  0.2885
 2596TIP3    H131983   1.459   3.196  11.164  2.1339  1.6117  1.4519
 2596TIP3    H231984   1.485   3.057  11.220 -2.1084 -0.1842 -0.5586
 2597TIP3   OH231985   5.253   4.816  13.100  0.1410  0.2441 -0.3103
 2597TIP3    H131986   5.262   4.726  13.068  0.4820  0.2764 -0.3097
 2597TIP3    H231987   5.333   4.860  13.070 -0.4927  0.8139 -1.1879
 2598TIP3   OH231988   2.405   1.391  11.320  0.2265  0.5608  0.4640
 2598TIP3    H131989   2.429   1.327  11.253 -2.5554  1.8949 -2.0862
 2598TIP3    H231990   2.487   1.433  11.344  1.4091 -0.0480 -2.1352
 2599TIP3   OH231991   1.101   2.793  13.668 -0.1959  0.0282  0.2695
 2599TIP3    H131992   1.161   2.719  13.675  0.6617  0.4546 -1.9172
 2599TIP3    H231993   1.079   2.814  13.759  0.2306 -2.3071  0.9892
 2600TIP3   OH231994   6.197   1.451  11.834  0.0113 -0.1684 -0.2264
 2600TIP3    H131995   6.214   1.473  11.742 -1.3436  0.0502 -0.4488
 2600TIP3    H231996   6.227   1.527  11.883  1.2304 -0.4994 -0.4268
 2601TIP3   OH231997   1.318   4.242  13.328 -0.5034 -0.0929  0.2193
 2601TIP3    H131998   1.382   4.301  13.368 -0.4092 -1.5470  2.3595
 2601TIP3    H231999   1.263   4.299  13.274  1.0240  1.5646  0.3218
 2602TIP3   OH232000   1.372   0.659  11.178 -0.3568  0.6993  0.4320
 2602TIP3    H132001   1.415   0.588  11.131  0.8894  1.5227  0.2826
 2602TIP3    H232002   1.348   0.621  11.263  1.1005  0.3341  0.7042
 2603TIP3   OH232003   1.396   4.054  11.973  0.0344  0.2864 -0.2681
 2603TIP3    H132004   1.392   4.122  12.040 -0.2261 -1.0453  1.1309
 2603TIP3    H232005   1.344   4.088  11.901  0.7116  1.9714 -0.0278
 2604TIP3   OH232006   7.163   5.831  11.742 -0.1678  0.7839 -0.1863
 2604TIP3    H132007   7.186   5.920  11.770  1.3408  0.6138 -0.8244
 2604TIP3    H232008   7.089   5.844  11.682  1.3110  1.8489 -1.8756
 2605TIP3   OH232009   0.931   5.575  12.495  0.4386 -0.2233 -0.5128
 2605TIP3    H132010   0.959   5.666  12.507 -1.3441  0.3563 -0.4827
 2605TIP3    H232011   0.841   5.581  12.464 -0.9429 -2.0041  2.7346
 2606TIP3   OH232012   0.234   1.265  11.972 -0.3101  0.0746  0.3794
 2606TIP3    H132013   0.184   1.344  11.950  1.6245  1.0077 -0.9602
 2606TIP3    H232014   0.265   1.281  12.061 -2.0961 -0.4097  1.1378
 2607TIP3   OH232015   2.093   4.728  10.811  0.0181  0.4255  0.9256
 2607TIP3    H132016   2.074   4.820  10.793 -0.5701 -0.2425 -2.6536
 2607TIP3    H232017   2.019   4.680  10.775  1.2289 -1.5305  0.8503
 2608TIP3   OH232018   3.151   0.365  13.058  0.3280 -0.3253  0.2822
 2608TIP3    H132019   3.121   0.275  13.071 -0.7880  0.2549  2.1906
 2608TIP3    H232020   3.080   0.406  13.008  0.7217 -0.4293 -0.3718
 2609TIP3   OH232021   0.974   3.252  12.184 -0.2186  0.0726 -0.1851
 2609TIP3    H132022   1.038   3.282  12.249 -0.8922  0.4622  0.3064
 2609TIP3    H232023   0.962   3.159  12.205 -1.5703  0.5360  1.2486
 2610TIP3   OH232024   1.510   6.729  13.109  0.5758 -0.0868 -0.1166
 2610TIP3    H132025   1.427   6.776  13.101  0.7187  0.0113 -1.3314
 2610TIP3    H232026   1.494   6.661  13.173  0.2075  1.2736  1.3014
 2611TIP3   OH232027   0.957   5.862  13.223 -0.2596  0.2465 -0.0983
 2611TIP3    H132028   0.875   5.879  13.177  0.2331  0.0590 -1.0698
 2611TIP3    H232029   0.941   5.780  13.271 -0.5284  0.0364 -0.5460
 2612TIP3   OH232030   1.753   3.536  12.537  0.2577  0.0050 -0.1346
 2612TIP3    H132031   1.830   3.560  12.486 -0.4797 -1.6582 -2.1806
 2612TIP3    H232032   1.711   3.619  12.558  0.2061  0.8086 -2.9700
 2613TIP3   OH232033   3.674   4.861  11.982 -0.4057  0.2956  0.3958
 2613TIP3    H132034   3.704   4.781  12.025  0.2709  1.0545  1.3610
 2613TIP3    H232035   3.754   4.904  11.953 -0.7256  0.9206  0.4273
 2614TIP3   OH232036   2.214   5.543  11.267 -0.0167 -0.1812  0.2147
 2614TIP3    H132037   2.215   5.533  11.172 -1.2467 -0.9908  0.2633
 2614TIP3    H232038   2.306   5.540  11.293  0.2852 -0.6263 -0.8794
 2615TIP3   OH232039   2.030   1.627  12.673  0.5238 -0.2575  0.5002
 2615TIP3    H132040   2.011   1.604  12.582  0.8272  1.2544  0.0221
 2615TIP3    H232041   1.991   1.713  12.684  1.2654 -0.0428  1.5283
 2616TIP3   OH232042   3.244   0.287  12.085 -0.7082  0.5611 -0.8810
 2616TIP3    H132043   3.149   0.286  12.077 -0.7182 -0.3128 -0.7688
 2616TIP3    H232044   3.260   0.319  12.174 -0.9294 -0.0430 -0.6168
 2617TIP3   OH232045   1.137   4.694  11.161 -0.0029 -0.1752 -0.1870
 2617TIP3    H132046   1.057   4.646  11.139  0.4212 -0.2013 -1.7924
 2617TIP3    H232047   1.194   4.681  11.085  1.7705 -0.6511  1.1573
 2618TIP3   OH232048   1.975   5.241  12.573 -0.3051 -0.3683 -0.5100
 2618TIP3    H132049   1.907   5.297  12.536 -0.6300 -0.6256 -0.3071
 2618TIP3    H232050   2.008   5.190  12.499  0.4208  0.5153 -0.8234
 2619TIP3   OH232051   1.387   3.805  11.786  0.0205 -0.6625 -0.0389
 2619TIP3    H132052   1.386   3.883  11.731  0.4418 -0.1816  0.6202
 2619TIP3    H232053   1.324   3.746  11.745 -1.9123  0.8426  0.6271
 2620TIP3   OH232054   3.641   2.108  12.952 -0.0465  0.3150  0.1339
 2620TIP3    H132055   3.546   2.099  12.951  0.1105 -2.5855 -1.5698
 2620TIP3    H232056   3.662   2.137  12.863  0.7005 -0.3800  0.0740
 2621TIP3   OH232057   5.379   1.253  13.492 -0.5249  0.3071  0.0456
 2621TIP3    H132058   5.422   1.274  13.575 -1.2441  0.4518  0.3913
 2621TIP3    H232059   5.364   1.159  13.496  0.1710  0.1802 -0.2779
 2622TIP3   OH232060   4.856   4.737  10.628  0.1301 -0.4010  0.1184
 2622TIP3    H132061   4.765   4.728  10.599  0.1849  0.1758 -0.2770
 2622TIP3    H232062   4.853   4.808  10.692  0.2939 -0.3912  0.1138
 2623TIP3   OH232063   7.268   0.267  13.539  0.5488 -0.2645  0.1947
 2623TIP3    H132064   7.310   0.280  13.454  0.9680 -1.3462  0.2223
 2623TIP3    H232065   7.177   0.294  13.526  0.6099 -0.4224 -0.5926
 2624TIP3   OH232066   4.345   6.121  11.826  0.5975 -0.3693  0.3408
 2624TIP3    H132067   4.295   6.132  11.745  0.7915  1.5669  0.4295
 2624TIP3    H232068   4.302   6.178  11.889  1.2272 -0.8614  1.2424
 2625TIP3   OH232069   3.148   4.799  12.053  0.3081 -0.0776 -0.0414
 2625TIP3    H132070   3.146   4.704  12.049 -1.5358 -0.0417 -1.8598
 2625TIP3    H232071   3.121   4.821  12.142 -1.2024 -1.2719 -0.1694
 2626TIP3   OH232072   6.361   2.204  10.725 -0.2703  0.3584 -0.2458
 2626TIP3    H132073   6.281   2.250  10.699  0.1584  1.3542  0.1458
 2626TIP3    H232074   6.343   2.112  10.705 -1.1421  0.6851 -1.0811
 2627TIP3   OH232075   0.824   2.013  12.988 -0.7510 -0.5629 -0.2679
 2627TIP3    H132076   0.828   1.933  13.040  0.4247  0.0517  0.6174
 2627TIP3    H232077   0.738   2.010  12.947 -0.8561 -2.1246 -0.0099
 2628TIP3   OH232078   5.216   6.310  11.259 -0.1142 -0.0644  0.4059
 2628TIP3    H132079   5.184   6.346  11.341 -0.4016  0.4663  0.0712
 2628TIP3    H232080   5.172   6.362  11.191  0.8820  0.1884 -0.0723
 2629TIP3   OH232081   4.587   4.593  12.150  0.1099  0.2348 -0.6762
 2629TIP3    H132082   4.675   4.585  12.187  0.5137 -0.8308 -1.8189
 2629TIP3    H232083   4.539   4.518  12.184  0.6420 -1.0753 -2.6312
 2630TIP3   OH232084   7.457   4.075  13.305  0.2581 -0.0357 -0.0722
 2630TIP3    H132085   7.539   4.092  13.353  0.8673 -0.6281 -0.8725
 2630TIP3    H232086   7.407   4.020  13.364  0.9698 -0.6956 -0.0640
 2631TIP3   OH232087   6.368   5.854  13.623  0.2677  0.1224  0.1101
 2631TIP3    H132088   6.456   5.869  13.588 -0.3027  0.6335 -1.1922
 2631TIP3    H232089   6.351   5.761  13.605  0.0048  0.3633 -0.9939
 2632TIP3   OH232090   0.411   2.658  12.205  0.2841  0.7021 -0.1134
 2632TIP3    H132091   0.364   2.711  12.140 -0.2557 -0.0998 -0.3876
 2632TIP3    H232092   0.403   2.568  12.173  2.8730  0.6178 -0.7249
 2633TIP3   OH232093   6.180   0.756  13.476 -0.1410 -0.0752  0.4465
 2633TIP3    H132094   6.161   0.680  13.531 -1.3767 -0.6192 -0.6536
 2633TIP3    H232095   6.191   0.828  13.537  0.2074 -0.9743  1.4763
 2634TIP3   OH232096   0.680   2.586  13.470 -0.0776 -0.9193  0.2493
 2634TIP3    H132097   0.616   2.523  13.436 -0.5255  0.4564 -1.6158
 2634TIP3    H232098   0.764   2.556  13.436 -0.3113 -0.4410 -0.7757
 2635TIP3   OH232099   5.488   0.096  12.198 -0.2869  0.4609  0.1613
 2635TIP3    H132100   5.469   0.084  12.291  1.8320  3.4412  1.1436
 2635TIP3    H232101   5.425   0.162  12.170  0.6052  1.3519  0.1863
 2636TIP3   OH232102   1.859   3.310  11.775 -0.2103 -0.3597  0.3037
 2636TIP3    H132103   1.906   3.241  11.822  0.9769 -0.2301 -0.6467
 2636TIP3    H232104   1.928   3.370  11.746 -1.1197  0.6364  0.1482
 2637TIP3   OH232105   3.802   0.019  12.139 -1.0185  0.2763 -0.2383
 2637TIP3    H132106   3.715  -0.013  12.162 -0.2462 -1.5877  0.2549
 2637TIP3    H232107   3.861  -0.028  12.197  0.2185  2.8245  0.6939
 2638TIP3   OH232108   5.616   0.897  12.997 -0.3257 -0.4061 -0.2208
 2638TIP3    H132109   5.550   0.827  12.992 -0.7678 -0.0028 -0.1341
 2638TIP3    H232110   5.586   0.953  13.069  0.9509 -1.0580  0.8729
 2639TIP3   OH232111   3.597   4.965  11.717  0.1578 -0.2419 -0.2482
 2639TIP3    H132112   3.609   4.970  11.812 -1.8615  2.9192 -0.0077
 2639TIP3    H232113   3.650   5.037  11.682 -1.2254  0.3632 -1.1916
 2640TIP3   OH232114   2.676   5.413  12.838 -0.0955 -0.0562 -0.1043
 2640TIP3    H132115   2.748   5.388  12.897 -0.0955  1.3764  0.5406
 2640TIP3    H232116   2.691   5.506  12.820 -1.0361 -0.0770 -1.0495
 2641TIP3   OH232117   3.412   5.674  13.566  0.3737 -0.0464 -0.1404
 2641TIP3    H132118   3.505   5.654  13.572  0.5317  0.4137 -0.9124
 2641TIP3    H232119   3.402   5.754  13.618 -0.1460 -1.6714  2.4150
 2642TIP3   OH232120   1.549   6.256  13.192  0.6665 -0.3166  0.0737
 2642TIP3    H132121   1.508   6.216  13.269 -1.1369  0.4456 -0.4582
 2642TIP3    H232122   1.514   6.345  13.190  1.2430 -0.1070 -1.2391
 2643TIP3   OH232123   3.639   0.223  13.463 -0.0704 -0.0262  0.0340
 2643TIP3    H132124   3.618   0.307  13.423  0.3166  0.2202  0.3356
 2643TIP3    H232125   3.588   0.220  13.543  1.4724  0.8666  1.1114
 2644TIP3   OH232126   3.489   6.597  13.145 -0.0071  0.0351 -0.1853
 2644TIP3    H132127   3.401   6.630  13.126  0.1641  1.2107  0.9143
 2644TIP3    H232128   3.504   6.620  13.237  0.8238 -1.6218  0.1234
 2645TIP3   OH232129   4.034   2.923  12.817  0.0368  0.1353  0.2703
 2645TIP3    H132130   4.043   2.974  12.897 -0.7288  1.0929 -0.2216
 2645TIP3    H232131   4.075   2.977  12.750 -1.5096  0.5298 -0.4108
 2646TIP3   OH232132   4.288   3.405  12.238  0.0163  0.1095 -0.0197
 2646TIP3    H132133   4.375   3.444  12.250 -0.1149  1.0088 -1.6503
 2646TIP3    H232134   4.297   3.316  12.272  1.5015  0.2548  0.0612
 2647TIP3   OH232135   5.287   5.850  12.066  0.0292 -0.1710  0.6236
 2647TIP3    H132136   5.249   5.763  12.080 -1.0993  0.4156  1.4077
 2647TIP3    H232137   5.378   5.841  12.096  0.7203 -1.6943 -1.6161
 2648TIP3   OH232138   7.102   3.363  11.269 -0.9642 -0.1947  0.0579
 2648TIP3    H132139   7.108   3.450  11.229 -0.5786  0.2649  1.1042
 2648TIP3    H232140   7.042   3.374  11.343 -2.0332 -1.1426 -0.6129
 2649TIP3   OH232141   6.457   2.607  13.193  0.0278  0.6870  0.4978
 2649TIP3    H132142   6.413   2.651  13.266 -0.1602  2.0865 -0.4077
 2649TIP3    H232143   6.400   2.534  13.171 -1.0379  1.5246  0.3788
 2650TIP3   OH232144   5.507   0.101  12.471  0.3908 -0.9606 -0.0266
 2650TIP3    H132145   5.435   0.126  12.529  0.6042  1.1141 -0.6071
 2650TIP3    H232146   5.578   0.079  12.531 -0.1736 -1.3410  0.5242
 2651TIP3   OH232147   2.066   4.603  12.017  0.0393  0.4392  0.2864
 2651TIP3    H132148   2.007   4.566  11.952 -0.9704 -0.2353  1.5378
 2651TIP3    H232149   2.154   4.580  11.987 -0.4920 -1.6741  0.2247
 2652TIP3   OH232150   6.243   3.858  11.056 -0.1465  0.2101 -0.4748
 2652TIP3    H132151   6.336   3.872  11.073 -0.2361  0.3725 -0.1184
 2652TIP3    H232152   6.235   3.763  11.040  0.2156  0.3229 -1.3793
 2653TIP3   OH232153   2.162   2.252  11.305  0.3249  0.3193 -0.3508
 2653TIP3    H132154   2.076   2.218  11.329  0.6882 -0.8714 -0.6796
 2653TIP3    H232155   2.220   2.176  11.305  1.8358  1.3651  1.7506
 2654TIP3   OH232156   5.618   6.220  12.736  0.1850  0.2062 -0.0308
 2654TIP3    H132157   5.671   6.142  12.749  1.4529  1.2434  1.3142
 2654TIP3    H232158   5.551   6.215  12.804 -0.6042 -0.3704 -0.8189
 2655TIP3   OH232159   5.495   6.648  13.197  0.0370  0.1684 -0.0075
 2655TIP3    H132160   5.591   6.648  13.191 -0.0056 -0.3907 -0.8248
 2655TIP3    H232161   5.467   6.575  13.142 -0.7310 -1.7261  2.6774
 2656TIP3   OH232162   3.316   6.959  11.557 -0.4654  0.3771 -0.4253
 2656TIP3    H132163   3.377   6.896  11.519 -0.6925 -0.2114  0.1736
 2656TIP3    H232164   3.235   6.947  11.508 -0.6129 -0.0491 -0.0886
 2657TIP3   OH232165   7.303   2.187  13.152  0.2645  0.1647  0.0810
 2657TIP3    H132166   7.208   2.190  13.166  0.3441 -0.6603  0.8965
 2657TIP3    H232167   7.315   2.128  13.077  0.1018  0.9073 -0.5455
 2658TIP3   OH232168   4.946   1.240  12.926  0.3456 -0.5978  0.5781
 2658TIP3    H132169   4.886   1.183  12.878  0.9738 -2.5304  1.9307
 2658TIP3    H232170   4.970   1.308  12.864 -1.4490 -1.0750 -0.7210
 2659TIP3   OH232171   6.800   5.709  11.056  0.5406 -0.3531  0.1009
 2659TIP3    H132172   6.726   5.766  11.034 -0.4838 -1.1211  1.4069
 2659TIP3    H232173   6.803   5.710  11.152  0.9694 -1.8810  0.1215
 2660TIP3   OH232174   0.550   6.140  11.565 -0.0777 -0.0739 -0.3655
 2660TIP3    H132175   0.602   6.103  11.636  0.4791  0.7495 -0.3282
 2660TIP3    H232176   0.459   6.120  11.588  0.1082  0.0503  0.4958
 2661TIP3   OH232177   3.554   5.933  13.750  0.4681  0.8113 -0.7638
 2661TIP3    H132178   3.482   5.929  13.813  1.2548 -3.6229  0.1842
 2661TIP3    H232179   3.617   5.994  13.790 -0.4553  0.6234  1.0854
 2662TIP3   OH232180   5.810   6.130  12.047 -0.0455  0.1743 -0.3622
 2662TIP3    H132181   5.717   6.133  12.070  0.4701  1.8299  1.7420
 2662TIP3    H232182   5.841   6.048  12.085 -0.5562 -0.2783 -0.8799
 2663TIP3   OH232183   2.920   2.100  11.784  0.2184 -0.1975 -0.0727
 2663TIP3    H132184   2.949   2.182  11.745  0.5667  0.1687  0.9291
 2663TIP3    H232185   2.842   2.076  11.734  0.5636  0.3210 -0.8918
 2664TIP3   OH232186   0.899   5.111  12.644 -0.4746 -0.0252 -0.0041
 2664TIP3    H132187   0.866   5.185  12.695 -0.7060  1.4606 -2.1710
 2664TIP3    H232188   0.976   5.145  12.598 -2.1313 -0.1613 -3.1804
 2665TIP3   OH232189   0.844   1.695  12.864  0.1721  0.3419 -0.0629
 2665TIP3    H132190   0.853   1.725  12.955 -0.2578 -0.1846  0.1659
 2665TIP3    H232191   0.813   1.604  12.873  1.0105 -0.0195 -0.7260
 2666TIP3   OH232192   4.615   5.623  12.165 -0.1012 -0.8664  0.3195
 2666TIP3    H132193   4.682   5.658  12.108 -1.3414 -0.8586 -1.1971
 2666TIP3    H232194   4.589   5.696  12.220  0.2144 -0.5306  0.0240
 2667TIP3   OH232195   6.097   5.604  13.031 -0.3337 -0.3088  0.0521
 2667TIP3    H132196   6.159   5.621  12.961 -1.3243  0.7079 -0.6261
 2667TIP3    H232197   6.089   5.688  13.077 -0.5153 -0.6702  0.6919
 2668TIP3   OH232198   7.629   0.303  12.155 -0.0830 -0.6449  0.6731
 2668TIP3    H132199   7.677   0.309  12.237  0.1328  0.2206  0.4932
 2668TIP3    H232200   7.540   0.331  12.177  0.2831  0.8393  0.3700
 2669TIP3   OH232201   6.271   0.050  13.704  0.0737 -0.6228 -0.4845
 2669TIP3    H132202   6.233  -0.014  13.643 -0.4021 -0.1374 -0.7101
 2669TIP3    H232203   6.203   0.064  13.770 -0.5015  0.8389 -1.3236
 2670TIP3   OH232204   5.541   3.222  12.286 -0.0252 -0.5014 -0.0922
 2670TIP3    H132205   5.576   3.222  12.375  1.2063  2.2144 -0.4696
 2670TIP3    H232206   5.464   3.279  12.290  0.8151  0.7446 -0.9801
 2671TIP3   OH232207   5.729   6.653  10.911 -0.2786 -0.3999 -0.5788
 2671TIP3    H132208   5.741   6.738  10.870 -0.5701 -0.4134 -0.6975
 2671TIP3    H232209   5.757   6.589  10.845 -1.5101 -0.4547 -1.0705
 2672TIP3   OH232210   7.095   3.446  13.229  0.0171 -0.5999  0.7830
 2672TIP3    H132211   7.156   3.461  13.157  0.8834 -1.5061  1.3128
 2672TIP3    H232212   7.012   3.483  13.197  0.8582  0.8127  0.1271
 2673TIP3   OH232213   0.917   1.541  11.851 -0.0993  0.3430  0.8751
 2673TIP3    H132214   0.974   1.525  11.776 -0.3861  0.6850  0.5785
 2673TIP3    H232215   0.923   1.462  11.904 -0.0981 -0.0048  0.3584
 2674TIP3   OH232216   6.966   6.762  11.944 -0.2247  0.4290 -0.8623
 2674TIP3    H132217   6.910   6.697  11.902  1.1123 -0.7230 -0.9042
 2674TIP3    H232218   6.977   6.731  12.034  0.9168  0.2670 -1.0514
 2675TIP3   OH232219   5.977   0.826  11.834  0.1649  0.3127  0.2061
 2675TIP3    H132220   5.972   0.857  11.744  1.5824 -0.5885 -0.2170
 2675TIP3    H232221   6.042   0.755  11.832  0.1441  0.1936  1.9047
 2676TIP3   OH232222   3.501   0.542  12.090  0.1616 -0.1677  0.0170
 2676TIP3    H132223   3.493   0.471  12.026 -2.5571 -0.0057  0.0832
 2676TIP3    H232224   3.577   0.592  12.060 -1.9776  0.9719 -4.3066
 2677TIP3   OH232225   7.068   5.075  11.954 -0.8108  0.1324  0.7892
 2677TIP3    H132226   7.110   5.061  12.039  0.3168 -0.4113  0.1724
 2677TIP3    H232227   7.097   5.162  11.927 -1.1867  0.3140  0.9603
 2678TIP3   OH232228   2.320   2.324  12.970  0.2826  0.1594  0.2991
 2678TIP3    H132229   2.340   2.396  13.030  1.5292  0.9974 -1.0704
 2678TIP3    H232230   2.405   2.286  12.949 -0.2945 -1.2450  0.3746
 2679TIP3   OH232231   1.025   6.845  11.708  0.2017 -0.8430  0.5608
 2679TIP3    H132232   1.064   6.812  11.628  1.6166 -1.1009  1.3365
 2679TIP3    H232233   0.994   6.933  11.685 -2.4929 -2.0873 -1.1699
 2680TIP3   OH232234   5.723   1.441  12.411  0.0177 -1.0026  0.2833
 2680TIP3    H132235   5.802   1.435  12.357 -0.7582 -1.3286 -0.8787
 2680TIP3    H232236   5.755   1.446  12.501  1.4847  1.8901 -0.2726
 2681TIP3   OH232237   6.834   7.064  11.369  0.6687 -0.5452  0.1653
 2681TIP3    H132238   6.757   7.010  11.356  1.6582 -1.9644  0.0043
 2681TIP3    H232239   6.869   7.037  11.454  0.9307  0.1549  0.2901
 2682TIP3   OH232240   5.143   1.841  11.847 -0.0782 -0.4517 -0.1687
 2682TIP3    H132241   5.149   1.935  11.869 -1.5552 -0.4125  0.1415
 2682TIP3    H232242   5.220   1.825  11.793 -0.9075  1.4560 -2.0459
 2683TIP3   OH232243   1.454   7.052  12.529  0.4816  0.7655 -0.3430
 2683TIP3    H132244   1.510   7.127  12.506 -2.5135  2.7417 -1.8334
 2683TIP3    H232245   1.368   7.075  12.494 -1.2039 -2.3091  1.3880
 2684TIP3   OH232246   2.870   4.111  12.775  0.1189 -0.2235  0.5645
 2684TIP3    H132247   2.825   4.028  12.761  0.6750 -0.6564  1.2866
 2684TIP3    H232248   2.960   4.094  12.745  0.2149  0.1498  0.6344
 2685TIP3   OH232249   0.328   3.111  12.362 -0.0632 -0.2014  0.1572
 2685TIP3    H132250   0.395   3.131  12.296  0.2144 -0.1879  0.4417
 2685TIP3    H232251   0.250   3.156  12.331 -0.3638 -1.3923 -0.9643
 2686TIP3   OH232252   2.303   2.562  13.179  0.0294  0.0441  0.1976
 2686TIP3    H132253   2.357   2.556  13.258  1.7881 -0.2363 -0.9679
 2686TIP3    H232254   2.345   2.631  13.127  0.1635 -1.1756 -1.3785
 2687TIP3   OH232255   3.445   5.442  13.278  0.2337  0.3737  0.5630
 2687TIP3    H132256   3.448   5.529  13.238  0.1771 -0.7479 -2.1551
 2687TIP3    H232257   3.514   5.393  13.232 -1.9529 -1.9212 -0.5130
 2688TIP3   OH232258   0.178   6.944  12.543 -0.9506  0.1953 -1.0246
 2688TIP3    H132259   0.255   6.896  12.514  0.5587  2.4162 -0.9201
 2688TIP3    H232260   0.147   6.990  12.465 -0.8642  0.9974 -0.5996
 2689TIP3   OH232261   7.150   2.530  12.654  0.8595  0.0884  0.8598
 2689TIP3    H132262   7.175   2.611  12.699 -1.0387  0.8325  0.6554
 2689TIP3    H232263   7.231   2.479  12.651  2.0898  1.9020  1.1208
 2690TIP3   OH232264   7.545   3.372  11.887 -0.7846  0.4513 -0.1025
 2690TIP3    H132265   7.568   3.441  11.948 -1.8438  2.2269 -1.6260
 2690TIP3    H232266   7.481   3.411  11.828  0.6456 -0.9203 -2.7708
 2691TIP3   OH232267   5.156   0.204  11.036  0.2608 -0.4326 -0.3714
 2691TIP3    H132268   5.220   0.245  11.095 -1.5842 -0.8923  2.1110
 2691TIP3    H232269   5.170   0.247  10.952  1.4423  2.0123  0.9783
 2692TIP3   OH232270   5.452   1.345  12.754  0.2295 -0.4184  0.2708
 2692TIP3    H132271   5.374   1.344  12.809 -1.0362 -1.0872 -1.4333
 2692TIP3    H232272   5.481   1.254  12.752  0.5121 -0.3283  0.1561
 2693TIP3   OH232273   1.030   0.338  11.866 -0.3899  0.4945  0.6459
 2693TIP3    H132274   0.999   0.384  11.944 -3.6307 -1.2028  0.5255
 2693TIP3    H232275   1.003   0.394  11.793 -1.3021  0.0301  0.6181
 2694TIP3   OH232276   6.062   1.888  13.332 -0.0377 -0.5155 -0.2465
 2694TIP3    H132277   6.106   1.804  13.324 -0.9662 -1.2246  1.4468
 2694TIP3    H232278   6.074   1.913  13.424  0.6583  1.4808 -0.8257
 2695TIP3   OH232279   3.911   5.817  13.363  0.0184  0.1207  0.1662
 2695TIP3    H132280   3.944   5.803  13.452  0.4346 -1.5038 -0.1982
 2695TIP3    H232281   3.855   5.894  13.369 -0.0164 -0.0085  1.8552
 2696TIP3   OH232282   3.385   5.037  12.286  0.2407  0.3700 -0.5061
 2696TIP3    H132283   3.478   5.057  12.276 -0.2063  2.5924 -0.6757
 2696TIP3    H232284   3.345   5.065  12.204 -0.4755 -1.6146 -0.9019
 2697TIP3   OH232285   5.392   4.502  11.585  0.3480 -0.6996 -0.4388
 2697TIP3    H132286   5.393   4.431  11.520 -0.8012  0.1815 -1.4711
 2697TIP3    H232287   5.421   4.579  11.537 -0.4497 -0.0401  0.1063
 2698TIP3   OH232288   6.710   6.591  13.629 -0.5198 -0.2740 -0.3927
 2698TIP3    H132289   6.771   6.527  13.592 -1.5237  0.0178 -2.7482
 2698TIP3    H232290   6.760   6.634  13.698  0.5437 -2.8351  0.5793
 2699TIP3   OH232291   4.759   0.450  12.959 -0.3250  0.5403 -0.1658
 2699TIP3    H132292   4.763   0.502  12.878  0.1554  0.0513 -0.4593
 2699TIP3    H232293   4.801   0.367  12.936 -0.9697  0.0676  0.3362
 2700TIP3   OH232294   6.797   6.117  11.240  0.1170  0.2222 -0.9387
 2700TIP3    H132295   6.850   6.040  11.258  2.5858  1.8395 -0.7899
 2700TIP3    H232296   6.810   6.135  11.147  0.5368  1.1130 -0.7228
 2701TIP3   OH232297   3.836   4.692  12.607  0.0705 -0.7296  0.4334
 2701TIP3    H132298   3.875   4.763  12.656 -1.2222  0.1094  0.2976
 2701TIP3    H232299   3.867   4.612  12.650  0.1889 -0.0443  1.6472
 2702TIP3   OH232300   3.348   6.020  13.358 -0.1305 -0.0213  0.5272
 2702TIP3    H132301   3.279   5.954  13.348  2.1644 -2.4847 -0.1179
 2702TIP3    H232302   3.332   6.057  13.445 -1.9938 -0.8067  0.5848
 2703TIP3   OH232303   6.616   4.390  11.879 -0.6019 -0.1217  0.3714
 2703TIP3    H132304   6.595   4.309  11.832 -0.0009 -0.9045  1.4107
 2703TIP3    H232305   6.672   4.439  11.819 -1.4458 -0.1937 -0.5013
 2704TIP3   OH232306   7.136   2.188  12.098  0.2655 -0.0680  0.4514
 2704TIP3    H132307   7.059   2.227  12.138 -0.2556  2.5628 -2.7115
 2704TIP3    H232308   7.197   2.174  12.171 -1.9818  0.6771  2.6140
 2705TIP3   OH232309   1.953   1.881  12.561  0.2211  0.3724  0.1695
 2705TIP3    H132310   1.903   1.867  12.481  0.9702 -1.4875 -0.0257
 2705TIP3    H232311   1.982   1.972  12.555 -1.6060  0.9427 -0.5605
 2706TIP3   OH232312   3.972   6.674  12.867 -0.0999  0.4805 -0.0724
 2706TIP3    H132313   3.934   6.690  12.954  1.5834  0.8116  0.6387
 2706TIP3    H232314   3.970   6.759  12.824 -2.2107  0.0601 -0.9551
 2707TIP3   OH232315   5.780   5.326  12.137  0.6331  0.1334 -0.8135
 2707TIP3    H132316   5.815   5.317  12.226 -0.1736  1.1050 -0.3834
 2707TIP3    H232317   5.792   5.239  12.098  0.8391 -0.3554  0.2944
 2708TIP3   OH232318   6.240   4.996  13.158  0.0941 -0.0749  0.2385
 2708TIP3    H132319   6.308   4.971  13.095 -0.0034  0.7650 -0.2175
 2708TIP3    H232320   6.258   5.089  13.176 -0.0154 -0.2464  1.2849
 2709TIP3   OH232321   1.290   1.471  12.624  0.4010 -0.2070  0.2212
 2709TIP3    H132322   1.248   1.420  12.693 -0.3267  0.6575  0.4477
 2709TIP3    H232323   1.325   1.406  12.563 -0.3195 -0.9685  0.5995
 2710TIP3   OH232324   5.375   3.727  13.191  0.1480 -0.1180  0.1218
 2710TIP3    H132325   5.312   3.733  13.120  0.4261 -0.0287 -0.1192
 2710TIP3    H232326   5.326   3.689  13.264 -1.0618  2.8927  1.0089
 2711TIP3   OH232327   2.486   4.089  12.282  0.0050  0.3469 -0.0562
 2711TIP3    H132328   2.525   4.126  12.361 -0.7851  3.9431 -1.1878
 2711TIP3    H232329   2.452   4.004  12.310 -0.1702  1.4284  3.4756
 2712TIP3   OH232330   1.972   5.446  12.133 -0.4504 -0.2319  0.1730
 2712TIP3    H132331   2.049   5.412  12.089 -1.0526  0.4794 -1.5364
 2712TIP3    H232332   1.920   5.486  12.063 -2.0765 -0.1479  1.3563
 2713TIP3   OH232333   3.839   5.085  11.436 -0.6532  0.2059 -0.3935
 2713TIP3    H132334   3.765   5.043  11.391  0.1495  0.0478 -1.6246
 2713TIP3    H232335   3.889   5.125  11.366  1.5773 -1.4774  0.1379
 2714TIP3   OH232336   1.096   6.562  11.292 -0.0750 -0.5500 -0.2564
 2714TIP3    H132337   1.140   6.610  11.222 -1.1010 -0.5770 -0.9417
 2714TIP3    H232338   1.020   6.522  11.249 -1.0312 -0.1101  0.9846
 2715TIP3   OH232339   7.340   5.974  12.496  0.3878  0.0273  0.6271
 2715TIP3    H132340   7.371   5.923  12.421  0.8973  1.5504 -0.2374
 2715TIP3    H232341   7.292   5.910  12.550 -0.3359 -1.0401 -1.1795
 2716TIP3   OH232342   6.173   0.677  11.716 -0.2269 -0.6043 -0.2932
 2716TIP3    H132343   6.194   0.652  11.626  0.4527 -0.5821 -0.1401
 2716TIP3    H232344   6.257   0.695  11.757 -0.4051 -2.0264  0.7723
 2717TIP3   OH232345   6.845   5.704  13.463  0.3564 -0.0565 -0.3110
 2717TIP3    H132346   6.811   5.785  13.502 -2.0072 -0.9373 -0.3629
 2717TIP3    H232347   6.884   5.656  13.536  0.2463  0.3927  0.0458
 2718TIP3   OH232348   2.428   4.291  13.359  0.0476  0.6845 -0.1688
 2718TIP3    H132349   2.482   4.216  13.336  0.6517  0.7568  0.9749
 2718TIP3    H232350   2.374   4.306  13.281 -1.4523 -2.0769  0.2190
 2719TIP3   OH232351   4.362   2.166  12.112  0.1770 -0.6444  0.1165
 2719TIP3    H132352   4.380   2.094  12.051  0.6250 -0.6729  0.2781
 2719TIP3    H232353   4.280   2.141  12.155 -1.7167  0.7145 -2.4723
 2720TIP3   OH232354   4.505   0.845  11.586 -0.3646 -0.2580 -0.2842
 2720TIP3    H132355   4.598   0.864  11.596 -0.5999  0.1232  1.4938
 2720TIP3    H232356   4.482   0.882  11.500  0.9773  0.1566 -0.4856
 2721TIP3   OH232357   5.946   2.535  12.490  0.3851 -0.1726  0.2823
 2721TIP3    H132358   6.031   2.494  12.503  1.3400  2.0140  1.2967
 2721TIP3    H232359   5.893   2.506  12.565  0.2950 -1.3103 -0.2046
 2722TIP3   OH232360   4.066   7.009  13.582  0.2561  0.4160 -0.9403
 2722TIP3    H132361   3.995   7.059  13.624  1.5616  0.3672  1.4818
 2722TIP3    H232362   4.105   7.071  13.520 -0.8056  0.9993 -1.0462
 2723TIP3   OH232363   2.962   5.466  10.993  0.1697  0.0926  0.3652
 2723TIP3    H132364   3.054   5.448  11.014  0.3302  1.1310  0.6093
 2723TIP3    H232365   2.930   5.518  11.066 -0.7587 -0.6446  0.4981
 2724TIP3   OH232366   1.959   6.430  12.490  0.0303  0.4939  0.4891
 2724TIP3    H132367   2.055   6.440  12.494 -0.1240  2.8213 -0.1750
 2724TIP3    H232368   1.938   6.378  12.567  1.8808 -0.6776  0.2824
 2725TIP3   OH232369   4.096   6.738  12.547 -0.2827  0.2202 -0.1199
 2725TIP3    H132370   4.165   6.676  12.525  0.1419  0.3511  0.8021
 2725TIP3    H232371   4.128   6.783  12.625 -0.3184  1.9932 -1.0741
 2726TIP3   OH232372   2.462   3.073  11.332  0.1700 -0.0650 -0.7738
 2726TIP3    H132373   2.510   3.150  11.302 -0.2966  0.2220 -0.8028
 2726TIP3    H232374   2.482   3.005  11.268 -0.3834  0.3836 -1.4380
 2727TIP3   OH232375   4.510   4.582  12.874  0.3799 -0.3635 -0.1182
 2727TIP3    H132376   4.427   4.538  12.893  0.2279 -0.2803 -0.5778
 2727TIP3    H232377   4.521   4.573  12.779  0.1366  0.9720 -0.2773
 2728TIP3   OH232378   4.168   4.896  13.149  0.5178  0.2887  0.4249
 2728TIP3    H132379   4.147   4.803  13.145  1.6947  0.0250 -1.9412
 2728TIP3    H232380   4.086   4.939  13.170 -0.2425 -1.2288  0.6790
 2729TIP3   OH232381   4.888   0.747  13.014 -0.7481  0.2735  0.3004
 2729TIP3    H132382   4.937   0.778  12.938 -1.9349  0.9879 -0.1897
 2729TIP3    H232383   4.811   0.803  13.018 -0.9430 -0.0570  1.7651
 2730TIP3   OH232384   0.201   6.379  12.347 -0.1681 -0.0284  0.5605
 2730TIP3    H132385   0.271   6.337  12.397  0.3928  1.9827  1.5829
 2730TIP3    H232386   0.219   6.473  12.355 -0.8315  0.4345 -2.3410
 2731TIP3   OH232387   4.716   4.882  12.079  0.9578 -0.0425 -0.4671
 2731TIP3    H132388   4.772   4.920  12.146  0.7516 -0.6769  0.0783
 2731TIP3    H232389   4.683   4.801  12.118 -2.0049  1.2837  0.0708
 2732TIP3   OH232390   1.087   6.452  11.779 -0.0224  0.5177 -0.4028
 2732TIP3    H132391   1.017   6.505  11.818 -1.0156 -2.3239  2.0648
 2732TIP3    H232392   1.160   6.460  11.839 -0.5557 -1.5962  0.6284
 2733TIP3   OH232393   5.275   3.376  12.297  0.1953  0.4883  0.2031
 2733TIP3    H132394   5.281   3.352  12.390  1.3245  0.9037  0.2498
 2733TIP3    H232395   5.182   3.375  12.278  0.0381 -2.3111  0.6377
 2734TIP3   OH232396   3.321   5.185  13.477  0.3597  0.2901 -0.5602
 2734TIP3    H132397   3.414   5.166  13.482  0.3542  0.3744 -0.1741
 2734TIP3    H232398   3.300   5.227  13.560  0.3407  1.8887 -1.3462
 2735TIP3   OH232399   7.679   6.892  13.401  0.1277  0.3282 -0.3067
 2735TIP3    H132400   7.640   6.890  13.313  0.0868 -0.3533 -0.2819
 2735TIP3    H232401   7.773   6.899  13.385  0.6398 -4.2772 -0.6299
 2736TIP3   OH232402   2.995   0.751  12.540 -0.5063  0.3083  0.0330
 2736TIP3    H132403   2.918   0.776  12.490 -0.9570 -2.3396 -0.7331
 2736TIP3    H232404   2.971   0.668  12.581  2.1625 -1.0522 -0.9145
 2737TIP3   OH232405   4.858   4.538  10.848  0.4962  0.3369  0.1724
 2737TIP3    H132406   4.871   4.572  10.759  0.2345 -0.1735 -0.0604
 2737TIP3    H232407   4.766   4.513  10.851  0.4732  0.4659  0.6307
 2738TIP3   OH232408   5.671   4.997  13.450  0.3689  0.0138 -0.0626
 2738TIP3    H132409   5.726   5.074  13.431  0.0345  0.4227  0.5789
 2738TIP3    H232410   5.677   4.943  13.371 -0.9385  1.6210 -1.3452
 2739TIP3   OH232411   5.013   2.948  11.287  0.0497  0.2144 -1.0109
 2739TIP3    H132412   5.008   3.043  11.298  0.7386  0.1157  0.3249
 2739TIP3    H232413   4.983   2.933  11.197 -1.1475  1.5882 -0.8794
 2740TIP3   OH232414   6.826   3.126  13.322  0.5270  0.2823  0.0829
 2740TIP3    H132415   6.793   3.051  13.371  1.7888 -0.4068 -0.0857
 2740TIP3    H232416   6.803   3.202  13.376 -0.5799 -0.2175  0.3519
 2741TIP3   OH232417   6.396   1.117  12.979 -0.1263 -0.1059 -0.2431
 2741TIP3    H132418   6.444   1.085  13.055  0.3617  0.0555 -0.4758
 2741TIP3    H232419   6.352   1.040  12.943 -1.1579 -0.0133  0.7558
 2742TIP3   OH232420   3.699   2.995  13.479 -0.2790 -0.6068 -0.1077
 2742TIP3    H132421   3.657   2.980  13.394 -0.6318 -0.7390  0.0905
 2742TIP3    H232422   3.770   3.056  13.459  0.3805 -1.5301 -0.7004
 2743TIP3   OH232423   5.330   4.663  13.383 -0.2819  0.2716  0.4716
 2743TIP3    H132424   5.237   4.686  13.377 -0.4287 -0.5665 -0.7257
 2743TIP3    H232425   5.376   4.744  13.359 -0.7233  0.4175  0.0901
 2744TIP3   OH232426   7.168   5.638  11.983  0.4156 -0.3141  0.2000
 2744TIP3    H132427   7.168   5.693  11.905  1.1459 -1.7760 -0.8982
 2744TIP3    H232428   7.159   5.549  11.949  0.9721 -1.0064  1.7627
 2745TIP3   OH232429   0.949   5.420  11.821 -0.1587 -0.0592  0.2841
 2745TIP3    H132430   0.936   5.514  11.810 -1.1141  0.0387  1.9644
 2745TIP3    H232431   1.042   5.406  11.804 -0.2242  0.9846 -1.1103
 2746TIP3   OH232432   5.916   4.426  12.166  0.2605 -0.2118 -0.2340
 2746TIP3    H132433   5.905   4.513  12.129  0.5539 -0.2149 -0.3320
 2746TIP3    H232434   5.851   4.421  12.236  1.4369  0.7692  0.9900
 2747TIP3   OH232435   5.813   1.112  13.144  0.1850  0.1301  0.3418
 2747TIP3    H132436   5.875   1.080  13.079  0.6088  0.2979  0.6619
 2747TIP3    H232437   5.784   1.034  13.191  0.1415  0.0514  0.1862
 2748TIP3   OH232438   6.143   6.193  13.126  0.1788 -0.0981  0.1395
 2748TIP3    H132439   6.050   6.216  13.120  0.4204  1.1988  0.8737
 2748TIP3    H232440   6.160   6.139  13.049 -1.2580 -0.6362  0.1774
 2749TIP3   OH232441   2.580   2.478  11.909  0.4459  0.0384  0.5196
 2749TIP3    H132442   2.567   2.551  11.968 -1.7591 -1.3280  1.8370
 2749TIP3    H232443   2.493   2.454  11.878  1.2632 -0.9976 -1.2067
 2750TIP3   OH232444   0.964   3.197  13.127  0.1418 -0.1136 -0.5373
 2750TIP3    H132445   0.976   3.102  13.128 -0.8124 -0.2425 -0.2696
 2750TIP3    H232446   0.935   3.219  13.216  2.0826  0.6876 -0.0588
 2751TIP3   OH232447   7.601   3.100  13.552 -0.0805  0.1498  0.3996
 2751TIP3    H132448   7.519   3.113  13.503 -0.2711  0.3926  0.7792
 2751TIP3    H232449   7.639   3.021  13.513 -0.8060 -0.3325  0.6284
 2752TIP3   OH232450   3.775   5.056  12.472  0.1659 -0.1086  0.0849
 2752TIP3    H132451   3.831   5.016  12.405  0.2028  2.8375 -1.8304
 2752TIP3    H232452   3.710   5.106  12.423 -0.1637  1.7450  2.2394
 2753TIP3   OH232453   4.135   5.352  10.894  0.0106 -0.1957  0.4436
 2753TIP3    H132454   4.102   5.374  10.807  0.5798 -0.1612  0.2288
 2753TIP3    H232455   4.060   5.363  10.952 -0.6827 -1.3608 -0.2065
 2754TIP3   OH232456   5.120   6.118  11.048 -0.0321  0.7086 -0.9222
 2754TIP3    H132457   5.118   6.088  11.139  0.5885  0.8243 -0.8662
 2754TIP3    H232458   5.108   6.213  11.053 -1.2019  0.5710 -1.0451
 2755TIP3   OH232459   0.044   0.708  13.919  0.0397 -0.0086  0.1053
 2755TIP3    H132460   0.025   0.710  14.013 -1.3591  1.2688 -0.1748
 2755TIP3    H232461   0.100   0.631  13.908 -2.3850 -2.1193  1.5156
 2756TIP3   OH232462   0.369   6.613  12.326  0.0163  0.2098  0.0144
 2756TIP3    H132463   0.463   6.631  12.326 -0.2351  1.7647 -0.8606
 2756TIP3    H232464   0.334   6.668  12.396 -0.3445  0.4770 -0.3630
 2757TIP3   OH232465   7.348   5.749  11.349 -0.2104 -0.2286  0.0219
 2757TIP3    H132466   7.361   5.838  11.381  1.6624 -0.3131 -0.3836
 2757TIP3    H232467   7.427   5.730  11.299 -2.2181 -0.6755 -3.3566
 2758TIP3   OH232468   2.207   4.550  10.989 -0.3367 -0.8500 -0.1533
 2758TIP3    H132469   2.167   4.600  10.918  0.8656 -0.4501 -0.5639
 2758TIP3    H232470   2.249   4.616  11.044 -0.9451 -1.1906  0.7425
 2759TIP3   OH232471   4.664   1.203  12.340  0.1219 -0.7466 -0.4364
 2759TIP3    H132472   4.606   1.168  12.408 -0.0549 -1.3014 -0.8658
 2759TIP3    H232473   4.722   1.130  12.318  0.7058 -0.3234 -0.3134
 2760TIP3   OH232474   6.951   2.906  12.947  0.4027  0.4678  0.5009
 2760TIP3    H132475   6.923   2.991  12.979  0.5916 -0.0456  2.1475
 2760TIP3    H232476   7.027   2.884  13.001  0.7336 -0.4704 -0.3159
 2761TIP3   OH232477   4.536   3.169  13.281 -0.2809 -0.0169  0.0218
 2761TIP3    H132478   4.442   3.186  13.294 -0.5285 -0.9918 -0.3988
 2761TIP3    H232479   4.560   3.226  13.208 -0.6855 -0.1569 -0.2296
 2762TIP3   OH232480   6.916   3.777  12.798  0.5145  0.0336 -0.6211
 2762TIP3    H132481   6.835   3.757  12.751 -0.4996  2.3717  0.0168
 2762TIP3    H232482   6.983   3.727  12.751 -1.1806 -1.5142 -1.5241
 2763TIP3   OH232483   1.718   7.527  12.250  0.9943 -0.5383 -0.1927
 2763TIP3    H132484   1.685   7.450  12.204  1.3327  0.1309 -1.6093
 2763TIP3    H232485   1.747   7.493  12.335  0.0360 -1.7509 -0.3212
 2764TIP3   OH232486   2.132   0.257  13.573 -0.5776 -1.1471  0.2904
 2764TIP3    H132487   2.223   0.285  13.563 -0.9014 -0.1784 -0.1068
 2764TIP3    H232488   2.137   0.162  13.585  0.5803 -0.9468  1.7524
 2765TIP3   OH232489   4.605   1.624  12.794 -0.1710  0.3641 -1.0096
 2765TIP3    H132490   4.552   1.554  12.756  1.2377  0.6540 -3.8369
 2765TIP3    H232491   4.668   1.580  12.850 -0.4653 -0.4556 -1.3167
 2766TIP3   OH232492   3.966   3.656  11.969 -0.1699 -0.1017 -0.2543
 2766TIP3    H132493   3.924   3.722  11.915 -0.1210  0.5601  0.4975
 2766TIP3    H232494   4.052   3.692  11.990  0.8095 -1.4172 -1.7282
 2767TIP3   OH232495   3.444   2.460  12.333  0.7337  0.2614  0.2873
 2767TIP3    H132496   3.467   2.551  12.313  0.2180  0.4450  0.5111
 2767TIP3    H232497   3.384   2.467  12.407  0.8496 -0.2751  0.4325
 2768TIP3   OH232498   6.456   0.982  13.522  0.0051 -0.3116  0.0257
 2768TIP3    H132499   6.426   0.960  13.433  0.5207 -0.5041 -0.1079
 2768TIP3    H232500   6.383   0.959  13.579  0.1276 -1.3539 -0.2279
 2769TIP3   OH232501   6.056   3.388  12.140  0.4636 -0.2827  0.2770
 2769TIP3    H132502   6.004   3.330  12.085 -2.2717  1.7911  0.4778
 2769TIP3    H232503   6.019   3.475  12.125  3.1799  1.1907  1.3684
 2770TIP3   OH232504   6.921   1.160  12.012 -0.2098  0.1589  0.0860
 2770TIP3    H132505   6.894   1.250  12.028 -0.6669  0.0862 -0.2513
 2770TIP3    H232506   6.851   1.107  12.049 -0.3434 -0.0425 -0.4434
 2771TIP3   OH232507   6.701   3.999  11.943 -0.2918 -0.6579  0.0808
 2771TIP3    H132508   6.664   3.911  11.944  1.5124 -1.4574  0.9144
 2771TIP3    H232509   6.687   4.033  12.031 -0.1440 -0.4890  0.0408
 2772TIP3   OH232510   0.021   6.529  10.856 -0.2105 -0.6231  0.1700
 2772TIP3    H132511  -0.064   6.493  10.879 -0.2459 -0.5330  0.1822
 2772TIP3    H232512   0.013   6.552  10.763 -0.8617  1.2125  0.6324
 2773TIP3   OH232513   7.665   3.932  11.781 -0.2667  0.5015 -0.1451
 2773TIP3    H132514   7.635   3.953  11.693 -0.7643  1.4829  0.2315
 2773TIP3    H232515   7.723   4.005  11.804 -0.6019  0.5603  0.5464
 2774TIP3   OH232516   3.524   5.717  13.262  0.6724  0.7349 -0.1264
 2774TIP3    H132517   3.498   5.684  13.348  2.6800 -3.9386 -0.9787
 2774TIP3    H232518   3.601   5.772  13.279  0.7600  0.2566  1.1207
 2775TIP3   OH232519   1.936   3.626  12.357 -0.0612 -0.5776  0.0156
 2775TIP3    H132520   1.926   3.565  12.284  1.0742  0.4134 -1.0006
 2775TIP3    H232521   2.028   3.621  12.381  0.0614  0.7689 -0.1161
 2776TIP3   OH232522   3.951   4.104  12.949  0.0344 -0.2941 -0.0102
 2776TIP3    H132523   3.877   4.067  12.901 -1.7737  0.1179  2.2792
 2776TIP3    H232524   3.953   4.055  13.032  2.0158  0.0579  0.1968
 2777TIP3   OH232525   7.646   5.891  10.529 -0.6545  0.4000 -0.1928
 2777TIP3    H132526   7.591   5.968  10.512 -0.1155  0.4522 -1.8019
 2777TIP3    H232527   7.588   5.832  10.577 -2.0299  0.6060 -1.5196
 2778TIP3   OH232528   1.046   1.152  13.698 -0.2259  0.3328  0.3405
 2778TIP3    H132529   1.043   1.247  13.710 -1.5514  0.2894  0.4056
 2778TIP3    H232530   0.959   1.129  13.666  0.1541 -0.8430  0.1163
 2779TIP3   OH232531   0.462   7.554  11.431  0.0298  0.1503  0.1516
 2779TIP3    H132532   0.543   7.558  11.482  0.1114 -1.3359  0.1904
 2779TIP3    H232533   0.393   7.558  11.497  0.0813  0.7050  0.1750
 2780TIP3   OH232534   4.896   1.129  13.179  0.3241  0.0475 -0.2646
 2780TIP3    H132535   4.967   1.093  13.232 -0.0604 -1.1839 -0.5562
 2780TIP3    H232536   4.937   1.153  13.096  0.5096 -0.0920 -0.2134
 2781TIP3   OH232537   2.039   5.656  13.758  0.5313 -0.0601  0.0474
 2781TIP3    H132538   2.070   5.569  13.785  0.3078 -0.1094  0.1547
 2781TIP3    H232539   2.040   5.654  13.663 -2.3905 -1.2958 -0.0677
 2782TIP3   OH232540   6.610   0.170  13.108 -0.0356  0.0130 -0.0688
 2782TIP3    H132541   6.561   0.251  13.097  0.8405  0.4991 -0.4279
 2782TIP3    H232542   6.701   0.197  13.120  0.5248 -0.9472 -1.7048
 2783TIP3   OH232543   3.382   3.921  12.691  0.1535 -0.2792  0.2163
 2783TIP3    H132544   3.368   3.887  12.780 -0.0961  0.6891  0.5569
 2783TIP3    H232545   3.474   3.948  12.690  0.4224 -1.1487 -0.1345
 2784TIP3   OH232546   0.280   1.729  13.136  0.3391 -0.2377 -0.2516
 2784TIP3    H132547   0.189   1.736  13.165  0.4417 -2.9383  1.0419
 2784TIP3    H232548   0.284   1.644  13.092  2.1334  0.0687 -0.7357
 2785TIP3   OH232549   2.762   0.434  11.633 -0.0838 -0.1517  0.6704
 2785TIP3    H132550   2.782   0.341  11.621 -0.9140 -0.4066  1.2626
 2785TIP3    H232551   2.760   0.469  11.543 -0.7633 -0.9132  0.3758
 2786TIP3   OH232552   1.704   5.995  13.303  0.4329 -0.0081  0.7171
 2786TIP3    H132553   1.751   6.044  13.236  0.0202  0.6269  0.8874
 2786TIP3    H232554   1.659   5.926  13.255 -0.3225  0.7894  0.2528
 2787TIP3   OH232555   1.106   3.815  11.569 -0.5641 -0.1374 -0.5623
 2787TIP3    H132556   1.094   3.804  11.663  0.2477  1.7467 -0.2015
 2787TIP3    H232557   1.024   3.856  11.539 -0.7163 -0.4994 -0.6574
 2788TIP3   OH232558   4.658   2.992  11.103 -0.1631  0.2469  0.3233
 2788TIP3    H132559   4.628   2.976  11.192  1.2700  2.0462  1.2111
 2788TIP3    H232560   4.753   2.975  11.106 -0.0809  0.3966 -0.8255
 2789TIP3   OH232561   0.133   7.013  12.275  0.3038  0.7648  0.0724
 2789TIP3    H132562   0.044   7.016  12.241 -0.0702  0.7812  1.0193
 2789TIP3    H232563   0.158   7.105  12.285  0.6982  0.7655 -0.8624
 2790TIP3   OH232564   7.378   2.730  12.381  0.3807  0.7434 -0.6130
 2790TIP3    H132565   7.423   2.706  12.300  0.4139 -0.8199 -0.1445
 2790TIP3    H232566   7.440   2.708  12.450 -0.2860  0.5382 -0.0756
 2791TIP3   OH232567   7.495   6.609  13.707  0.6848  0.4523 -0.2215
 2791TIP3    H132568   7.525   6.522  13.734 -0.4616 -0.3455 -1.4043
 2791TIP3    H232569   7.505   6.610  13.612 -1.4234  0.7553 -0.4839
 2792TIP3   OH232570   4.850   4.922  12.338  0.1221 -0.2215  0.0617
 2792TIP3    H132571   4.855   4.836  12.381  0.0327 -0.9347 -1.2988
 2792TIP3    H232572   4.914   4.975  12.384 -0.3022 -0.7973  1.3839
 2793TIP3   OH232573   6.770   7.313  13.480  0.0045  0.3906 -0.0553
 2793TIP3    H132574   6.784   7.362  13.562  1.0416 -1.0439  0.6543
 2793TIP3    H232575   6.687   7.268  13.493  0.0801  0.3060  0.1414
 2794TIP3   OH232576   6.098   4.304  11.735  0.1291 -0.1646 -0.4319
 2794TIP3    H132577   6.077   4.240  11.804 -1.1020  0.3108 -0.3472
 2794TIP3    H232578   6.066   4.387  11.770  1.3017  0.4299 -0.7440
 2795TIP3   OH232579   4.248   3.755  12.402 -0.2003  0.6254 -0.4358
 2795TIP3    H132580   4.305   3.832  12.396  0.1956  0.4081  0.4100
 2795TIP3    H232581   4.308   3.681  12.412 -0.4769 -0.0640 -3.1083
 2796TIP3   OH232582   0.312   0.709  13.133  0.5820 -0.2441  0.6395
 2796TIP3    H132583   0.259   0.781  13.099 -0.5400 -0.8251  1.1055
 2796TIP3    H232584   0.254   0.633  13.130  0.8652 -0.5813  2.6229
 2797TIP3   OH232585   1.582   6.954  13.565  0.3492 -0.2834 -0.6170
 2797TIP3    H132586   1.618   6.977  13.479 -1.1178  1.2463 -0.8837
 2797TIP3    H232587   1.627   7.012  13.626 -0.0298  0.0470 -0.6460
 2798TIP3   OH232588   4.869   3.116  11.568  0.2112  0.1931 -0.0451
 2798TIP3    H132589   4.822   3.052  11.515  1.4044 -0.5814 -0.2118
 2798TIP3    H232590   4.932   3.156  11.508  2.0364 -1.1632  0.8625
 2799TIP3   OH232591   6.516   4.004  12.682  0.3513  0.4933  0.3255
 2799TIP3    H132592   6.493   4.055  12.605  0.3973 -0.8487 -0.6113
 2799TIP3    H232593   6.443   4.019  12.743  0.5162  1.8922  0.2077
 2800TIP3   OH232594   6.119   5.716  11.430 -0.0057  0.5383 -0.3271
 2800TIP3    H132595   6.162   5.787  11.382 -0.8162 -0.8069 -3.2627
 2800TIP3    H232596   6.192   5.663  11.463  0.5871  2.0932  1.0005
 2801TIP3   OH232597   6.427   0.124  12.467  0.3681  0.6002  0.5204
 2801TIP3    H132598   6.456   0.093  12.381  0.1454 -0.0423  0.6691
 2801TIP3    H232599   6.505   0.116  12.522 -0.1641 -1.6257  1.0496
 2802TIP3   OH232600   0.045   1.083  11.916 -0.3847 -0.1380  0.0780
 2802TIP3    H132601   0.104   1.155  11.941 -0.4835  0.4080 -1.2102
 2802TIP3    H232602  -0.025   1.086  11.981  0.4928 -0.1800  1.0551
 2803TIP3   OH232603   7.255   1.824  13.744 -0.5133  0.1566 -0.0574
 2803TIP3    H132604   7.177   1.836  13.798  0.0163  1.2111  0.5316
 2803TIP3    H232605   7.289   1.739  13.769 -1.4245 -0.2744 -0.2592
 2804TIP3   OH232606   1.554   0.739  11.475 -0.5292 -0.5969 -0.5872
 2804TIP3    H132607   1.650   0.733  11.470 -0.5048 -0.8566  0.1606
 2804TIP3    H232608   1.534   0.727  11.567 -1.2511  0.0363 -0.6520
 2805TIP3   OH232609   5.152   4.697  10.713  0.3319 -1.0511 -0.2632
 2805TIP3    H132610   5.063   4.724  10.689 -0.3708  0.2970  3.2404
 2805TIP3    H232611   5.209   4.751  10.658 -1.0466  0.0806 -0.6545
 2806TIP3   OH232612   5.600   4.438  12.221  0.0161  0.0661  0.4392
 2806TIP3    H132613   5.646   4.482  12.292  2.3157 -0.4758 -0.6458
 2806TIP3    H232614   5.509   4.468  12.230  0.1489 -0.1161  3.6786
 2807TIP3   OH232615   5.770   1.413  11.037 -0.0724  0.1290  0.2564
 2807TIP3    H132616   5.854   1.449  11.008  0.5296 -1.4933 -0.0918
 2807TIP3    H232617   5.783   1.391  11.129  0.4065 -1.5072 -0.1701
 2808TIP3   OH232618   1.592   2.640  11.664  0.2318 -0.1245  0.2405
 2808TIP3    H132619   1.625   2.693  11.592  1.9878 -1.6447 -0.1546
 2808TIP3    H232620   1.497   2.653  11.662 -0.0028 -1.2399 -3.3199
 2809TIP3   OH232621   2.886   0.788  11.647  0.2080 -0.3520  0.1455
 2809TIP3    H132622   2.942   0.864  11.664  0.3380 -0.8757  2.2532
 2809TIP3    H232623   2.946   0.718  11.625  0.1964 -0.2638 -0.1727
 2810TIP3   OH232624   4.236   6.183  13.750  0.0200  0.1187 -0.1251
 2810TIP3    H132625   4.235   6.242  13.675  0.1866  1.2961  0.7707
 2810TIP3    H232626   4.144   6.175  13.776 -0.4195 -2.4460 -2.0245
 2811TIP3   OH232627   3.734   0.757  13.200 -0.0382 -0.2051  0.0621
 2811TIP3    H132628   3.671   0.793  13.263  0.2210 -0.7608  0.6580
 2811TIP3    H232629   3.679   0.711  13.136 -0.2228 -1.5240  1.1212
 2812TIP3   OH232630   6.815   6.527  12.381  0.0581  0.0853 -0.0358
 2812TIP3    H132631   6.726   6.531  12.414  0.2514 -2.8543  1.2002
 2812TIP3    H232632   6.864   6.483  12.451  1.9008 -0.6452 -1.6934
 2813TIP3   OH232633   1.168   4.272  12.381 -1.1734  0.5503 -0.0640
 2813TIP3    H132634   1.094   4.325  12.410 -0.5189  1.3610  0.1474
 2813TIP3    H232635   1.204   4.235  12.462 -0.9100  0.7458 -0.0893
 2814TIP3   OH232636   3.643   6.185  12.462  0.3224 -0.0441 -0.0462
 2814TIP3    H132637   3.738   6.194  12.456  0.2666 -0.0664 -1.3241
 2814TIP3    H232638   3.611   6.272  12.483  0.7428 -0.4611  2.6068
 2815TIP3   OH232639   5.101   1.927  12.179  0.4419 -0.1804 -0.0649
 2815TIP3    H132640   5.016   1.903  12.142 -0.1906  0.5313  0.8728
 2815TIP3    H232641   5.114   2.018  12.151 -0.1568  0.4521  1.5912
 2816TIP3   OH232642   3.814   6.495  11.352  0.6749  0.3841 -0.0325
 2816TIP3    H132643   3.817   6.584  11.318  2.0784  0.5177  0.4099
 2816TIP3    H232644   3.837   6.440  11.277 -0.5580  0.3333 -0.4054
 2817TIP3   OH232645   0.528   1.262  11.504  0.1345 -0.0154 -0.1256
 2817TIP3    H132646   0.560   1.238  11.417 -1.6714 -1.0395 -0.5484
 2817TIP3    H232647   0.561   1.192  11.561 -0.3613 -0.4506 -0.3608
 2818TIP3   OH232648   3.725   4.381  13.261 -0.3791 -0.5465  0.8377
 2818TIP3    H132649   3.685   4.420  13.339 -1.7442 -0.3437  0.0751
 2818TIP3    H232650   3.651   4.339  13.216  0.0322  0.9277 -1.3014
 2819TIP3   OH232651   4.513   3.397  12.647  0.4760  0.6509  0.5704
 2819TIP3    H132652   4.512   3.491  12.630  1.0828  0.6930  0.7234
 2819TIP3    H232653   4.439   3.362  12.598  1.6988  0.8627 -1.5751
 2820TIP3   OH232654   4.862   4.158  12.179  0.6449 -0.1617  0.2370
 2820TIP3    H132655   4.956   4.140  12.183  0.6228 -0.4895 -0.4985
 2820TIP3    H232656   4.847   4.187  12.089 -0.0643 -0.7424  0.1531
 2821TIP3   OH232657   4.980   6.472  12.441 -0.1052 -0.0834 -0.4421
 2821TIP3    H132658   5.065   6.511  12.420 -0.2670  1.2951  1.2728
 2821TIP3    H232659   4.994   6.378  12.432  1.9007  0.0530  0.7117
 2822TIP3   OH232660   7.476   4.318  13.130 -0.2927 -0.0299  0.3290
 2822TIP3    H132661   7.389   4.351  13.154 -0.5496  0.0206 -0.6316
 2822TIP3    H232662   7.463   4.224  13.119 -0.2487 -0.0072  0.0863
 2823TIP3   OH232663   5.846   2.892  11.380 -0.4901 -0.4226 -0.5274
 2823TIP3    H132664   5.934   2.855  11.366  1.1763  1.3522  3.4754
 2823TIP3    H232665   5.858   2.955  11.451 -4.6190  1.8717 -1.5387
 2824TIP3   OH232666   3.108   7.092  12.450 -0.0172 -0.7074  0.1788
 2824TIP3    H132667   3.149   7.018  12.406  0.1577 -0.6872  0.3065
 2824TIP3    H232668   3.078   7.056  12.533 -1.0695 -0.9407 -0.2929
 2825TIP3   OH232669   0.437   4.109  12.207  0.3279  0.6374  1.0049
 2825TIP3    H132670   0.494   4.039  12.176 -1.9821 -0.7529 -0.3698
 2825TIP3    H232671   0.427   4.093  12.301 -0.5395 -1.2383  0.6329
 2826TIP3   OH232672   4.403   5.766  11.090  0.4461 -0.2213  0.3699
 2826TIP3    H132673   4.498   5.759  11.093  0.3645 -2.6124 -0.1063
 2826TIP3    H232674   4.374   5.679  11.061 -1.7552  1.2093 -2.1993
 2827TIP3   OH232675   2.288   7.663  12.711  0.0542 -0.1037 -0.7027
 2827TIP3    H132676   2.216   7.672  12.649 -1.7350 -1.4174  1.0321
 2827TIP3    H232677   2.280   7.574  12.744  1.8359  0.0797  0.3406
 2828TIP3   OH232678   2.290   3.594  11.591  0.4440 -0.4334 -0.4807
 2828TIP3    H132679   2.354   3.652  11.632 -0.3947 -0.4520  0.9395
 2828TIP3    H232680   2.250   3.647  11.522 -0.2039  0.6745  0.6953
 2829TIP3   OH232681   5.433   7.577  11.686  0.3443 -0.0118 -0.3975
 2829TIP3    H132682   5.435   7.483  11.707  0.5522  0.1489  0.3582
 2829TIP3    H232683   5.448   7.581  11.592  0.2840 -0.7401 -0.4499
 2830TIP3   OH232684   1.228   2.345  13.220 -0.1364  0.0110 -0.0717
 2830TIP3    H132685   1.261   2.346  13.129 -1.4118 -0.3954 -0.5527
 2830TIP3    H232686   1.242   2.255  13.249 -0.9098 -0.1961 -0.3211
 2831TIP3   OH232687   6.854   6.115  12.411  0.2709  0.1346  0.6114
 2831TIP3    H132688   6.923   6.063  12.370 -0.3624  0.3707 -0.8298
 2831TIP3    H232689   6.897   6.198  12.433  0.3970  0.4052 -0.5691
 2832TIP3   OH232690   4.413   4.016  12.389  0.2184  0.2852  0.0351
 2832TIP3    H132691   4.403   4.101  12.346  0.6594  1.3516  1.9658
 2832TIP3    H232692   4.502   3.987  12.365  1.0305  1.5728  1.3878
 2833TIP3   OH232693   4.519   2.148  11.508  0.5137  0.3235 -0.0890
 2833TIP3    H132694   4.433   2.169  11.545  1.0347 -1.3296  2.2997
 2833TIP3    H232695   4.514   2.177  11.417 -2.1592  1.3105  0.2893
 2834TIP3   OH232696   4.685   3.372  12.081  0.1717  0.7105 -0.3418
 2834TIP3    H132697   4.659   3.327  12.000 -0.5634  1.6361 -0.6336
 2834TIP3    H232698   4.760   3.426  12.056  1.4102 -0.7039  0.1303
 2835TIP3   OH232699   5.660   3.353  13.064 -0.5645 -0.2179  0.0391
 2835TIP3    H132700   5.754   3.367  13.073 -0.4522 -0.6461 -0.4096
 2835TIP3    H232701   5.631   3.326  13.151 -0.2929  0.0002  0.1992
 2836TIP3   OH232702   6.552   7.654  11.292  0.7758 -0.1227  0.7091
 2836TIP3    H132703   6.587   7.607  11.216  0.6318 -0.2409  0.7163
 2836TIP3    H232704   6.457   7.643  11.286  0.7602 -0.0912  0.8803
 2837TIP3   OH232705   2.662   4.320  12.687  0.9321  0.1630  0.2558
 2837TIP3    H132706   2.623   4.337  12.601 -0.1536 -1.2350  0.4248
 2837TIP3    H232707   2.732   4.257  12.668 -0.1200 -1.1410  0.4817
 2838TIP3   OH232708   3.161   2.425  12.524  0.5706 -0.3019 -0.2198
 2838TIP3    H132709   3.216   2.498  12.553  2.2283 -0.8043 -1.8781
 2838TIP3    H232710   3.161   2.364  12.598  0.3246  0.7380  0.6597
 2839TIP3   OH232711   2.737   2.187  12.790  0.0477  0.3698 -0.1065
 2839TIP3    H132712   2.679   2.172  12.715 -0.2908  0.9556  0.0342
 2839TIP3    H232713   2.689   2.151  12.865 -0.0506  0.6862 -0.0184
 2840TIP3   OH232714   6.080   6.240  12.144  0.3496 -0.2182  0.2647
 2840TIP3    H132715   6.069   6.320  12.092 -0.5975  0.5677  1.6005
 2840TIP3    H232716   5.998   6.192  12.132  0.7355 -0.7803 -0.1679
 2841TIP3   OH232717   1.654   2.713  12.800 -0.0217 -0.2850 -0.4556
 2841TIP3    H132718   1.631   2.805  12.791 -0.8317 -0.3952  0.3264
 2841TIP3    H232719   1.737   2.713  12.846  0.7487  0.0795 -1.8009
 2842TIP3   OH232720   0.614   1.931  13.304  0.5683 -0.0539 -0.2748
 2842TIP3    H132721   0.678   1.882  13.355 -0.7600 -1.9832 -0.3526
 2842TIP3    H232722   0.585   1.870  13.236 -2.6541  0.0596  0.8336
 2843TIP3   OH232723   6.724   5.061  11.572  0.4726 -0.1859  0.7012
 2843TIP3    H132724   6.652   5.073  11.509  0.4986  0.0809  0.7205
 2843TIP3    H232725   6.691   5.099  11.653  1.0018  0.8356  0.4558
 2844TIP3   OH232726   1.614   4.917  13.290 -0.4726  0.0196  0.0459
 2844TIP3    H132727   1.589   4.835  13.331 -0.8786  0.6593  1.1270
 2844TIP3    H232728   1.679   4.893  13.225  0.9741 -0.9473  1.7646
 2845TIP3   OH232729   0.464   1.520  11.101  0.3343  0.2152 -0.5033
 2845TIP3    H132730   0.398   1.462  11.137 -0.4172  1.2731 -0.1219
 2845TIP3    H232731   0.427   1.608  11.109  2.7727  1.1622  2.1273
 2846TIP3   OH232732   0.767   5.105  12.915  0.3151  0.7166 -0.0593
 2846TIP3    H132733   0.683   5.081  12.952 -0.2897  0.9220 -1.2477
 2846TIP3    H232734   0.791   5.030  12.860  2.0397 -0.3618  2.0185
 2847TIP3   OH232735   7.188   1.955  13.487 -0.1926  0.0493  0.0395
 2847TIP3    H132736   7.170   1.927  13.576  0.0162  0.4020  0.1964
 2847TIP3    H232737   7.281   1.977  13.487  0.6146 -2.8534 -1.0407
 2848TIP3   OH232738   4.475   5.856  11.908  0.4194  0.2628 -0.4018
 2848TIP3    H132739   4.403   5.911  11.880  0.5357  0.3932 -0.4479
 2848TIP3    H232740   4.547   5.918  11.926  0.3758  0.1776  0.0897
 2849TIP3   OH232741   0.670   1.402  11.984 -0.6395  0.1768  0.2731
 2849TIP3    H132742   0.763   1.393  11.961 -0.3911  0.2908  1.1868
 2849TIP3    H232743   0.626   1.419  11.901  0.5837  3.5957  0.1636
 2850TIP3   OH232744   2.045   5.502  13.091  0.2104  0.2475 -0.0743
 2850TIP3    H132745   2.140   5.491  13.099  0.1463  0.2552  0.7437
 2850TIP3    H232746   2.022   5.567  13.158  0.0368  2.5888 -2.2573
 2851TIP3   OH232747   2.632   2.983  12.846  0.0635  0.0485  0.2038
 2851TIP3    H132748   2.662   2.903  12.889  1.1537 -0.4995 -1.4723
 2851TIP3    H232749   2.574   2.952  12.776 -0.2145  0.7995  0.0931
 2852TIP3   OH232750   6.160   4.983  11.617  0.2902 -0.3892 -0.7018
 2852TIP3    H132751   6.067   5.004  11.630  0.2480 -1.0923  0.2414
 2852TIP3    H232752   6.160   4.905  11.563  0.3675  0.1772 -1.5344
 2853TIP3   OH232753   5.042   1.417  11.766 -0.5541 -0.5651 -0.5176
 2853TIP3    H132754   5.011   1.407  11.676  1.0406 -1.4252 -0.9982
 2853TIP3    H232755   5.135   1.439  11.758 -0.3342 -0.8375  0.9260
 2854TIP3   OH232756   2.252   4.805  11.924  0.8708 -0.2124  0.2029
 2854TIP3    H132757   2.263   4.717  11.887  2.6890  0.3185 -0.6618
 2854TIP3    H232758   2.158   4.820  11.923  0.6738 -1.1765 -2.0123
 2855TIP3   OH232759   4.832   1.415  12.423 -0.5690 -0.6140  0.2442
 2855TIP3    H132760   4.808   1.327  12.391 -1.0064 -1.4836  2.7320
 2855TIP3    H232761   4.891   1.449  12.356  1.1258 -3.5740  0.0382
 2856TIP3   OH232762   4.974   0.889  11.928  0.1925  0.4355 -0.0330
 2856TIP3    H132763   5.066   0.871  11.911  0.6742  2.3557  0.3053
 2856TIP3    H232764   4.974   0.968  11.982 -1.6751  0.8386 -0.5312
 2857TIP3   OH232765   0.608   0.907  13.772  0.0152  0.3961  0.8862
 2857TIP3    H132766   0.549   0.847  13.817 -0.4454  0.8798  0.9407
 2857TIP3    H232767   0.552   0.952  13.708  0.5978 -0.0808  0.0194
 2858TIP3   OH232768   1.097   3.884  12.038  0.4707  0.2791  0.1838
 2858TIP3    H132769   1.148   3.804  12.027 -0.6495 -0.4008 -0.2690
 2858TIP3    H232770   1.096   3.925  11.952 -0.3868 -0.1168 -0.0013
 2859TIP3   OH232771   4.850   3.530  13.492  0.5269 -0.2045 -0.3626
 2859TIP3    H132772   4.803   3.610  13.515 -0.0210 -1.1644  2.2680
 2859TIP3    H232773   4.788   3.460  13.512  1.6350 -1.3640 -0.8530
 2860TIP3   OH232774   6.965   7.671  12.164  0.1573  0.9595 -0.4595
 2860TIP3    H132775   7.050   7.710  12.184  0.3326  0.3540 -0.0215
 2860TIP3    H232776   6.903   7.725  12.213  0.4509  0.3792  0.5843
 2861TIP3   OH232777   0.966   7.334  13.056  0.2027  0.5973 -0.3286
 2861TIP3    H132778   0.885   7.343  13.006  0.1776  1.7079 -0.1179
 2861TIP3    H232779   0.964   7.408  13.117  1.3238  0.5693 -0.2446
 2862TIP3   OH232780   7.402   4.557  11.669 -0.9183 -0.0146  0.1129
 2862TIP3    H132781   7.320   4.606  11.671  0.0158  1.8474 -2.7704
 2862TIP3    H232782   7.462   4.608  11.722 -0.8827  0.0576  0.0019
 2863TIP3   OH232783   5.710   1.335  13.005  0.2243  0.3399  0.2249
 2863TIP3    H132784   5.761   1.258  13.031  1.4129  0.2968 -2.0295
 2863TIP3    H232785   5.632   1.331  13.060  0.5252 -2.1354  0.5955
 2864TIP3   OH232786   1.856   5.411  12.395 -0.4587  0.6719 -0.0561
 2864TIP3    H132787   1.870   5.402  12.300  1.4060  1.8650  0.0554
 2864TIP3    H232788   1.928   5.467  12.424 -2.0746  1.9264  1.7715
 2865TIP3   OH232789   6.600   7.218  11.434 -0.4464  0.9227  0.0135
 2865TIP3    H132790   6.530   7.160  11.463 -1.0059  1.8036  0.4611
 2865TIP3    H232791   6.676   7.193  11.487 -0.4205 -0.0101 -0.4476
 2866TIP3   OH232792   7.360   2.538  13.314  0.3979  0.3121 -0.4477
 2866TIP3    H132793   7.305   2.556  13.237  0.2800  1.2325 -0.1606
 2866TIP3    H232794   7.298   2.540  13.387  0.6037  0.0166 -0.2664
 2867TIP3   OH232795   2.587   4.622  13.657  0.0745 -0.3540 -0.1354
 2867TIP3    H132796   2.621   4.580  13.736  0.5758  1.4141  0.6643
 2867TIP3    H232797   2.492   4.617  13.666  0.0984  0.6174  1.1068
 2868TIP3   OH232798   4.432   3.164  12.791 -0.6902  0.0803  0.2969
 2868TIP3    H132799   4.479   3.246  12.783 -2.6027  1.3238  1.1109
 2868TIP3    H232800   4.477   3.104  12.732  1.1718  1.4921  0.2022
 2869TIP3   OH232801   7.171   0.694  11.829 -0.2990 -0.0425  0.6151
 2869TIP3    H132802   7.158   0.786  11.848  0.6634  0.5293 -1.2672
 2869TIP3    H232803   7.262   0.688  11.800 -0.6111 -1.4226 -0.1681
 2870TIP3   OH232804   6.218   3.463  12.643  0.3958 -0.2902 -0.5044
 2870TIP3    H132805   6.222   3.558  12.650 -1.2805 -0.1155 -1.4023
 2870TIP3    H232806   6.303   3.437  12.608  0.3994  1.0351 -1.5419
 2871TIP3   OH232807   6.356   4.188  12.468  0.2920 -0.1053 -0.9533
 2871TIP3    H132808   6.428   4.246  12.493 -2.4735  2.9156  0.7294
 2871TIP3    H232809   6.329   4.220  12.381  0.7415 -1.0708 -1.4697
 2872TIP3   OH232810   4.549   0.222  10.870 -0.5754 -0.3407 -0.1818
 2872TIP3    H132811   4.466   0.219  10.918 -0.3035  2.3623  0.6461
 2872TIP3    H232812   4.616   0.212  10.937 -0.1603 -2.0080 -0.7856
 2873TIP3   OH232813   6.258   7.074  11.002 -0.0445 -0.0391 -0.4699
 2873TIP3    H132814   6.303   7.033  10.928 -0.1707 -0.0451 -0.5453
 2873TIP3    H232815   6.325   7.126  11.046  0.2783 -0.8687  0.0247
 2874TIP3   OH232816   0.276   0.908  12.506 -0.4136 -0.0134  0.1337
 2874TIP3    H132817   0.321   0.988  12.536  2.4313 -0.7136 -1.8346
 2874TIP3    H232818   0.215   0.939  12.439  0.2872  0.5847 -0.2455
 2875TIP3   OH232819   4.898   3.701  12.743  0.5548  0.4476  0.3925
 2875TIP3    H132820   4.952   3.622  12.734 -1.9211 -1.2408 -0.6354
 2875TIP3    H232821   4.900   3.721  12.836 -1.5605 -3.0426  1.3745
 2876TIP3   OH232822   4.604   6.976  12.935 -0.1581  0.2326 -0.9353
 2876TIP3    H132823   4.661   6.955  12.861 -1.3941 -1.5421 -1.4541
 2876TIP3    H232824   4.540   7.038  12.899 -0.1321  0.1777 -1.0749
 2877TIP3   OH232825   1.134   5.224  12.549  0.7838  0.2766  0.3569
 2877TIP3    H132826   1.130   5.157  12.480 -1.7494 -0.6244  1.2521
 2877TIP3    H232827   1.187   5.184  12.618  1.3846  0.2476 -0.1086
 2878TIP3   OH232828   2.563   6.391  13.219 -0.4486 -0.7336 -0.2272
 2878TIP3    H132829   2.614   6.414  13.141 -0.3893 -2.3671 -0.7102
 2878TIP3    H232830   2.473   6.417  13.198 -0.1340  0.4898 -0.1025
 2879TIP3   OH232831   6.840   3.331  13.537  0.6679  0.1455 -0.4910
 2879TIP3    H132832   6.752   3.310  13.569  0.4180 -0.9908 -1.8296
 2879TIP3    H232833   6.829   3.413  13.489  0.6132  0.6887  0.4276
 2880TIP3   OH232834   2.436   0.385  10.981 -0.2763  0.1647 -0.2009
 2880TIP3    H132835   2.368   0.319  10.995 -0.9142  1.1257  1.6517
 2880TIP3    H232836   2.400   0.465  11.019  0.3764  1.6898 -2.5916
 2881TIP3   OH232837   0.537   1.364  12.452  0.1563 -0.2200 -0.1737
 2881TIP3    H132838   0.546   1.406  12.367  1.5014 -0.3088 -0.0899
 2881TIP3    H232839   0.626   1.340  12.477 -0.1059  0.4375  1.5778
 2882TIP3   OH232840   2.476   2.576  11.543 -0.4233 -0.2122 -0.3301
 2882TIP3    H132841   2.565   2.611  11.540 -1.3594  2.4180 -0.2905
 2882TIP3    H232842   2.426   2.634  11.485 -2.3471 -0.8744  0.5776
 2883TIP3   OH232843   7.612   5.886  12.554 -0.1213 -0.1611  0.2775
 2883TIP3    H132844   7.538   5.939  12.582 -0.6742 -0.0891 -1.2504
 2883TIP3    H232845   7.661   5.943  12.494  1.3592 -0.0974  1.4903
 2884TIP3   OH232846   4.987   0.699  11.506 -0.2140  0.6392 -0.0535
 2884TIP3    H132847   4.982   0.684  11.411 -0.1604  2.6619 -0.4105
 2884TIP3    H232848   5.078   0.725  11.521  0.1257 -0.8919  0.7933
 2885TIP3   OH232849   0.964   0.794  11.445  0.6135 -0.1572 -0.0536
 2885TIP3    H132850   0.885   0.741  11.452  1.2124 -1.0213  0.2332
 2885TIP3    H232851   0.945   0.872  11.497 -0.0938 -0.3054 -0.0851
 2886TIP3   OH232852   1.428   5.130  13.280  0.3800 -0.4168 -0.4913
 2886TIP3    H132853   1.361   5.071  13.314  0.0915 -0.6786 -1.4844
 2886TIP3    H232854   1.501   5.073  13.256  0.7161 -0.1980 -0.0265
 2887TIP3   OH232855   0.590   6.300  13.007 -0.3396  0.1485  0.1108
 2887TIP3    H132856   0.646   6.337  13.075 -0.6038  1.5476 -0.3869
 2887TIP3    H232857   0.539   6.233  13.051  2.2271 -1.7446  0.4329
 2888TIP3   OH232858   4.064   3.051  11.646  0.3032  0.2446 -0.3756
 2888TIP3    H132859   4.091   2.964  11.618 -0.9356 -0.1809 -0.2902
 2888TIP3    H232860   4.041   3.097  11.565 -1.6875 -0.4398 -0.2421
 2889TIP3   OH232861   2.492   5.573  11.971  0.2996  0.1556  0.4390
 2889TIP3    H132862   2.407   5.592  11.933  0.0906 -0.2058  0.7215
 2889TIP3    H232863   2.552   5.635  11.929  0.1373 -0.4355 -0.7107
 2890TIP3   OH232864   0.724   7.189  11.519  0.0058 -0.4447 -0.7335
 2890TIP3    H132865   0.634   7.222  11.515  0.2940  0.5118  0.0993
 2890TIP3    H232866   0.750   7.178  11.428 -0.4972  0.6032 -1.0234
 2891TIP3   OH232867   4.268   4.811  12.519 -0.0679  0.1299 -0.5350
 2891TIP3    H132868   4.311   4.860  12.450  0.5045  3.2245  1.8323
 2891TIP3    H232869   4.230   4.877  12.576  0.9244 -2.1122  3.0507
 2892TIP3   OH232870   5.022   2.974  13.140  0.2547  0.0972 -0.1820
 2892TIP3    H132871   4.983   2.901  13.090 -1.9843  1.6883 -0.9354
 2892TIP3    H232872   5.005   2.952  13.231 -1.9173  0.3891 -0.4647
 2893TIP3   OH232873   5.277   5.463  12.573  0.3253 -0.2051  0.9526
 2893TIP3    H132874   5.212   5.501  12.513 -0.5193 -1.1049  1.2716
 2893TIP3    H232875   5.285   5.527  12.643 -1.3835 -0.7505  1.6922
 2894TIP3   OH232876   2.800   4.343  13.437 -0.5489  0.5741 -0.4364
 2894TIP3    H132877   2.707   4.353  13.417 -0.4578  0.6319 -0.8427
 2894TIP3    H232878   2.821   4.254  13.408 -0.2046  0.9758 -1.4626
 2895TIP3   OH232879   7.109   2.726  12.298 -0.1656 -0.1189  0.2078
 2895TIP3    H132880   7.089   2.819  12.288 -0.4013 -0.2853 -1.1165
 2895TIP3    H232881   7.200   2.724  12.327 -0.0357  0.5295 -0.1347
 2896TIP3   OH232882   0.443   5.526  12.835 -0.3204  0.1152  0.1193
 2896TIP3    H132883   0.424   5.434  12.817 -3.4207  1.2160 -3.8316
 2896TIP3    H232884   0.534   5.538  12.807 -0.2804 -1.5355 -0.5834
 2897TIP3   OH232885   6.431   2.330  12.359 -0.4344  0.1947 -0.3008
 2897TIP3    H132886   6.444   2.239  12.331 -1.6427 -0.2182  0.3919
 2897TIP3    H232887   6.517   2.359  12.388  0.2395 -0.2925 -1.7157
 2898TIP3   OH232888   6.013   5.685  12.044 -0.3798  0.4630  0.3547
 2898TIP3    H132889   6.073   5.631  12.095  0.6095 -0.1814 -1.4311
 2898TIP3    H232890   5.935   5.693  12.100 -0.0350 -1.6970  1.2369
 2899TIP3   OH232891   7.376   1.400  12.457 -0.6088  0.0826  0.0888
 2899TIP3    H132892   7.400   1.444  12.375 -0.8448  0.3576  0.1641
 2899TIP3    H232893   7.358   1.309  12.431 -0.4472  0.1096 -0.1257
 2900TIP3   OH232894   2.923   1.619  12.916  0.0771 -0.2321  0.2521
 2900TIP3    H132895   2.834   1.610  12.950  0.3064 -0.2657  0.8624
 2900TIP3    H232896   2.946   1.531  12.887 -0.3605 -0.0699 -0.6149
 2901TIP3   OH232897   1.139   0.201  13.038 -0.1154 -0.4161  0.2711
 2901TIP3    H132898   1.053   0.237  13.062 -1.1169 -2.3559 -0.2379
 2901TIP3    H232899   1.185   0.192  13.121  0.2805  2.1538  0.4098
 2902TIP3   OH232900   7.362   4.768  11.450  0.5388 -0.0088  0.3025
 2902TIP3    H132901   7.322   4.854  11.459  0.7312  0.4493 -2.3511
 2902TIP3    H232902   7.296   4.707  11.483 -1.1919  0.9290 -1.2371
 2903TIP3   OH232903   5.628   2.213  12.163  0.6511 -0.3675 -0.0806
 2903TIP3    H132904   5.538   2.191  12.186  0.0402  1.6062 -0.4174
 2903TIP3    H232905   5.681   2.164  12.225 -0.6812 -0.8104  0.7472
 2904TIP3   OH232906   0.795   1.233  12.348  0.3723  0.0215  0.0749
 2904TIP3    H132907   0.817   1.274  12.264  0.4359 -2.8364 -1.4491
 2904TIP3    H232908   0.717   1.180  12.328  0.4445 -0.7785  1.7927
 2905TIP3   OH232909   7.235   5.776  12.646  0.1010  0.0575  0.8239
 2905TIP3    H132910   7.160   5.736  12.689  0.9504 -3.0185 -0.3066
 2905TIP3    H232911   7.301   5.783  12.714  0.2145 -1.3443  0.8783
 2906TIP3   OH232912   3.564   1.593  12.758 -0.0034 -0.0528 -0.0502
 2906TIP3    H132913   3.607   1.606  12.843 -0.7672 -0.0407  0.3385
 2906TIP3    H232914   3.489   1.537  12.777  0.3128 -0.7830 -0.8691
 2907TIP3   OH232915   7.075   4.732  12.720 -0.1425 -0.3386  0.1148
 2907TIP3    H132916   6.988   4.764  12.743 -0.4963 -0.6854 -0.7183
 2907TIP3    H232917   7.088   4.656  12.776 -0.9303 -1.0827 -0.6970
 2908TIP3   OH232918   3.632   5.993  13.291  0.4463  0.4977  0.1646
 2908TIP3    H132919   3.546   6.034  13.287  0.4193  0.4623  0.4190
 2908TIP3    H232920   3.672   6.027  13.371  1.6531  2.4889 -1.1718
 2909TIP3   OH232921   0.908   0.107  13.381  0.0099 -0.2122 -0.1335
 2909TIP3    H132922   0.827   0.113  13.330  0.2346 -0.2065 -0.4926
 2909TIP3    H232923   0.955   0.188  13.361  0.1604 -0.2722 -0.0262
 2910TIP3   OH232924   0.042   6.214  11.503  0.2894  0.8738  0.2382
 2910TIP3    H132925  -0.005   6.293  11.531 -0.5516 -0.1745  1.9225
 2910TIP3    H232926  -0.023   6.144  11.508  1.5823 -0.3303  0.9842
 2911TIP3   OH232927   7.503   6.536  12.424 -0.0529  0.0825  0.5941
 2911TIP3    H132928   7.461   6.618  12.399  0.6016 -0.1167 -1.2741
 2911TIP3    H232929   7.583   6.533  12.373  0.0222 -1.6445  0.7503
 2912TIP3   OH232930   1.936   7.472  11.543 -0.5349  0.0641 -0.3656
 2912TIP3    H132931   1.965   7.517  11.463 -0.8469 -0.2135 -0.6402
 2912TIP3    H232932   1.973   7.384  11.535 -0.8328 -0.0625 -0.3613
 2913TIP3   OH232933   7.580   5.613  11.304 -0.2988 -0.4934 -0.1293
 2913TIP3    H132934   7.670   5.628  11.331 -0.0013  0.8155 -1.6517
 2913TIP3    H232935   7.534   5.586  11.384  1.2036 -0.1121  0.8943
 2914TIP3   OH232936   4.701   1.367  11.683 -0.6939 -0.1229 -0.4570
 2914TIP3    H132937   4.776   1.401  11.634  0.3535  1.3068  1.9606
 2914TIP3    H232938   4.667   1.296  11.629  1.5584  0.0743 -2.2754
 2915TIP3   OH232939   5.885   2.684  11.835 -0.3121 -0.2757  0.1235
 2915TIP3    H132940   5.936   2.705  11.757 -0.3746  0.1957  0.2086
 2915TIP3    H232941   5.869   2.768  11.878 -1.6670 -0.3369 -0.2119
 2916TIP3   OH232942   2.435   4.738  12.942 -0.4627 -0.0168  0.2207
 2916TIP3    H132943   2.517   4.724  12.894 -1.4354 -1.0460 -1.2064
 2916TIP3    H232944   2.440   4.830  12.971  0.4972  0.4023 -1.1813
 2917TIP3   OH232945   5.815   1.084  11.448  0.3950  0.0385 -0.1319
 2917TIP3    H132946   5.862   1.159  11.411  2.0033 -0.2589  1.1654
 2917TIP3    H232947   5.880   1.013  11.448 -0.0939 -0.4433  1.5803
 2918TIP3   OH232948   5.283   1.293  12.968  0.1548 -0.0887  0.1343
 2918TIP3    H132949   5.320   1.271  13.053  0.5264 -0.5200 -0.1298
 2918TIP3    H232950   5.228   1.218  12.945 -1.6011  0.9159  0.9039
 2919TIP3   OH232951   6.260   1.410  12.256  0.0688 -0.0475  0.2067
 2919TIP3    H132952   6.213   1.492  12.244  0.2790  0.3832  2.0031
 2919TIP3    H232953   6.232   1.355  12.183 -1.4196  1.0058 -0.0610
 2920TIP3   OH232954   0.427   4.595  12.862 -0.2456 -0.3119  0.5619
 2920TIP3    H132955   0.390   4.656  12.925  0.1392  0.2546  0.2482
 2920TIP3    H232956   0.369   4.519  12.864  0.0394 -0.5137  1.9600
 2921TIP3   OH232957   3.276   5.835  11.580  0.1538  0.3863 -0.2907
 2921TIP3    H132958   3.231   5.755  11.607 -0.3049  1.1176  1.2223
 2921TIP3    H232959   3.246   5.851  11.490  1.3493 -1.8868 -1.1702
 2922TIP3   OH232960   0.106   7.261  12.381  0.3967  0.1279 -0.6530
 2922TIP3    H132961   0.080   7.322  12.311 -0.5614 -0.1743 -0.5810
 2922TIP3    H232962   0.149   7.316  12.446  0.1577  0.6206 -0.9039
 2923TIP3   OH232963   2.516   7.501  12.358 -0.0951 -0.4909  0.5251
 2923TIP3    H132964   2.464   7.461  12.428 -0.5822 -0.0552  0.4187
 2923TIP3    H232965   2.581   7.435  12.335 -2.3689 -2.2387 -1.3436
 2924TIP3   OH232966   3.561   4.371  12.726 -0.0275 -0.1694 -0.1798
 2924TIP3    H132967   3.550   4.397  12.634 -0.9088  0.8584  0.1934
 2924TIP3    H232968   3.509   4.435  12.775  1.2701 -0.0715  1.1155
 2925TIP3   OH232969   6.604   7.220  13.174 -0.5170  0.1240  0.6246
 2925TIP3    H132970   6.625   7.313  13.164  0.1421  0.1467  1.9890
 2925TIP3    H232971   6.554   7.198  13.095  2.7826  0.6247 -1.8371
 2926TIP3   OH232972   3.115   4.108  12.134  0.3519 -0.2052 -0.0694
 2926TIP3    H132973   3.079   4.019  12.127  1.4903 -0.6078 -1.3363
 2926TIP3    H232974   3.042   4.165  12.111  0.1039 -0.9280 -1.1788
 2927TIP3   OH232975   0.160   6.206  12.113  0.2027 -0.6808  0.7341
 2927TIP3    H132976   0.200   6.262  12.179  1.1556 -0.1655 -0.2369
 2927TIP3    H232977   0.066   6.218  12.125  0.3554 -0.6106  1.9891
 2928TIP3   OH232978   6.148   2.379  13.641 -0.4922 -0.1583 -0.3150
 2928TIP3    H132979   6.223   2.422  13.602 -0.8336 -1.3995 -2.4993
 2928TIP3    H232980   6.073   2.408  13.589 -1.2290 -0.5638  0.4865
 2929TIP3   OH232981   3.934   3.804  11.403 -0.0232  0.5302  0.1512
 2929TIP3    H132982   3.843   3.811  11.433  0.1925  1.0511  0.6985
 2929TIP3    H232983   3.933   3.732  11.340 -1.0125  1.1633 -0.5988
 2930TIP3   OH232984   0.060   3.757  13.565 -0.0357 -0.1438 -0.0119
 2930TIP3    H132985   0.122   3.684  13.560 -0.1221 -0.3408  1.3320
 2930TIP3    H232986  -0.024   3.716  13.585  0.1348  0.3615  1.9600
 2931TIP3   OH232987   0.124   2.947  12.688 -0.3665 -0.0348  0.0757
 2931TIP3    H132988   0.219   2.952  12.703 -0.4386  1.1188  0.2843
 2931TIP3    H232989   0.115   2.913  12.600  0.2862  0.9333 -0.3832
 2932TIP3   OH232990   3.115   1.612  12.274 -0.4207 -0.2814  0.5314
 2932TIP3    H132991   3.138   1.585  12.185  2.3861  0.8432  0.8184
 2932TIP3    H232992   3.095   1.531  12.320  0.6480 -1.1435 -0.4762
 2933TIP3   OH232993   6.316   4.620  12.844 -0.3438 -0.2186 -0.2619
 2933TIP3    H132994   6.228   4.634  12.877  0.2930  1.4006  0.8668
 2933TIP3    H232995   6.306   4.554  12.775 -2.6500  1.1572 -1.3389
 2934TIP3   OH232996   4.289   6.524  12.569 -0.0572 -0.1515  0.2846
 2934TIP3    H132997   4.367   6.477  12.539 -0.1071 -0.5985  0.8521
 2934TIP3    H232998   4.269   6.486  12.654 -1.0842 -0.2481  0.0104
 2935TIP3   OH232999   3.229   0.974  13.411  0.1885  0.1080 -0.5801
 2935TIP3    H133000   3.232   0.892  13.460  2.7479  0.5842  0.2073
 2935TIP3    H233001   3.189   1.036  13.472  0.9621  0.1037 -0.0607
 2936TIP3   OH233002   6.795   7.107  12.667 -0.2900  0.2024  0.0403
 2936TIP3    H133003   6.869   7.050  12.648  1.2193  2.1538 -0.2205
 2936TIP3    H233004   6.756   7.069  12.746  1.5450 -0.3921  0.7259
 2937TIP3   OH233005   3.967   1.606  12.976 -0.0697  0.0905  0.4682
 2937TIP3    H133006   4.012   1.545  12.917  0.3003 -0.2000  1.0363
 2937TIP3    H233007   4.038   1.661  13.011 -0.1906 -0.1884  1.1582
 2938TIP3   OH233008   4.246   2.579  11.511 -0.3312  1.3818 -0.3978
 2938TIP3    H133009   4.167   2.526  11.518  1.3702 -1.1547  1.6930
 2938TIP3    H233010   4.281   2.559  11.424 -0.1172 -0.5050  0.0723
 2939TIP3   OH233011   3.412   6.948  11.811 -0.1769  0.1536  0.1160
 2939TIP3    H133012   3.340   6.889  11.834 -0.6003 -0.1121 -1.7311
 2939TIP3    H233013   3.404   6.960  11.716  3.5659 -1.7479 -0.6172
 2940TIP3   OH233014   1.592   0.461  11.318  0.0293  0.2995 -0.3200
 2940TIP3    H133015   1.537   0.532  11.352 -0.4833 -0.9846  1.7236
 2940TIP3    H233016   1.532   0.402  11.274  0.0068 -0.1997  0.3547
 2941TIP3   OH233017   3.984   0.747  12.108 -0.5705 -0.3643  0.2127
 2941TIP3    H133018   4.022   0.753  12.196 -2.4063  0.2221  1.0141
 2941TIP3    H233019   3.942   0.832  12.094 -0.8490 -0.6808 -0.9692
 2942TIP3   OH233020   1.730   0.651  12.743 -0.4228 -0.2254 -0.7008
 2942TIP3    H133021   1.661   0.632  12.679 -1.2742 -0.9081  0.3722
 2942TIP3    H233022   1.732   0.747  12.749  0.6666 -0.0739 -2.7592
 2943TIP3   OH233023   4.569   7.111  12.575  0.1564  0.3539 -0.5319
 2943TIP3    H133024   4.540   7.029  12.534  0.7937  1.3120 -3.1528
 2943TIP3    H233025   4.635   7.144  12.515  1.0239  2.0530  1.2769
 2944TIP3   OH233026   4.492   2.324  12.870  0.0602 -0.1695 -0.2524
 2944TIP3    H133027   4.517   2.363  12.954  3.0656  1.4129 -1.7240
 2944TIP3    H233028   4.559   2.257  12.854  0.8667  1.0216 -2.2796
 2945TIP3   OH233029   1.816   4.023  11.677  1.1479 -0.9080 -0.1650
 2945TIP3    H133030   1.764   3.963  11.730  0.7858 -0.6229 -0.1982
 2945TIP3    H233031   1.787   4.110  11.703  0.4339 -0.7640 -1.3589
 2946TIP3   OH233032   2.851   6.225  11.570  0.0018 -0.2140 -0.8351
 2946TIP3    H133033   2.847   6.167  11.494  2.1290  0.1759 -1.2842
 2946TIP3    H233034   2.932   6.201  11.614 -0.8972 -0.0303  1.0285
 2947TIP3   OH233035   6.373   4.889  12.259 -0.0229 -0.2332 -0.1681
 2947TIP3    H133036   6.409   4.938  12.333 -2.4418 -1.2967  1.8506
 2947TIP3    H233037   6.441   4.824  12.239 -0.0405 -1.2563  2.5553
 2948TIP3   OH233038   7.243   7.458  12.438 -0.1971 -0.0304  0.1942
 2948TIP3    H133039   7.232   7.513  12.515 -0.2626  0.3849 -0.1046
 2948TIP3    H233040   7.182   7.386  12.450 -2.4007  1.5570 -0.8273
 2949TIP3   OH233041   7.550   5.741  11.006 -0.4858  0.1036 -0.1628
 2949TIP3    H133042   7.565   5.796  11.083  1.1786  2.9206 -2.2965
 2949TIP3    H233043   7.457   5.719  11.009 -1.5159  3.8429  0.4605
 2950TIP3   OH233044   1.239   2.752  13.156 -0.3445  0.3403 -0.0240
 2950TIP3    H133045   1.209   2.667  13.125  1.3734 -0.6748  0.9340
 2950TIP3    H233046   1.325   2.734  13.196  1.2299  2.8847 -1.9431
 2951TIP3   OH233047   5.436   1.999  11.653 -0.2377 -0.0516 -0.0547
 2951TIP3    H133048   5.442   1.916  11.701  2.6937 -0.0783 -0.3094
 2951TIP3    H233049   5.416   1.973  11.563  0.1715 -0.4615 -0.0310
 2952TIP3   OH233050   5.197   1.639  12.610  0.6545 -0.3827 -0.8976
 2952TIP3    H133051   5.158   1.724  12.592 -0.9859 -0.4091  1.9499
 2952TIP3    H233052   5.274   1.659  12.662  0.4244 -0.6206 -0.4627
 2953TIP3   OH233053   0.215   5.790  13.060  0.5413 -0.3811  0.3321
 2953TIP3    H133054   0.144   5.759  13.116  1.5234 -2.3334  0.5845
 2953TIP3    H233055   0.171   5.837  12.989 -0.8636  0.0352  1.4232
 2954TIP3   OH233056   5.622   0.837  11.650  0.2064 -0.3575 -0.0174
 2954TIP3    H133057   5.603   0.841  11.744  0.9360 -1.2894  0.1908
 2954TIP3    H233058   5.581   0.916  11.614  0.8925  0.6156  1.2506
 2955TIP3   OH233059   3.096   2.387  11.874  0.2359  0.0057  0.7638
 2955TIP3    H133060   3.042   2.361  11.800 -0.3870  1.4215  0.6828
 2955TIP3    H233061   3.036   2.435  11.932  0.9680 -0.0867  1.6261
 2956TIP3   OH233062   2.060   5.002  10.815  0.5286  0.6443  0.4948
 2956TIP3    H133063   2.123   5.066  10.781 -1.5045  2.1631 -0.6351
 2956TIP3    H233064   1.997   5.055  10.864  0.5877 -0.9497  2.4292
 2957TIP3   OH233065   4.975   3.780  12.443  0.7449 -0.0233 -0.2832
 2957TIP3    H133066   5.042   3.712  12.450  1.5947  0.9650  1.8382
 2957TIP3    H233067   5.022   3.862  12.455 -0.5515  0.8629 -0.9362
 2958TIP3   OH233068   2.311   1.306  12.847  0.2896 -0.1576  0.2814
 2958TIP3    H133069   2.320   1.294  12.753 -0.2104 -0.6821  0.2955
 2958TIP3    H233070   2.372   1.243  12.885  0.3081 -0.1200  0.3144
 2959TIP3   OH233071   3.434   3.830  13.414 -0.1106 -0.3663 -0.2762
 2959TIP3    H133072   3.527   3.853  13.417 -0.0274 -0.7736  0.2573
 2959TIP3    H233073   3.430   3.757  13.353 -0.1089 -0.2446 -0.4250
 2960TIP3   OH233074   1.461   5.543  11.348 -0.1208 -0.0100 -0.0947
 2960TIP3    H133075   1.452   5.636  11.367  1.1385  0.4169 -1.3761
 2960TIP3    H233076   1.373   5.507  11.357 -0.7300  1.4185 -0.1468
 2961TIP3   OH233077   4.068   2.131  12.170 -0.4088  0.7177  0.0258
 2961TIP3    H133078   3.983   2.173  12.169 -0.0361  1.4864 -0.9565
 2961TIP3    H233079   4.049   2.038  12.181 -1.4282  0.7837 -1.0232
 2962TIP3   OH233080   4.724   3.256  11.823 -0.0014 -0.6701 -0.0183
 2962TIP3    H133081   4.755   3.194  11.757  0.3513 -0.7218  0.1924
 2962TIP3    H233082   4.800   3.311  11.842  0.1749 -1.2379  1.0141
 2963TIP3   OH233083   5.529   5.961  11.449 -0.2037 -0.3076  0.0528
 2963TIP3    H133084   5.523   5.953  11.354 -0.1458 -2.5269  0.1747
 2963TIP3    H233085   5.439   5.968  11.478 -0.3621 -1.4929 -0.0869
 2964TIP3   OH233086   0.909   6.631  12.470 -0.1296 -0.2876 -0.1775
 2964TIP3    H133087   0.954   6.661  12.391 -0.2873 -0.1012 -0.1974
 2964TIP3    H233088   0.968   6.566  12.508  1.6565  2.1625  1.4865
 2965TIP3   OH233089   3.985   5.498  12.801  0.8806  0.0356  0.3989
 2965TIP3    H133090   3.955   5.470  12.714  1.4990 -1.5769  0.6724
 2965TIP3    H233091   3.920   5.562  12.829  0.4764  0.3201 -1.1048
 2966TIP3   OH233092   2.969   0.614  13.399 -0.2136 -0.5840 -0.2427
 2966TIP3    H133093   2.990   0.695  13.354 -2.0243 -1.1151 -2.1917
 2966TIP3    H233094   2.874   0.607  13.394 -0.1854 -2.3825  0.6742
 2967TIP3   OH233095   0.561   3.463  11.021 -0.3009 -0.6656  0.3904
 2967TIP3    H133096   0.557   3.550  10.983 -0.9526 -0.7828  0.1869
 2967TIP3    H233097   0.519   3.472  11.106 -1.1419 -0.9580  0.0191
 2968TIP3   OH233098   4.115   7.181  13.391 -0.1571 -0.0068 -0.2504
 2968TIP3    H133099   4.022   7.197  13.404 -0.0855  0.9638 -0.8601
 2968TIP3    H233100   4.147   7.259  13.347  0.8938 -0.4511 -0.3016
 2969TIP3   OH233101   5.742   1.157  12.396 -0.5299 -0.2153  0.2942
 2969TIP3    H133102   5.691   1.237  12.407  0.0459  0.1316  0.4337
 2969TIP3    H233103   5.810   1.179  12.332 -1.4431 -1.1003 -1.0484
 2970TIP3   OH233104   2.432   7.309  11.665  0.2162 -0.1447  0.5372
 2970TIP3    H133105   2.432   7.362  11.586 -1.3108 -0.4496  0.3150
 2970TIP3    H233106   2.476   7.364  11.731  1.1020  0.2791 -0.3825
 2971TIP3   OH233107   0.174   3.978  13.460  0.5851 -0.0104 -0.5112
 2971TIP3    H133108   0.267   3.964  13.476  0.3376 -0.9837  0.1591
 2971TIP3    H233109   0.131   3.904  13.503 -0.4837  0.3206 -0.9864
 2972TIP3   OH233110   1.929   2.589  13.689 -0.1223  0.1010 -0.4623
 2972TIP3    H133111   1.967   2.603  13.776 -2.6317  0.2526  0.7280
 2972TIP3    H233112   1.922   2.677  13.651 -1.2020  0.3387  0.2372
 2973TIP3   OH233113   5.550   0.489  12.061  0.2802 -0.4530  0.2626
 2973TIP3    H133114   5.577   0.489  12.152  0.2709 -1.7959  0.2799
 2973TIP3    H233115   5.593   0.566  12.023 -0.2826  0.5236  1.5473
 2974TIP3   OH233116   4.285   4.998  13.476  0.4767  0.0327  0.3574
 2974TIP3    H133117   4.278   5.072  13.416  1.3605  0.8500  1.2102
 2974TIP3    H233118   4.320   5.036  13.557 -1.1800 -0.9252  1.6011
 2975TIP3   OH233119   4.545   0.614  12.805 -0.0155  0.5402  0.3657
 2975TIP3    H133120   4.543   0.709  12.802 -0.5683  0.5002 -1.2735
 2975TIP3    H233121   4.458   0.589  12.836 -0.8644  0.5477 -1.8229
 2976TIP3   OH233122   4.560   5.470  11.963 -0.0763  0.3476  0.8650
 2976TIP3    H133123   4.594   5.531  12.029  0.3178  0.9542  0.1206
 2976TIP3    H233124   4.604   5.496  11.882 -2.3639  1.2106 -0.1894
 2977TIP3   OH233125   1.840   2.411  12.729  0.2134 -0.3235  0.0035
 2977TIP3    H133126   1.807   2.483  12.782  0.0969  0.6115 -1.2844
 2977TIP3    H233127   1.931   2.399  12.758  0.4655  0.8382 -0.2511
 2978TIP3   OH233128   0.179   0.457  12.548 -1.1197  0.0878  0.2750
 2978TIP3    H133129   0.202   0.494  12.633  1.4239 -0.0803 -0.2556
 2978TIP3    H233130   0.202   0.527  12.486 -3.3561  0.3797 -0.2943
 2979TIP3   OH233131   3.695   1.507  11.063 -0.3361  0.0318 -0.0127
 2979TIP3    H133132   3.726   1.532  10.976 -0.5917 -1.3371 -0.5156
 2979TIP3    H233133   3.718   1.582  11.118 -0.3539  1.0288 -1.2840
 2980TIP3   OH233134   2.311   5.675  12.563  1.0261  0.4899  0.2276
 2980TIP3    H133135   2.380   5.671  12.496  0.0490  2.2861 -0.9529
 2980TIP3    H233136   2.357   5.661  12.646  2.4788 -0.3795 -0.6782
 2981TIP3   OH233137   6.654   4.114  12.197 -0.1428  0.0478  0.6470
 2981TIP3    H133138   6.599   4.192  12.184  0.5845  0.7502  1.5937
 2981TIP3    H233139   6.592   4.047  12.227 -0.6404  0.5412  0.7597
 2982TIP3   OH233140   5.803   4.785  13.574  0.8458 -0.1313 -0.1398
 2982TIP3    H133141   5.876   4.799  13.514  1.6491  0.9325  1.0417
 2982TIP3    H233142   5.738   4.851  13.548 -0.5568 -2.1630 -2.3242
 2983TIP3   OH233143   6.609   1.369  10.556  0.8634  0.1884 -0.0746
 2983TIP3    H133144   6.526   1.379  10.602  1.3633 -0.2596  0.9732
 2983TIP3    H233145   6.622   1.274  10.550  1.5240  0.2456  0.2394
 2984TIP3   OH233146   7.602   4.807  11.567  0.3649  0.7033  0.1762
 2984TIP3    H133147   7.590   4.902  11.569 -0.4517  0.6034  2.3979
 2984TIP3    H233148   7.524   4.774  11.523 -0.5924  0.9419  1.6429
 2985TIP3   OH233149   2.631   4.089  13.304  0.1052 -0.5193  0.1220
 2985TIP3    H133150   2.671   4.028  13.242  0.8050 -1.3674  1.3586
 2985TIP3    H233151   2.580   4.033  13.362 -0.0027  0.1836  0.7090
 2986TIP3   OH233152   3.904   4.467  11.952  0.2403  0.2360  0.4486
 2986TIP3    H133153   3.958   4.405  12.002 -2.6960 -2.6376  0.3828
 2986TIP3    H233154   3.968   4.524  11.909  3.1847 -2.1908  1.2115
 2987TIP3   OH233155   6.999   0.989  11.482 -0.2889 -0.5172 -0.8740
 2987TIP3    H133156   7.093   1.005  11.470  0.0717 -1.2945  0.7284
 2987TIP3    H233157   6.994   0.896  11.506 -1.6884 -1.0785 -3.0193
 2988TIP3   OH233158   0.668   2.525  12.752 -0.0134  0.7413  0.6081
 2988TIP3    H133159   0.658   2.616  12.725 -1.0205  0.5372  0.2342
 2988TIP3    H233160   0.589   2.505  12.802 -0.1443 -0.1150  0.0957
 2989TIP3   OH233161   0.085   0.590  13.624 -0.0045  0.3915  0.6824
 2989TIP3    H133162   0.164   0.551  13.590 -0.1816 -0.9252  1.7143
 2989TIP3    H233163   0.078   0.558  13.714 -2.1243 -0.1866  0.3706
 2990TIP3   OH233164   6.915   5.679  13.201 -0.3658  0.0882 -1.1274
 2990TIP3    H133165   6.878   5.670  13.289  0.0449 -0.0400 -0.9632
 2990TIP3    H233166   6.858   5.742  13.157 -0.4453  0.3259 -0.6963
 2991TIP3   OH233167   0.543   5.163  11.315  0.1956 -0.0451 -0.2160
 2991TIP3    H133168   0.523   5.224  11.244  1.0833  0.6521  0.1216
 2991TIP3    H233169   0.607   5.103  11.277 -1.0279 -1.0938 -0.6969
 2992TIP3   OH233170   7.131   1.037  12.173  0.5570  0.1623 -0.0132
 2992TIP3    H133171   7.101   1.089  12.248 -0.5918  0.0441 -0.3611
 2992TIP3    H233172   7.122   1.097  12.098  0.3417 -0.1606 -0.2490
 2993TIP3   OH233173   2.467   6.212  10.857  0.2623  0.2964 -0.3259
 2993TIP3    H133174   2.548   6.257  10.881  0.4704 -0.6934  0.9566
 2993TIP3    H233175   2.402   6.244  10.919 -0.2811  0.8901 -1.1841
 2994TIP3   OH233176   7.203   6.668  13.726  0.0283  0.1370  0.0876
 2994TIP3    H133177   7.165   6.598  13.673 -0.2658 -0.0068  0.4827
 2994TIP3    H233178   7.297   6.648  13.727 -0.0263 -0.1357  0.0298
 2995TIP3   OH233179   0.155   1.249  12.539  0.6143  0.4399 -0.6325
 2995TIP3    H133180   0.187   1.235  12.628  1.0211 -0.7860 -0.9651
 2995TIP3    H233181   0.070   1.206  12.537  0.8975 -0.1057 -1.0273
 2996TIP3   OH233182   5.977   4.834  10.913  0.4907 -0.3005 -0.4354
 2996TIP3    H133183   5.900   4.891  10.915 -0.4959 -1.5761 -1.0558
 2996TIP3    H233184   5.949   4.754  10.958  1.3479 -0.8932 -0.9300
 2997TIP3   OH233185   1.527   3.397  11.337  0.5068 -0.3640 -0.3338
 2997TIP3    H133186   1.501   3.307  11.316 -0.4495  0.0298 -0.8764
 2997TIP3    H233187   1.544   3.437  11.252  0.0895  0.2144 -0.1452
 2998TIP3   OH233188   5.138   3.656  10.892 -0.2801  0.1125 -0.5836
 2998TIP3    H133189   5.068   3.620  10.838  0.6800 -1.6587 -0.7225
 2998TIP3    H233190   5.106   3.742  10.920 -1.9069 -0.0805 -1.7557
 2999TIP3   OH233191   5.851   4.235  12.394 -0.2270 -0.5698 -0.4037
 2999TIP3    H133192   5.848   4.315  12.447  0.3689 -0.1618 -0.9753
 2999TIP3    H233193   5.764   4.197  12.403 -0.0281 -0.7237  1.1936
 3000TIP3   OH233194   7.104   0.481  12.047 -0.4039 -0.2466 -0.6002
 3000TIP3    H133195   7.073   0.565  12.012  0.3234  0.4556  0.3877
 3000TIP3    H233196   7.172   0.453  11.986 -1.0299 -0.4138 -1.2408
 3001TIP3   OH233197   3.920   1.658  12.337  0.1153 -0.5079  0.1668
 3001TIP3    H133198   3.986   1.606  12.289 -1.1419 -0.0023 -2.2671
 3001TIP3    H233199   3.850   1.596  12.355 -1.3973  0.1931 -2.7617
 3002TIP3   OH233200   3.638   7.254  11.839  0.1643 -0.2420  0.2632
 3002TIP3    H133201   3.680   7.338  11.854 -0.0631 -0.2351  0.9465
 3002TIP3    H233202   3.551   7.264  11.878  0.1581 -0.8077  0.4077
 3003TIP3   OH233203   4.382   6.616  13.610 -0.5271 -0.7492  0.5667
 3003TIP3    H133204   4.320   6.570  13.667 -0.9417  1.2104  1.7995
 3003TIP3    H233205   4.338   6.699  13.590  0.5585 -0.4859 -0.8281
 3004TIP3   OH233206   0.851   4.136  12.485 -0.1432  0.9079 -0.4420
 3004TIP3    H133207   0.880   4.226  12.500  0.2508  0.8487 -0.8355
 3004TIP3    H233208   0.890   4.112  12.401  0.8167 -0.0758  0.2617
 3005TIP3   OH233209   5.941   3.376  13.091  0.3241  0.7960 -0.4264
 3005TIP3    H133210   5.962   3.369  13.184 -0.0728  1.6581 -0.2659
 3005TIP3    H233211   5.991   3.451  13.060 -1.0637  1.7491 -0.4442
 3006TIP3   OH233212   1.896   2.631  12.919  0.2341 -0.3387  0.0933
 3006TIP3    H133213   1.949   2.706  12.892 -1.2590  0.5972 -0.3634
 3006TIP3    H233214   1.929   2.608  13.006 -0.0782  1.6413  0.7785
 3007TIP3   OH233215   1.674   2.129  12.154 -0.1120  0.1701  0.3620
 3007TIP3    H133216   1.624   2.134  12.236 -1.7881  0.0007 -0.6167
 3007TIP3    H233217   1.622   2.179  12.091  1.3162  0.5776 -0.5457
 3008TIP3   OH233218   7.627   2.812  11.762 -0.2699  0.0386  0.0225
 3008TIP3    H133219   7.676   2.765  11.694  0.0154  1.3255 -0.6923
 3008TIP3    H233220   7.649   2.904  11.748 -1.2021  0.4434  1.0765
 3009TIP3   OH233221   1.202   2.165  11.202  0.0629 -0.0313 -0.2295
 3009TIP3    H133222   1.168   2.171  11.291 -0.1387  1.2917 -0.3745
 3009TIP3    H233223   1.287   2.122  11.211 -0.8351 -1.7966  0.3368
 3010TIP3   OH233224   2.297   6.580  13.211  0.1744  0.7431 -0.1751
 3010TIP3    H133225   2.212   6.609  13.177  1.0908  2.6184 -0.9415
 3010TIP3    H233226   2.292   6.597  13.305 -0.9810 -1.0032  0.1416
 3011TIP3   OH233227   2.683   4.345  12.959  0.2835 -0.0761  0.4090
 3011TIP3    H133228   2.673   4.327  12.865  1.4074 -1.9880  0.5950
 3011TIP3    H233229   2.677   4.259  13.000  0.4971  0.6521  2.0321
 3012TIP3   OH233230   4.927   4.526  13.394  0.7195 -0.7642 -0.3437
 3012TIP3    H133231   4.987   4.599  13.377  0.9742 -1.1574 -1.2395
 3012TIP3    H233232   4.852   4.544  13.337  0.7578 -1.1535 -0.5250
 3013TIP3   OH233233   4.933   1.195  11.883  0.2579  0.5216 -0.1928
 3013TIP3    H133234   5.004   1.172  11.943 -0.2874 -0.1789  0.2025
 3013TIP3    H233235   4.965   1.272  11.836  0.6504  1.1554  1.0840
 3014TIP3   OH233236   1.492   2.790  13.298 -0.3622 -0.1620 -0.1048
 3014TIP3    H133237   1.542   2.747  13.228 -0.6952  1.3917 -1.3593
 3014TIP3    H233238   1.470   2.719  13.358 -0.2405 -1.6084 -1.6800
 3015TIP3   OH233239   2.431   6.332  12.966 -0.0417 -0.0246  0.1819
 3015TIP3    H133240   2.520   6.351  12.935  0.8493 -1.8187  1.4992
 3015TIP3    H233241   2.405   6.254  12.917 -0.2009 -0.5123  1.0247
 3016TIP3   OH233242   5.583   1.810  11.039 -0.0406  0.8066  0.0209
 3016TIP3    H133243   5.600   1.731  10.988  1.0423 -0.0353  1.6032
 3016TIP3    H233244   5.496   1.798  11.074  0.2353  0.1683  0.4949
 3017TIP3   OH233245   0.068   4.480  12.149  0.1006 -0.5618 -0.6526
 3017TIP3    H133246   0.095   4.556  12.097 -0.7911  0.0181 -0.2761
 3017TIP3    H233247   0.136   4.415  12.132  1.0483  0.4219 -0.7285
 3018TIP3   OH233248   2.875   4.248  12.128  0.7864 -0.1898 -0.3738
 3018TIP3    H133249   2.809   4.186  12.097  1.3728 -0.1967 -1.6798
 3018TIP3    H233250   2.829   4.332  12.131  1.0998  0.1591 -2.9951
 3019TIP3   OH233251   7.265   3.367  11.992 -0.4920  0.1498  0.3661
 3019TIP3    H133252   7.282   3.447  11.943 -0.3030  0.4242  0.8663
 3019TIP3    H233253   7.300   3.385  12.080 -1.3913 -0.0998  0.7840
 3020TIP3   OH233254   3.991   0.309  12.132  0.6406  0.4669  0.0189
 3020TIP3    H133255   3.917   0.350  12.176  0.2996 -0.9893  0.8393
 3020TIP3    H233256   3.956   0.280  12.048  0.1874 -0.4850  0.5272
 3021TIP3   OH233257   0.473   4.059  11.635 -0.3384  0.0355  0.2686
 3021TIP3    H133258   0.384   4.040  11.603  0.5990  0.6826 -3.1449
 3021TIP3    H233259   0.462   4.137  11.689 -1.8014  0.6345 -0.7878
 3022TIP3   OH233260   6.092   4.678  11.181  0.3892 -0.3109 -0.0342
 3022TIP3    H133261   6.133   4.591  11.177  1.0348  0.0220 -2.6587
 3022TIP3    H233262   6.005   4.664  11.145  1.0759  0.3529 -2.0880
 3023TIP3   OH233263   2.682   5.368  11.965 -0.8060 -0.2785 -0.1460
 3023TIP3    H133264   2.757   5.364  12.025 -0.4161  1.3722 -0.4880
 3023TIP3    H233265   2.629   5.440  11.997 -1.7711 -0.8325 -0.4707
 3024TIP3   OH233266   5.287   3.273  13.205  0.1936 -0.2446 -0.5394
 3024TIP3    H133267   5.191   3.265  13.200  0.2328 -3.2895  1.1619
 3024TIP3    H233268   5.319   3.220  13.132  0.5561 -0.7366 -0.0305
 3025TIP3   OH233269   3.055   6.926  12.664 -1.1269  0.1739  0.2146
 3025TIP3    H133270   2.996   6.989  12.707  2.6159  3.5449  1.0267
 3025TIP3    H233271   3.100   6.882  12.736  1.5574  2.1551 -0.1089
 3026TIP3   OH233272   5.822   3.473  12.755 -0.5204  0.3185 -0.0401
 3026TIP3    H133273   5.727   3.459  12.755 -0.6037  0.8642  0.0925
 3026TIP3    H233274   5.856   3.405  12.697 -0.9739 -0.0020  0.0594
 3027TIP3   OH233275   7.530   2.418  11.161 -0.0277 -0.1392 -0.0389
 3027TIP3    H133276   7.613   2.442  11.203  1.4628 -0.7926 -2.4533
 3027TIP3    H233277   7.525   2.474  11.084 -1.6868 -0.3493 -0.1057
 3028TIP3   OH233278   2.935   4.732  11.831 -0.0675 -0.2931 -0.5139
 3028TIP3    H133279   2.895   4.646  11.850  1.0147 -0.5541  0.7552
 3028TIP3    H233280   2.860   4.789  11.812 -0.8541 -1.3673 -0.7578
 3029TIP3   OH233281   7.554   4.849  13.106  0.0739  0.7193 -0.3572
 3029TIP3    H133282   7.472   4.831  13.061  1.6918  0.2262 -3.3853
 3029TIP3    H233283   7.573   4.770  13.157  1.0809 -1.4773 -3.7768
 3030TIP3   OH233284   1.162   5.933  11.111  0.2272 -0.5757  0.3419
 3030TIP3    H133285   1.230   5.865  11.111  1.7772  0.8966  0.6832
 3030TIP3    H233286   1.162   5.966  11.021  0.3778 -0.1700  0.4923
 3031TIP3   OH233287   6.775   2.514  12.104 -0.1319 -0.2025 -0.0623
 3031TIP3    H133288   6.811   2.560  12.028 -1.3144 -1.0590 -1.1886
 3031TIP3    H233289   6.732   2.437  12.067 -0.4914 -0.8015  1.5206
 3032TIP3   OH233290   2.835   3.849  12.617 -0.1927 -0.0338 -0.5365
 3032TIP3    H133291   2.837   3.797  12.697 -0.6439 -0.1644 -0.6084
 3032TIP3    H233292   2.832   3.785  12.546 -2.3934  0.0449 -0.5912
 3033TIP3   OH233293   0.496   6.794  11.726 -0.5204  0.0921 -0.4413
 3033TIP3    H133294   0.591   6.800  11.715 -0.6235  1.9767 -0.6134
 3033TIP3    H233295   0.472   6.715  11.678  0.7583  0.5485 -1.9287
 3034TIP3   OH233296   4.879   6.194  13.224  0.1318  0.2656  0.6191
 3034TIP3    H133297   4.901   6.275  13.177  1.4271 -0.1827  0.4105
 3034TIP3    H233298   4.932   6.197  13.303  1.4869 -1.1409 -0.1853
 3035TIP3   OH233299   0.703   5.015  12.212 -0.9526 -0.3378 -0.1659
 3035TIP3    H133300   0.738   5.002  12.300  0.5908 -0.6366 -0.8019
 3035TIP3    H233301   0.779   5.009  12.154 -2.1777 -2.2144 -1.7296
 3036TIP3   OH233302   2.742   0.157  11.905 -0.0653 -0.6867  0.0935
 3036TIP3    H133303   2.678   0.227  11.914  0.4560  0.0557 -1.4181
 3036TIP3    H233304   2.743   0.113  11.989 -1.7525 -0.0316  0.4881
 3037TIP3   OH233305   6.438   4.588  11.105  0.3162  0.1587  0.0372
 3037TIP3    H133306   6.512   4.644  11.128 -0.2094  0.5040  0.9432
 3037TIP3    H233307   6.378   4.596  11.179 -0.4464 -0.4326 -0.5016
 3038TIP3   OH233308   3.197   7.020  11.254 -0.4107 -0.3756  0.6058
 3038TIP3    H133309   3.216   6.926  11.260 -2.3305 -0.8347  0.2680
 3038TIP3    H233310   3.282   7.061  11.244  0.4326 -2.1505  0.0375
 3039TIP3   OH233311   1.749   5.363  12.820 -0.3801 -0.5907 -0.4214
 3039TIP3    H133312   1.676   5.401  12.870 -0.3328 -0.3080 -0.5654
 3039TIP3    H233313   1.724   5.375  12.729 -0.2307 -0.6513 -0.4705
 3040TIP3   OH233314   4.276   2.498  11.797  0.1782 -0.5811 -0.0884
 3040TIP3    H133315   4.248   2.526  11.710 -0.2596 -1.1030 -0.1235
 3040TIP3    H233316   4.194   2.476  11.842  0.1403  1.9743  1.2973
 3041TIP3   OH233317   6.348   6.185  11.324  0.4392  0.0686 -0.0317
 3041TIP3    H133318   6.378   6.155  11.238 -0.3076 -1.5734  0.2471
 3041TIP3    H233319   6.428   6.213  11.368  1.0043 -0.3016 -0.7872
 3042TIP3   OH233320   3.759   1.488  11.350  0.3167  0.3955  0.5678
 3042TIP3    H133321   3.675   1.524  11.320  0.6500  0.6753 -0.0551
 3042TIP3    H233322   3.816   1.565  11.359  0.8069  0.1074 -0.0258
 3043TIP3   OH233323   6.517   5.609  13.450  0.6024 -0.0743 -0.9658
 3043TIP3    H133324   6.567   5.545  13.501 -2.1108  0.5801  2.9034
 3043TIP3    H233325   6.575   5.685  13.443  0.8723  0.1029  1.9898
 3044TIP3   OH233326   7.178   2.490  11.698 -0.7331 -0.4658  0.1243
 3044TIP3    H133327   7.215   2.578  11.697 -0.0112 -0.7610 -0.0164
 3044TIP3    H233328   7.125   2.484  11.619 -2.9555  0.7202  1.4322
 3045TIP3   OH233329   6.998   3.185  12.603 -0.0573 -0.0210 -0.6491
 3045TIP3    H133330   7.043   3.213  12.683  3.0320  0.1540 -2.3217
 3045TIP3    H233331   6.959   3.101  12.626 -0.5296  0.6975  1.4367
 3046TIP3   OH233332   2.130   3.180  11.160  0.8887  0.0030 -0.5405
 3046TIP3    H133333   2.169   3.219  11.082  1.1592  1.1897  0.1574
 3046TIP3    H233334   2.138   3.248  11.227 -0.5197 -0.4987  0.1752
 3047TIP3   OH233335   1.383   0.021  12.970  0.3184  0.4549  0.3356
 3047TIP3    H133336   1.355  -0.069  12.956  1.2927  0.1255  0.4575
 3047TIP3    H233337   1.302   0.068  12.989 -0.1157 -0.5520  1.0889
 3048TIP3   OH233338   0.393   7.365  12.188 -0.3320  0.3596 -0.1059
 3048TIP3    H133339   0.414   7.450  12.148 -0.5436  0.5396  0.1670
 3048TIP3    H233340   0.300   7.371  12.209 -1.0495 -0.8968 -2.4851
 3049TIP3   OH233341   5.957   4.712  12.086 -0.6658 -0.1996 -0.3788
 3049TIP3    H133342   5.864   4.733  12.097 -0.5840  0.2405 -0.4995
 3049TIP3    H233343   5.997   4.743  12.167 -0.4383  0.7545 -0.8452
 3050TIP3   OH233344   5.100   4.672  12.637  0.8169 -0.1369  0.6150
 3050TIP3    H133345   5.144   4.730  12.575 -0.2582  1.7300  1.5073
 3050TIP3    H233346   5.040   4.621  12.582  0.5704  0.7898 -0.0054
 3051TIP3   OH233347   6.155   6.958  11.409 -0.3681  0.2955  0.2588
 3051TIP3    H133348   6.163   6.909  11.328 -0.4823  1.8926 -0.7706
 3051TIP3    H233349   6.115   7.041  11.383  1.6926  1.7965  1.5319
 3052TIP3   OH233350   6.832   0.809  13.518 -0.1523  0.6519  0.1318
 3052TIP3    H133351   6.867   0.841  13.434  0.8679  1.4866  0.8533
 3052TIP3    H233352   6.780   0.882  13.551 -0.0599  0.5436  0.5105
 3053TIP3   OH233353   4.983   3.393  13.211  0.0553 -0.0898  0.3124
 3053TIP3    H133354   5.003   3.480  13.177  0.7888 -0.8246 -1.2237
 3053TIP3    H233355   5.047   3.379  13.281 -1.7191  1.5965  2.4427
 3054TIP3   OH233356   5.852   0.767  12.903 -0.0623 -0.1238  0.3705
 3054TIP3    H133357   5.776   0.814  12.937  0.8739  1.5187  0.3007
 3054TIP3    H233358   5.906   0.835  12.863  2.4046 -0.8683  2.1808
 3055TIP3   OH233359   4.266   1.680  12.534  0.1844  0.4026 -0.3499
 3055TIP3    H133360   4.288   1.766  12.569 -0.1218  0.3176  0.0636
 3055TIP3    H233361   4.177   1.663  12.566 -0.3547  0.5918 -1.6874
 3056TIP3   OH233362   0.721   4.786  13.081  0.0886  0.0253  0.1213
 3056TIP3    H133363   0.796   4.802  13.024  1.7861 -1.5376  1.7480
 3056TIP3    H233364   0.695   4.696  13.062  0.6336 -0.4947  1.6873
 3057TIP3   OH233365   4.901   2.249  12.644 -0.4490  0.2033  0.0949
 3057TIP3    H133366   4.851   2.199  12.708  0.9392  0.2475  1.2763
 3057TIP3    H233367   4.835   2.299  12.596 -1.5372  0.3089  1.6185
 3058TIP3   OH233368   2.993   0.298  11.960  0.3315 -0.6043  0.4522
 3058TIP3    H133369   2.981   0.390  11.936  2.2582 -0.1220  1.0885
 3058TIP3    H233370   2.908   0.257  11.945 -0.8016  1.4533  0.9183
 3059TIP3   OH233371   7.599   3.533  13.606 -0.0039 -0.6394 -0.7111
 3059TIP3    H133372   7.648   3.474  13.664  0.1254 -0.2240 -0.3994
 3059TIP3    H233373   7.509   3.502  13.612 -0.2232  0.2071  0.7404
 3060TIP3   OH233374   6.246   1.622  13.474  0.2652  0.2499  0.0738
 3060TIP3    H133375   6.210   1.538  13.448 -0.8014  1.2300 -1.8068
 3060TIP3    H233376   6.196   1.647  13.551 -1.6025  0.5513 -1.1788
 3061TIP3   OH233377   7.250   2.836  13.637  0.3818  0.1747  0.0292
 3061TIP3    H133378   7.251   2.846  13.732 -2.8366 -1.6849  0.3655
 3061TIP3    H233379   7.294   2.915  13.605  1.1931  1.0620  2.9878
 3062TIP3   OH233380   6.721   0.684  13.272 -0.2175 -0.6994 -0.3446
 3062TIP3    H133381   6.788   0.654  13.211 -0.8849 -1.5358 -0.6843
 3062TIP3    H233382   6.762   0.679  13.358  0.9141  1.0039 -0.7478
 3063TIP3   OH233383   3.048   0.828  12.905 -0.3790  0.0505 -0.2372
 3063TIP3    H133384   3.056   0.753  12.846 -0.2204 -0.5936  0.5916
 3063TIP3    H233385   3.130   0.828  12.954 -0.3388  0.8286 -0.2897
 3064TIP3   OH233386   1.741   1.160  13.491 -0.3022 -0.0760 -0.5365
 3064TIP3    H133387   1.737   1.180  13.398 -0.8252 -1.6957 -0.9055
 3064TIP3    H233388   1.658   1.115  13.510 -0.8538  1.4871  1.0620
 3065TIP3   OH233389   4.383   6.115  12.973  0.6071  0.2842 -0.6781
 3065TIP3    H133390   4.470   6.133  13.006  0.5585 -1.4165  0.5005
 3065TIP3    H233391   4.384   6.022  12.951 -1.2593 -0.1061  0.5993
 3066TIP3   OH233392   7.294   0.701  13.534 -0.2446 -0.2109  0.1689
 3066TIP3    H133393   7.363   0.643  13.504 -1.5411 -1.8122  0.1076
 3066TIP3    H233394   7.337   0.762  13.593  0.8513 -2.8119  2.2522
 3067TIP3   OH233395   7.222   6.118  12.112  0.5933 -0.0248 -0.2200
 3067TIP3    H133396   7.177   6.129  12.028  2.1207  1.8770 -0.8654
 3067TIP3    H233397   7.287   6.188  12.114  2.5451 -1.7392  1.3014
 3068TIP3   OH233398   6.746   2.114  12.365 -0.3285 -0.0386 -0.8490
 3068TIP3    H133399   6.841   2.115  12.370 -0.3942  0.0457  0.8808
 3068TIP3    H233400   6.722   2.206  12.352 -0.2573  0.5048  2.1832
 3069TIP3   OH233401   3.374   2.784  12.923  0.0221 -0.4252 -0.4777
 3069TIP3    H133402   3.311   2.842  12.880  0.5731  1.3242  0.9528
 3069TIP3    H233403   3.442   2.770  12.858 -0.0910  0.6147 -0.8337
 3070TIP3   OH233404   5.608   3.593  11.958 -1.0100  0.3319 -0.3461
 3070TIP3    H133405   5.544   3.600  11.887  1.9246 -0.6370 -3.3444
 3070TIP3    H233406   5.671   3.662  11.941  0.0824 -0.2672  1.0226
 3071TIP3   OH233407   0.677   0.897  13.188 -0.2724  0.1407 -0.0996
 3071TIP3    H133408   0.659   0.831  13.121 -0.7279 -0.9708  1.0807
 3071TIP3    H233409   0.618   0.875  13.260  2.7045 -1.0047  2.1862
 3072TIP3   OH233410   0.225   4.291  12.578 -0.0861 -0.3549  0.2777
 3072TIP3    H133411   0.153   4.338  12.534  1.5963  0.9851 -1.1881
 3072TIP3    H233412   0.243   4.217  12.521  0.3686 -0.0974  0.0832
 3073TIP3   OH233413   1.412   0.710  13.431 -0.1300  0.2044 -0.6942
 3073TIP3    H133414   1.443   0.730  13.342  1.4794  0.8526 -0.0398
 3073TIP3    H233415   1.479   0.652  13.466  0.6073  1.9084  0.9136
 3074TIP3   OH233416   6.940   3.470  12.958  0.1279 -0.2487 -0.1472
 3074TIP3    H133417   6.848   3.451  12.975 -0.3242  0.3887 -1.7415
 3074TIP3    H233418   6.949   3.463  12.863  1.5033  0.5958 -0.1013
 3075TIP3   OH233419   5.743   1.115  13.814 -0.6517 -0.7337  0.0366
 3075TIP3    H133420   5.735   1.179  13.743 -0.8847  0.3182  0.9735
 3075TIP3    H233421   5.734   1.167  13.894  1.9068 -1.5145  0.9334
 3076TIP3   OH233422   7.200   1.209  11.762 -0.3706 -0.3494 -0.6201
 3076TIP3    H133423   7.128   1.262  11.728  1.3175  1.7068 -1.2328
 3076TIP3    H233424   7.249   1.181  11.685  0.3711 -0.3737 -0.1551
 3077TIP3   OH233425   1.140   4.514  13.458 -0.6416 -0.3618  0.5343
 3077TIP3    H133426   1.072   4.542  13.396 -0.7977 -1.0578  0.3794
 3077TIP3    H233427   1.095   4.450  13.514 -0.0612 -0.9949  0.2906
 3078TIP3   OH233428   0.171   0.476  11.002 -0.1114  0.4878  0.4499
 3078TIP3    H133429   0.167   0.412  10.931  0.8573  0.3077  0.5511
 3078TIP3    H233430   0.126   0.553  10.968  0.5891  0.4990 -0.4603
 3079TIP3   OH233431   3.373   3.593  13.304 -0.0316 -0.5641 -0.3174
 3079TIP3    H133432   3.387   3.512  13.354 -0.9233 -0.4879  0.0858
 3079TIP3    H233433   3.286   3.622  13.332 -0.0156  0.1472 -1.0044
 3080TIP3   OH233434   3.028   5.057  11.973 -0.0562  0.6830 -0.1894
 3080TIP3    H133435   3.039   4.962  11.982 -1.1687  0.5718  0.0652
 3080TIP3    H233436   3.033   5.091  12.062 -0.3332  0.7886 -0.2139
 3081TIP3   OH233437   6.548   3.620  12.934 -0.4199  0.2890 -0.0612
 3081TIP3    H133438   6.477   3.633  12.997 -0.3856  1.6421 -0.2684
 3081TIP3    H233439   6.606   3.694  12.948  1.7114 -1.4852  1.0461
 3082TIP3   OH233440   1.217   1.593  13.229 -0.5745 -0.5846  0.3032
 3082TIP3    H133441   1.290   1.541  13.194 -1.0512 -0.1423 -1.4211
 3082TIP3    H233442   1.177   1.633  13.152  0.8275  3.8320  1.6174
 3083TIP3   OH233443   1.897   4.761  12.825 -0.4054 -0.4624 -0.2312
 3083TIP3    H133444   1.940   4.690  12.779  1.7318  0.1260  0.7320
 3083TIP3    H233445   1.949   4.839  12.804 -1.0679  0.3289  0.8911
 3084TIP3   OH233446   3.921   6.371  12.891 -0.1314  0.0710 -0.8456
 3084TIP3    H133447   4.011   6.358  12.862 -0.4523 -0.6618 -1.5379
 3084TIP3    H233448   3.916   6.464  12.913  1.1124 -0.0970  0.3307
 3085TIP3   OH233449   4.374   5.918  13.998 -0.4620  0.2530  0.0588
 3085TIP3    H133450   4.333   5.903  14.084 -0.2626  0.2545  0.1534
 3085TIP3    H233451   4.350   6.008  13.977 -2.7264 -0.5271 -1.0853
 3086TIP3   OH233452   1.995   0.179  12.929 -0.0581  0.1560  0.5889
 3086TIP3    H133453   2.001   0.084  12.920  0.6339  0.1500  1.0384
 3086TIP3    H233454   1.946   0.194  13.009  0.3899  0.1655  0.8683
 3087TIP3   OH233455   2.153   5.403  13.840 -0.4414  0.9301  0.3465
 3087TIP3    H133456   2.181   5.336  13.778  1.7225  1.1131  1.0451
 3087TIP3    H233457   2.096   5.357  13.901  1.8471 -0.6364  1.4623
 3088TIP3   OH233458   5.584   4.267  12.689  0.3516 -0.1467 -0.4374
 3088TIP3    H133459   5.656   4.309  12.737  0.5329  0.8982 -1.5756
 3088TIP3    H233460   5.506   4.313  12.720  0.3126 -0.4063 -0.1453
 3089TIP3   OH233461   6.381   0.497  13.501 -0.1895 -0.0949 -0.0389
 3089TIP3    H133462   6.426   0.412  13.501  1.3453  0.6735 -0.6328
 3089TIP3    H233463   6.345   0.505  13.589  0.2128 -1.0833  0.2328
 3090TIP3   OH233464   7.383   5.919  12.196 -0.2807  0.3328 -1.1422
 3090TIP3    H133465   7.317   5.982  12.167 -0.3574 -0.3002 -2.3726
 3090TIP3    H233466   7.467   5.964  12.182 -0.4005  1.1921  0.5556
 3091TIP3   OH233467   1.354   0.596  12.020 -0.1177 -0.0362  0.3986
 3091TIP3    H133468   1.334   0.510  12.055  0.9754 -0.4390  0.0612
 3091TIP3    H233469   1.429   0.626  12.072 -0.9778  1.0608  1.0516
 3092TIP3   OH233470   6.770   7.481  13.700 -0.3683  0.1293 -0.1077
 3092TIP3    H133471   6.789   7.475  13.794 -1.0654  0.7437  0.0909
 3092TIP3    H233472   6.687   7.529  13.696 -0.9135 -0.8446 -0.9996
 3093TIP3   OH233473   6.461   3.076  12.165  0.0487 -0.2766  0.0117
 3093TIP3    H133474   6.443   3.129  12.242  1.0699 -0.5252  0.4305
 3093TIP3    H233475   6.418   3.123  12.093 -1.3084 -0.2913  0.7876
 3094TIP3   OH233476   1.311   6.026  13.574 -0.5430  0.5985 -0.3742
 3094TIP3    H133477   1.252   5.970  13.624  0.6265 -1.0712 -0.7794
 3094TIP3    H233478   1.286   6.011  13.483  0.1229  0.3027 -0.5134
 3095TIP3   OH233479   6.660   1.871  13.241 -0.4087 -0.2587 -0.9305
 3095TIP3    H133480   6.619   1.957  13.229  0.9690  0.3423 -1.5125
 3095TIP3    H233481   6.710   1.879  13.322  0.0739 -0.3560 -1.2131
 3096TIP3   OH233482   3.900   2.427  12.956 -0.4143 -0.3314  0.1038
 3096TIP3    H133483   3.872   2.354  12.902  1.1489  0.2923 -1.6782
 3096TIP3    H233484   3.834   2.434  13.025 -2.2312 -1.4727 -1.4574
 3097TIP3   OH233485   7.017   4.754  11.328 -0.1011 -0.0627 -0.4354
 3097TIP3    H133486   7.085   4.686  11.334  0.1217  0.1013 -1.0100
 3097TIP3    H233487   7.041   4.805  11.250 -0.8995 -0.0153 -0.6553
 3098TIP3   OH233488   6.383   0.887  12.724  0.3930 -0.6705 -0.2141
 3098TIP3    H133489   6.393   0.970  12.678  0.5221  0.3984  1.6221
 3098TIP3    H233490   6.391   0.820  12.656  1.0476  0.7849 -1.6281
 3099TIP3   OH233491   5.088   1.749  13.516  0.1280  0.2637  0.3022
 3099TIP3    H133492   5.047   1.669  13.483 -0.4655  0.9870 -0.7582
 3099TIP3    H233493   5.154   1.771  13.450 -0.7252  1.4488 -0.1843
 3100TIP3   OH233494   7.194   1.861  13.209  0.3973  0.0515 -0.3173
 3100TIP3    H133495   7.107   1.842  13.173  0.3710  0.1519 -0.3062
 3100TIP3    H233496   7.177   1.886  13.300  0.6293 -2.1434  0.3931
 3101TIP3   OH233497   3.989   5.258  12.239  0.6336 -0.2016 -0.2143
 3101TIP3    H133498   3.932   5.262  12.316  0.3597 -1.1889 -0.3474
 3101TIP3    H233499   4.026   5.170  12.241  3.4878  0.9287  0.7788
 3102TIP3   OH233500   0.903   1.468  12.632  0.2676 -0.1879  0.5888
 3102TIP3    H133501   0.966   1.532  12.666 -1.1559  1.1254  0.8624
 3102TIP3    H233502   0.886   1.498  12.542  0.4272 -0.8626  0.3245
 3103TIP3   OH233503   6.227   4.930  10.935  0.0410  0.8309 -0.2370
 3103TIP3    H133504   6.136   4.901  10.941  0.5970 -1.3366 -1.3680
 3103TIP3    H233505   6.268   4.897  11.015  0.3652 -0.3633 -0.8816
 3104TIP3   OH233506   1.188   5.648  12.155 -0.0546 -0.2327  0.1999
 3104TIP3    H133507   1.097   5.652  12.128 -0.2870 -0.2782  0.9495
 3104TIP3    H233508   1.186   5.600  12.238  0.6293 -0.0673  0.3168
 3105TIP3   OH233509   2.272   7.426  11.957 -0.9902  0.5408 -0.0925
 3105TIP3    H133510   2.241   7.345  11.916  0.6021  0.1117 -0.5175
 3105TIP3    H233511   2.363   7.434  11.928 -0.5289  1.4644  1.5086
 3106TIP3   OH233512   3.744   6.695  11.669  0.7143  0.7033  0.4813
 3106TIP3    H133513   3.659   6.737  11.657  0.8313  1.0722  0.8992
 3106TIP3    H233514   3.748   6.627  11.602 -0.1882  0.2373  0.8868
 3107TIP3   OH233515   5.140   0.427  10.805  0.0233  0.2417 -0.0842
 3107TIP3    H133516   5.137   0.477  10.887  1.0153 -1.6775  1.1727
 3107TIP3    H233517   5.079   0.474  10.747  1.0941  3.0544  0.8934
 3108TIP3   OH233518   4.161   1.203  12.522  0.5268 -0.4411  0.0023
 3108TIP3    H133519   4.204   1.270  12.469  2.4869 -1.7476 -0.1767
 3108TIP3    H233520   4.122   1.143  12.458 -0.6093  0.1222  0.1478
 3109TIP3   OH233521   7.520   1.060  13.118 -0.2866  0.9923  0.1521
 3109TIP3    H133522   7.533   1.154  13.126  0.4819  0.8112  1.1729
 3109TIP3    H233523   7.604   1.022  13.141  0.0627  0.1077 -2.3428
 3110TIP3   OH233524   3.841   5.668  12.342 -0.4271 -0.6415  0.6406
 3110TIP3    H133525   3.827   5.730  12.414 -1.2844  2.6171 -2.0922
 3110TIP3    H233526   3.929   5.634  12.356  0.1945  1.4214  2.1277
 3111TIP3   OH233527   0.937   1.308  11.481  0.7433  0.3530  0.4902
 3111TIP3    H133528   1.016   1.300  11.428  1.4257 -0.2964  1.5564
 3111TIP3    H233529   0.866   1.313  11.418  1.4743 -0.9236 -0.4975
 3112TIP3   OH233530   0.353   1.646  12.770  0.7161 -0.3558  0.1165
 3112TIP3    H133531   0.352   1.585  12.696 -1.4752  1.8545 -1.8681
 3112TIP3    H233532   0.290   1.609  12.832  1.2566 -1.3331  0.1080
 3113TIP3   OH233533   7.101   3.240  12.951  0.2246 -0.3479 -0.1518
 3113TIP3    H133534   7.093   3.182  13.026 -0.7359 -0.2806 -0.1858
 3113TIP3    H233535   7.066   3.324  12.981  0.7908 -0.0236 -0.3705
 3114TIP3   OH233536   1.413   4.506  13.381 -0.1608 -0.1573 -0.0972
 3114TIP3    H133537   1.323   4.515  13.413 -0.1074  1.0026 -0.2064
 3114TIP3    H233538   1.467   4.516  13.460 -0.1293 -1.8132  0.1245
 3115TIP3   OH233539   3.221   2.715  10.994  0.4849 -0.1692 -0.8119
 3115TIP3    H133540   3.147   2.763  10.957  1.4122  2.0241 -0.0009
 3115TIP3    H233541   3.188   2.679  11.076  0.4452  1.4480 -0.0638
 3116TIP3   OH233542   6.270   1.521  11.577  0.1303  0.0581  0.0072
 3116TIP3    H133543   6.245   1.513  11.485  2.9777 -0.4688 -0.8295
 3116TIP3    H233544   6.287   1.614  11.589 -0.6479  0.1855  0.1145
 3117TIP3   OH233545   6.390   4.956  12.560 -0.5153 -0.7191 -0.0264
 3117TIP3    H133546   6.296   4.934  12.564 -0.5824 -0.9279 -1.8478
 3117TIP3    H233547   6.422   4.938  12.648 -2.0759 -1.1890  0.4932
 3118TIP3   OH233548   4.926   0.251  11.869 -0.7604 -0.3483 -0.0107
 3118TIP3    H133549   4.849   0.296  11.906 -0.0547  0.1434  0.9106
 3118TIP3    H233550   4.923   0.272  11.776 -1.1409  0.5982  0.1985
 3119TIP3   OH233551   3.285   4.913  13.064 -0.2384  0.3389 -0.0448
 3119TIP3    H133552   3.282   4.957  12.979  0.3177  0.2355 -0.1235
 3119TIP3    H233553   3.335   4.973  13.120 -0.4593  0.3305  0.1628
 3120TIP3   OH233554   4.887   5.933  11.043 -0.1326  0.2523  0.1254
 3120TIP3    H133555   4.914   5.887  10.964 -3.0258 -0.8657 -0.3347
 3120TIP3    H233556   4.950   6.005  11.052  1.0458 -0.3553 -2.4381
 3121TIP3   OH233557   2.926   0.367  12.895 -0.0810  0.7648 -0.2119
 3121TIP3    H133558   2.885   0.360  12.981  0.8247  1.3144  0.2813
 3121TIP3    H233559   2.888   0.295  12.844  0.6671 -0.7020  1.2067
 3122TIP3   OH233560   3.275   6.154  12.590 -0.4176  0.1378  0.2230
 3122TIP3    H133561   3.235   6.076  12.629  0.0620 -0.4396 -0.4259
 3122TIP3    H233562   3.359   6.163  12.635  0.2181 -0.6350 -0.7761
 3123TIP3   OH233563   3.878   1.381  12.675 -0.5656 -0.1325 -0.6184
 3123TIP3    H133564   3.903   1.322  12.604  1.2717 -0.3792  0.1755
 3123TIP3    H233565   3.805   1.336  12.718  2.0731 -3.0783  1.2698
 3124TIP3   OH233566   7.439   0.904  13.627  0.2175  0.2072  0.0444
 3124TIP3    H133567   7.414   0.948  13.546 -1.3373  2.3882  1.5864
 3124TIP3    H233568   7.524   0.940  13.650  0.2042  0.3373 -0.1114
 3125TIP3   OH233569   2.197   2.685  12.285 -0.2179  0.0181 -0.3985
 3125TIP3    H133570   2.182   2.710  12.193  1.5091  0.9376 -0.4842
 3125TIP3    H233571   2.153   2.601  12.295  0.7544 -0.8198 -2.5026
 3126TIP3   OH233572   1.451   5.484  12.335  0.7571 -0.1066 -0.0879
 3126TIP3    H133573   1.474   5.544  12.264  0.2495  1.0301  0.6738
 3126TIP3    H233574   1.361   5.509  12.358  1.6431  1.0551  2.3978
 3127TIP3   OH233575   0.196   3.148  11.930  0.1308 -0.5145 -0.2838
 3127TIP3    H133576   0.229   3.108  11.849  1.3838 -0.3817  0.1406
 3127TIP3    H233577   0.180   3.073  11.988  2.2437 -0.4696  0.4242
 3128TIP3   OH233578   7.350   1.234  11.507 -0.2554 -0.1852 -0.3719
 3128TIP3    H133579   7.362   1.174  11.433 -0.6945 -0.5036 -0.1945
 3128TIP3    H233580   7.264   1.273  11.492 -1.2549 -1.7282  0.9710
 3129TIP3   OH233581   2.433   7.229  12.245 -0.2703  0.2664 -0.0336
 3129TIP3    H133582   2.380   7.155  12.214  0.3940  0.0163 -0.6229
 3129TIP3    H233583   2.387   7.307  12.214  0.0276  0.0357 -1.1351
 3130TIP3   OH233584   1.214   3.415  12.796  0.0150  0.1905 -0.1649
 3130TIP3    H133585   1.127   3.399  12.833  0.2776 -1.1418 -0.0829
 3130TIP3    H233586   1.200   3.414  12.701 -0.4979  2.6844 -0.1700
 3131TIP3   OH233587   0.041   2.616  13.264 -0.1305  0.5209 -0.1919
 3131TIP3    H133588   0.127   2.632  13.302  1.0320 -0.6757 -2.0936
 3131TIP3    H233589  -0.021   2.628  13.336  1.7488 -0.0077  1.5971
 3132TIP3   OH233590   6.700   4.199  12.488  0.0038  0.5794 -0.1402
 3132TIP3    H133591   6.744   4.253  12.422 -1.0852  0.7348 -0.7556
 3132TIP3    H233592   6.714   4.109  12.459  0.5876  0.5793  0.1103
 3133TIP3   OH233593   3.244   2.458  13.382  0.5717  0.4893  0.0067
 3133TIP3    H133594   3.225   2.366  13.397  1.6463  0.2702  0.0524
 3133TIP3    H233595   3.285   2.488  13.463  1.0422  0.7810 -0.3342
 3134TIP3   OH233596   4.998   0.786  13.282 -0.1091 -0.5097 -0.0895
 3134TIP3    H133597   4.949   0.807  13.203 -0.4653  1.5117  0.6066
 3134TIP3    H233598   5.089   0.784  13.254 -0.0400  2.1204 -0.2706
 3135TIP3   OH233599   1.368   1.254  12.405 -0.2760 -0.3606 -0.2038
 3135TIP3    H133600   1.413   1.249  12.321 -0.7997 -2.2101 -0.4096
 3135TIP3    H233601   1.284   1.210  12.391 -1.0229  0.6306  0.8927
 3136TIP3   OH233602   3.316   5.184  13.183  0.2313 -0.0504 -0.0492
 3136TIP3    H133603   3.374   5.254  13.155 -0.2340 -0.3444 -1.9195
 3136TIP3    H233604   3.331   5.175  13.277  1.3666  1.5390 -0.0529
 3137TIP3   OH233605   5.100   5.688  12.663 -0.0869  0.0016  0.6382
 3137TIP3    H133606   5.089   5.777  12.696 -3.6685 -1.0619  2.8405
 3137TIP3    H233607   5.160   5.646  12.725  0.0166  0.2961  0.7405
 3138TIP3   OH233608   0.095   4.133  11.948  0.2999 -0.2324 -0.0399
 3138TIP3    H133609   0.025   4.196  11.934  0.7340  0.2689 -0.0171
 3138TIP3    H233610   0.164   4.184  11.991 -0.1434 -1.2116  1.9254
 3139TIP3   OH233611   4.912   4.939  10.823  0.5186  0.2520  0.5790
 3139TIP3    H133612   4.884   5.030  10.825 -1.1488 -0.1358 -1.2915
 3139TIP3    H233613   5.005   4.943  10.800  0.0165  1.5205 -1.5873
 3140TIP3   OH233614   0.231   0.987  13.357  0.5741  0.1955 -0.2953
 3140TIP3    H133615   0.163   0.927  13.387 -1.0199  1.7170 -0.7448
 3140TIP3    H233616   0.221   0.990  13.261  0.2601  1.5620 -0.2436
 3141TIP3   OH233617   3.531   5.973  12.326 -0.0109 -0.2698  0.0445
 3141TIP3    H133618   3.561   6.042  12.386 -2.3824  0.4876  0.4568
 3141TIP3    H233619   3.530   5.893  12.379  0.3815 -0.1329  0.2630
 3142TIP3   OH233620   6.095   4.860  12.299 -0.2564 -0.0234 -0.0004
 3142TIP3    H133621   6.084   4.817  12.384 -1.9929  0.3053 -0.0223
 3142TIP3    H233622   6.188   4.883  12.296 -0.3649  1.1207  2.4028
 3143TIP3   OH233623   3.008   7.140  13.782  0.1059 -0.1274  0.6688
 3143TIP3    H133624   2.994   7.170  13.872 -2.0398 -0.9243  0.6531
 3143TIP3    H233625   3.094   7.174  13.759 -0.0191  1.5692  2.4302
 3144TIP3   OH233626   6.435   3.281  12.645  0.0323 -0.5085  0.0139
 3144TIP3    H133627   6.483   3.362  12.661  1.2951 -0.9413 -1.3778
 3144TIP3    H233628   6.484   3.214  12.691  0.8432 -0.9647 -1.4748
 3145TIP3   OH233629   3.203   6.604  11.429 -0.0191  0.3882 -0.1054
 3145TIP3    H133630   3.265   6.561  11.489 -0.6898 -1.1227 -0.4441
 3145TIP3    H233631   3.145   6.654  11.487  0.9406  1.0784  0.2844
 3146TIP3   OH233632   7.515   7.212  13.485 -0.0884  0.5343  0.1645
 3146TIP3    H133633   7.560   7.183  13.564  2.1124 -1.1242 -1.5858
 3146TIP3    H233634   7.427   7.175  13.492  0.7516 -1.4296  0.8812
 3147TIP3   OH233635   2.133   3.504  11.964 -0.2176  0.1308 -0.2964
 3147TIP3    H133636   2.094   3.560  11.897 -1.2037  0.3849  0.4634
 3147TIP3    H233637   2.177   3.564  12.023  1.3420 -0.1491 -1.1113
 3148TIP3   OH233638   0.611   3.558  11.422  0.0430 -0.1008 -0.0461
 3148TIP3    H133639   0.662   3.587  11.498 -0.3630  0.9789 -0.1691
 3148TIP3    H233640   0.610   3.633  11.363  1.8415 -1.4984 -1.9648
 3149TIP3   OH233641   7.150   2.483  12.060 -0.3931 -0.5876 -0.0490
 3149TIP3    H133642   7.223   2.487  12.122  0.5035 -0.0629 -1.1136
 3149TIP3    H233643   7.098   2.562  12.080  0.7082  0.3941 -0.9152
 3150TIP3   OH233644   4.189   0.076  12.131  0.0696  0.4181  0.0900
 3150TIP3    H133645   4.147   0.125  12.060  0.3807  0.8751  0.2182
 3150TIP3    H233646   4.175   0.131  12.209  2.7579  1.6770 -0.2175
 3151TIP3   OH233647   5.592   2.892  12.477  0.2929 -0.1780 -0.0576
 3151TIP3    H133648   5.678   2.850  12.467  0.5363  0.2814  0.0610
 3151TIP3    H233649   5.529   2.821  12.466  0.7014 -0.6069  0.3169
 3152TIP3   OH233650   1.563   5.060  11.772 -0.1178 -0.3622  0.6698
 3152TIP3    H133651   1.540   5.017  11.689  0.4109 -3.3899  1.9867
 3152TIP3    H233652   1.498   5.130  11.780 -1.5479 -1.3385 -1.2643
 3153TIP3   OH233653   6.297   4.882  11.972 -0.0987  0.1499 -0.1233
 3153TIP3    H133654   6.320   4.856  12.061 -1.5219  0.9207  0.4978
 3153TIP3    H233655   6.327   4.810  11.917  1.5774  0.0450  0.8728
 3154TIP3   OH233656   0.101   3.066  13.015  0.1199 -0.3819  0.0919
 3154TIP3    H133657   0.122   3.111  13.097 -0.0707  1.8779 -0.9936
 3154TIP3    H233658   0.025   3.012  13.035 -0.2560  0.5464  1.3073
 3155TIP3   OH233659   6.651   6.610  11.601 -0.3666 -0.1365 -0.3937
 3155TIP3    H133660   6.604   6.668  11.541 -0.9835 -0.2040  0.0159
 3155TIP3    H233661   6.740   6.608  11.566 -0.5126  0.4703 -0.8363
 3156TIP3   OH233662   6.654   2.795  12.071  0.7189  0.3860  0.1329
 3156TIP3    H133663   6.674   2.707  12.103 -0.5909 -0.1673 -0.4956
 3156TIP3    H233664   6.695   2.799  11.984  0.6759  0.3507  0.1104
 3157TIP3   OH233665   4.581   4.530  10.860 -0.5763  0.3558 -0.1898
 3157TIP3    H133666   4.558   4.623  10.867 -1.6679  0.0705  0.3283
 3157TIP3    H233667   4.498   4.484  10.870  0.0345 -0.7032  0.2708
 3158TIP3   OH233668   5.232   2.655  13.608 -0.3283 -0.1199  0.0080
 3158TIP3    H133669   5.188   2.723  13.558 -0.2019 -0.3765 -0.4532
 3158TIP3    H233670   5.319   2.691  13.625 -0.9427  0.7180  1.5943
 3159TIP3   OH233671   7.212   7.168  11.574  0.1409  0.3119  0.5916
 3159TIP3    H133672   7.154   7.236  11.540  0.9806  1.1337  0.7648
 3159TIP3    H233673   7.281   7.161  11.508  0.6050  0.3527  1.0726
 3160TIP3   OH233674   6.718   3.812  13.021  0.0276 -0.4237 -0.1834
 3160TIP3    H133675   6.722   3.882  13.087 -1.8802  0.8316 -1.2778
 3160TIP3    H233676   6.807   3.804  12.988  0.2462  1.8147 -0.2840
 3161TIP3   OH233677   5.216   5.590  12.885 -0.1658 -0.1117  0.3738
 3161TIP3    H133678   5.228   5.498  12.909 -1.0658  0.0726  1.6215
 3161TIP3    H233679   5.166   5.627  12.957  0.6203  1.4913  0.1272
 3162TIP3   OH233680   0.993   7.112  11.547 -0.2389 -0.6500 -0.1237
 3162TIP3    H133681   1.004   7.097  11.453 -0.5669 -1.9400  0.0244
 3162TIP3    H233682   0.904   7.145  11.556 -0.3504 -0.9180 -0.2346
 3163TIP3   OH233683   4.341   6.674  11.689  0.1527  0.3297 -0.0124
 3163TIP3    H133684   4.260   6.657  11.640 -0.1011  0.6153  0.2971
 3163TIP3    H233685   4.321   6.645  11.779  0.8038 -0.7108 -0.1960
 3164TIP3   OH233686   4.610   3.534  12.875 -0.2773  0.1035 -0.3397
 3164TIP3    H133687   4.683   3.596  12.883 -0.8285  0.7292 -0.0731
 3164TIP3    H233688   4.621   3.496  12.788 -2.1394  3.4886 -2.2669
 3165TIP3   OH233689   2.335   6.958  12.340 -0.3294  0.2019 -0.1037
 3165TIP3    H133690   2.391   6.881  12.349  0.0193  0.5226  0.5122
 3165TIP3    H233691   2.263   6.942  12.401 -1.1824 -0.4282 -1.2311
 3166TIP3   OH233692   6.577   6.956  12.836  0.1638 -0.9200 -0.3235
 3166TIP3    H133693   6.507   6.922  12.779 -0.3329  1.3404 -1.1610
 3166TIP3    H233694   6.656   6.910  12.805 -0.3869 -1.0107 -1.6976
 3167TIP3   OH233695   4.683   2.775  12.169  0.0973  0.1304 -0.4755
 3167TIP3    H133696   4.694   2.765  12.074  0.9971  1.7186 -0.5779
 3167TIP3    H233697   4.635   2.697  12.196  0.6487 -0.8205 -2.0919
 3168TIP3   OH233698   7.138   3.717  11.433  0.0759  0.7776  0.5290
 3168TIP3    H133699   7.222   3.691  11.397  0.4892 -0.0128  1.9565
 3168TIP3    H233700   7.159   3.779  11.503 -0.7320  2.7513 -0.9050
 3169TIP3   OH233701   2.664   0.684  12.169 -0.3002 -0.0008 -0.0236
 3169TIP3    H133702   2.662   0.655  12.077  0.3627  3.1536 -1.1600
 3169TIP3    H233703   2.574   0.710  12.188 -0.3765 -0.3853  0.1648
 3170TIP3   OH233704   0.031   4.161  13.329  0.3161 -0.0021  0.0778
 3170TIP3    H133705   0.080   4.093  13.377  1.4894  1.7579  1.5080
 3170TIP3    H233706   0.058   4.150  13.238  0.4110 -1.5005  0.2598
 3171TIP3   OH233707   1.413   0.996  11.962 -0.0522 -0.5293  0.3926
 3171TIP3    H133708   1.471   0.939  12.013 -0.6468 -1.6320 -0.1378
 3171TIP3    H233709   1.468   1.026  11.889  0.5001  0.2406  1.1105
 3172TIP3   OH233710   3.535   2.322  11.359  0.6215 -0.2109  0.0220
 3172TIP3    H133711   3.562   2.386  11.292  1.3889 -0.5117  0.0352
 3172TIP3    H233712   3.615   2.276  11.382 -0.2449 -2.8572 -1.7311
 3173TIP3   OH233713   6.901   2.411  11.839  0.4643  0.1624  0.0048
 3173TIP3    H133714   6.908   2.504  11.859  1.5476  0.0094  0.4014
 3173TIP3    H233715   6.847   2.407  11.760  0.1596  1.1009  0.1605
 3174TIP3   OH233716   2.540   4.065  11.746 -0.2907  0.2831 -0.8150
 3174TIP3    H133717   2.536   4.028  11.657  1.2845  0.0012 -0.7904
 3174TIP3    H233718   2.450   4.092  11.764 -1.2604 -2.2059 -1.4168
 3175TIP3   OH233719   1.979   5.715  13.252 -0.0767 -0.3388  0.3456
 3175TIP3    H133720   2.000   5.752  13.338  1.5932  1.1843 -0.6466
 3175TIP3    H233721   1.912   5.774  13.217  0.0685 -0.2842  0.1577
 3176TIP3   OH233722   7.392   1.542  11.065  0.4142  0.0460  0.4815
 3176TIP3    H133723   7.448   1.488  11.009 -2.0281 -1.4341 -0.7177
 3176TIP3    H233724   7.387   1.627  11.021  0.0210 -0.5055 -0.5637
 3177TIP3   OH233725   4.564   5.208  10.924  0.0010  0.2091 -0.0718
 3177TIP3    H133726   4.593   5.159  11.001  0.7181  1.9425  0.8201
 3177TIP3    H233727   4.645   5.236  10.881 -0.3046  2.4526  0.6905
 3178TIP3   OH233728   0.058   4.364  11.471  0.0304  0.2358 -0.2830
 3178TIP3    H133729   0.074   4.420  11.547  0.7159 -0.0685 -0.1913
 3178TIP3    H233730   0.113   4.401  11.402 -0.6157  0.5317 -0.6541
 3179TIP3   OH233731   5.702   3.969  12.163  0.2501 -0.6200 -0.1281
 3179TIP3    H133732   5.717   3.916  12.241  0.1652 -1.1239 -0.4525
 3179TIP3    H233733   5.613   3.949  12.136 -0.0698  0.3109  0.2180
 3180TIP3   OH233734   7.596   5.497  11.779 -0.4803 -0.5846 -0.5903
 3180TIP3    H133735   7.569   5.570  11.835 -2.1942 -1.4551 -0.2134
 3180TIP3    H233736   7.573   5.525  11.691 -2.1706 -1.0695 -0.3339
 3181TIP3   OH233737   1.623   5.760  13.180  0.3291  0.5703 -0.1697
 3181TIP3    H133738   1.657   5.698  13.244 -0.7929 -0.4655 -0.5435
 3181TIP3    H233739   1.681   5.752  13.105  1.8225  1.9908  0.7522
 3182TIP3   OH233740   7.009   4.014  12.899 -0.0771  1.1272 -0.3963
 3182TIP3    H133741   6.946   4.085  12.892  0.0130  1.1671 -0.8074
 3182TIP3    H233742   6.977   3.947  12.839 -1.2060  0.0163  1.3323
 3183TIP3   OH233743   1.913   5.084  12.074 -0.5551 -0.5578 -0.3466
 3183TIP3    H133744   1.958   5.097  11.990  0.5011 -0.7687  0.1729
 3183TIP3    H233745   1.882   4.993  12.070  1.4824 -1.3377  0.3811
 3184TIP3   OH233746   7.508   0.475  12.866  0.1876  0.0405 -0.4081
 3184TIP3    H133747   7.463   0.530  12.802  1.3732 -0.9406 -2.2066
 3184TIP3    H233748   7.465   0.493  12.949 -0.5336  2.4146 -1.2215
 3185TIP3   OH233749   3.049   5.029  11.708 -0.3261 -0.1153 -0.0771
 3185TIP3    H133750   3.040   5.033  11.804  0.8113  0.4155  0.0226
 3185TIP3    H233751   3.033   4.937  11.687 -3.5180  0.2459  0.2620
 3186TIP3   OH233752   0.498   5.003  12.937 -0.4006 -0.4799 -0.0952
 3186TIP3    H133753   0.459   4.983  12.851 -1.0702  0.0810  0.0682
 3186TIP3    H233754   0.500   4.918  12.982  0.1247 -0.8130 -0.7273
 3187TIP3   OH233755   0.379   7.043  13.069  0.0938 -0.1798  0.1106
 3187TIP3    H133756   0.353   7.110  13.006  0.2598  0.2379  0.4792
 3187TIP3    H233757   0.474   7.038  13.061  0.2326  0.6384  1.0687
 3188TIP3   OH233758   4.704   1.746  11.257 -0.0218  0.0267 -0.2931
 3188TIP3    H133759   4.746   1.661  11.256 -1.3976 -0.7259  1.2918
 3188TIP3    H233760   4.623   1.733  11.307  0.1898  2.4659  0.8637
 3189TIP3   OH233761   1.967   0.302  12.668  0.1237 -0.0245  0.0060
 3189TIP3    H133762   1.970   0.292  12.763 -0.4792 -0.5188 -0.0168
 3189TIP3    H233763   2.041   0.359  12.647 -0.7820  1.6099  0.9606
 3190TIP3   OH233764   6.213   4.158  11.016  0.2774 -0.4451  0.3325
 3190TIP3    H133765   6.197   4.064  11.008 -2.6557  0.0309 -0.9508
 3190TIP3    H233766   6.126   4.197  11.008  1.1942  2.3413  2.3634
 3191TIP3   OH233767   3.624   5.396  12.928 -0.2535 -0.7029 -0.7340
 3191TIP3    H133768   3.673   5.332  12.877  0.2164 -1.2563  0.3779
 3191TIP3    H233769   3.636   5.369  13.019 -1.9829 -0.3928 -0.3750
 3192TIP3   OH233770   0.631   4.749  11.579  0.2634 -0.0153 -0.6326
 3192TIP3    H133771   0.537   4.733  11.592  0.2661  1.1234  1.0504
 3192TIP3    H233772   0.638   4.775  11.487 -1.4072  1.9303 -0.2701
 3193TIP3   OH233773   2.652   1.674  13.341 -0.0793 -0.2442  0.3806
 3193TIP3    H133774   2.562   1.648  13.363 -0.8203  2.0246  0.2719
 3193TIP3    H233775   2.656   1.767  13.362  1.6881  0.1453 -1.4088
 3194TIP3   OH233776   7.034   6.321  12.788 -0.4400 -0.4814  0.6343
 3194TIP3    H133777   7.024   6.412  12.817  2.5698 -0.0137  0.5289
 3194TIP3    H233778   7.003   6.268  12.861 -2.6896  0.5505  0.5221
 3195TIP3   OH233779   7.476   5.067  13.271  0.1974 -0.6543  0.7563
 3195TIP3    H133780   7.423   5.026  13.339  0.3256 -2.2959 -0.0863
 3195TIP3    H233781   7.503   4.994  13.215  0.9225  0.5336 -0.4827
 3196TIP3   OH233782   5.608   4.553  11.914 -0.3902 -0.1346 -0.4605
 3196TIP3    H133783   5.615   4.614  11.987 -0.5790  0.0667 -0.6066
 3196TIP3    H233784   5.645   4.601  11.839  1.3763 -0.9574 -0.1591
 3197TIP3   OH233785   3.312   3.688  12.284 -0.0086  0.1477  0.1425
 3197TIP3    H133786   3.326   3.779  12.311  1.1895 -0.0642  0.2887
 3197TIP3    H233787   3.362   3.679  12.203  0.0932 -0.4466  0.2665
 3198TIP3   OH233788   6.761   4.525  11.700  0.1159  0.7441 -0.1258
 3198TIP3    H133789   6.725   4.516  11.612  0.1375  1.9705 -0.2817
 3198TIP3    H233790   6.774   4.619  11.711 -0.7715  0.7174  1.5376
 3199TIP3   OH233791   6.755   4.504  11.407  0.0599  0.2147 -0.6178
 3199TIP3    H133792   6.830   4.474  11.355  0.4298  1.7047 -1.0063
 3199TIP3    H233793   6.749   4.597  11.387 -1.1954  0.3500  0.3099
 3200TIP3   OH233794   4.133   0.403  12.546 -0.0809 -0.3111  0.0099
 3200TIP3    H133795   4.058   0.383  12.602 -0.4935  1.1255  0.0063
 3200TIP3    H233796   4.204   0.347  12.579 -0.6438 -0.3336  1.2017
 3201TIP3   OH233797   7.161   1.681  12.348  0.3249  0.2133  0.1212
 3201TIP3    H133798   7.230   1.620  12.322  1.4853  1.0110  1.2681
 3201TIP3    H233799   7.097   1.627  12.395 -0.2279 -0.6532 -1.5465
 3202TIP3   OH233800   6.958   1.601  11.694 -0.4706  0.1176  0.1086
 3202TIP3    H133801   6.944   1.660  11.620  2.0222  0.1141 -0.4341
 3202TIP3    H233802   6.989   1.658  11.764  0.3586 -0.3239  0.1025
 3203TIP3   OH233803   1.593   5.297  13.128  0.0369  0.6902 -0.0899
 3203TIP3    H133804   1.540   5.235  13.177  1.1876  0.7395  1.3067
 3203TIP3    H233805   1.679   5.295  13.171  1.0266  1.0011 -1.9041
 3204TIP3   OH233806   5.755   4.922  11.007  0.2449 -0.4110  0.5383
 3204TIP3    H133807   5.742   4.911  11.102  1.8633  1.1814  0.9963
 3204TIP3    H233808   5.713   4.845  10.969  0.4728 -1.6714  2.6196
 3205TIP3   OH233809   7.128   1.608  12.660 -0.0110 -0.1987  0.3648
 3205TIP3    H133810   7.096   1.683  12.709  1.1849  0.7187 -0.2140
 3205TIP3    H233811   7.192   1.644  12.598  1.3416 -1.7975  0.7345
 3206TIP3   OH233812   7.047   6.050  10.970 -0.7065  0.0313 -0.0272
 3206TIP3    H133813   7.045   5.995  11.049  2.8141  2.0925  1.7723
 3206TIP3    H233814   7.116   6.010  10.916  0.3946  1.3633  0.3333
 3207TIP3   OH233815   0.077   4.768  12.934  0.5507  0.1580  0.0410
 3207TIP3    H133816   0.013   4.822  12.980  1.2736  0.7923  0.3200
 3207TIP3    H233817   0.050   4.678  12.952  0.0822  0.4113  0.6400
 3208TIP3   OH233818   5.190   3.696  13.444  0.1436  0.5950 -0.7351
 3208TIP3    H133819   5.104   3.664  13.472  0.1099  0.6007 -0.8302
 3208TIP3    H233820   5.250   3.625  13.464  0.0988  0.5470 -0.7708
 3209TIP3   OH233821   7.306   2.105  13.724 -0.7923  0.4984 -0.0623
 3209TIP3    H133822   7.289   2.014  13.748  0.0002  0.3150 -0.1953
 3209TIP3    H233823   7.330   2.147  13.806  0.5981  0.1747 -0.2874
 3210TIP3   OH233824   1.908   0.691  11.923  0.1610  0.0459 -0.0642
 3210TIP3    H133825   1.917   0.643  11.841 -0.0282  1.0827 -0.7100
 3210TIP3    H233826   1.939   0.779  11.902 -0.6845  0.5489  0.7554
 3211TIP3   OH233827   3.185   6.909  13.209 -0.8950 -0.5507  0.2597
 3211TIP3    H133828   3.234   6.932  13.287  2.0497 -2.0035 -1.0120
 3211TIP3    H233829   3.214   6.820  13.187 -1.9760 -0.3889 -2.2086
 3212TIP3   OH233830   4.318   5.172  13.282 -0.3090 -0.0588  0.1031
 3212TIP3    H133831   4.387   5.221  13.326 -1.0132 -0.1139  1.2973
 3212TIP3    H233832   4.356   5.148  13.197  0.8629  0.5435  0.4406
 3213TIP3   OH233833   6.268   0.057  11.839 -0.1645 -0.1459 -0.3942
 3213TIP3    H133834   6.309   0.141  11.856  2.1800 -0.7942 -2.3351
 3213TIP3    H233835   6.273   0.010  11.922  0.7482  0.7362  0.0622
 3214TIP3   OH233836   3.024   5.180  12.247  0.1540 -0.4740 -0.3783
 3214TIP3    H133837   2.978   5.264  12.236  0.5127  0.0148  1.4311
 3214TIP3    H233838   3.000   5.152  12.335 -0.7393 -2.8101 -1.3069
 3215TIP3   OH233839   7.054   1.204  13.631  0.1348  0.0109  0.2643
 3215TIP3    H133840   7.039   1.271  13.698  0.1319 -0.7545  1.0464
 3215TIP3    H233841   7.083   1.127  13.680  0.2340 -0.5349 -0.6293
 3216TIP3   OH233842   0.079   7.524  11.037  0.3996  0.5342 -0.0085
 3216TIP3    H133843   0.022   7.595  11.067  0.8832  1.6047 -1.4900
 3216TIP3    H233844   0.018   7.453  11.017 -0.1691  0.7727  0.7980
 3217TIP3   OH233845   0.946   6.811  13.159  0.2444 -0.0918  0.4444
 3217TIP3    H133846   0.884   6.740  13.146 -0.1522  0.5080 -1.2051
 3217TIP3    H233847   0.942   6.861  13.077  2.0945  0.5911  0.7334
 3218TIP3   OH233848   4.200   4.381  13.160 -0.3096 -0.2165  0.0131
 3218TIP3    H133849   4.118   4.350  13.121 -0.1520 -0.3563 -0.2104
 3218TIP3    H233850   4.248   4.422  13.088  1.1088 -2.7038 -0.6018
 3219TIP3   OH233851   3.151   2.185  12.672 -0.3111 -0.5782  0.3996
 3219TIP3    H133852   3.178   2.095  12.692 -1.0505 -0.3113  2.8611
 3219TIP3    H233853   3.057   2.187  12.691 -0.8317  0.1546 -1.9261
 3220TIP3   OH233854   0.307   5.726  12.443  0.0652  0.5196 -0.0438
 3220TIP3    H133855   0.394   5.691  12.423  0.6794  1.5936  0.6535
 3220TIP3    H233856   0.292   5.702  12.534 -1.0821 -1.0435 -0.6014
 3221TIP3   OH233857   0.084   6.443  13.492  0.4938 -0.3499  0.4486
 3221TIP3    H133858   0.092   6.532  13.524  0.4177 -0.1114 -0.1676
 3221TIP3    H233859   0.175   6.414  13.478  0.5060  0.2085 -0.8445
 3222TIP3   OH233860   3.106   4.533  13.044 -0.6106  0.2957  0.5403
 3222TIP3    H133861   3.062   4.496  12.968 -0.8786  1.3826  0.1494
 3222TIP3    H233862   3.042   4.594  13.081  0.3997  1.6258  0.1758
 3223TIP3   OH233863   3.404   7.634  12.409 -0.2782 -0.4598  0.1515
 3223TIP3    H133864   3.407   7.728  12.426  1.4177  0.3842 -3.7082
 3223TIP3    H233865   3.312   7.616  12.390 -0.2963  1.0253 -1.4038
 3224TIP3   OH233866   6.355   2.539  12.575 -0.5078 -0.0711 -0.3718
 3224TIP3    H133867   6.310   2.613  12.536 -0.8481 -0.6350 -1.0715
 3224TIP3    H233868   6.384   2.570  12.661 -0.7470  0.8240 -0.6115
 3225TIP3   OH233869   1.427   1.057  13.156  0.5873 -0.4591 -0.2893
 3225TIP3    H133870   1.454   0.967  13.172 -1.9613 -1.3794 -0.7344
 3225TIP3    H233871   1.416   1.062  13.061  2.0115  0.7528 -0.4156
 3226TIP3   OH233872   6.287   5.358  11.429  0.4615 -0.2897  0.2153
 3226TIP3    H133873   6.355   5.341  11.494  0.5541  0.8156  0.4327
 3226TIP3    H233874   6.329   5.416  11.365 -0.5555  1.3081  0.9379
 3227TIP3   OH233875   7.333   2.091  12.281  0.2342 -0.1804  0.6365
 3227TIP3    H133876   7.416   2.131  12.256  0.1016 -0.1771  0.1949
 3227TIP3    H233877   7.356   2.021  12.342  0.7158 -1.4070 -0.9080
 3228TIP3   OH233878   5.410   6.118  12.379 -0.3062 -0.2090  0.1538
 3228TIP3    H133879   5.460   6.041  12.405  1.0623  0.4813 -0.2944
 3228TIP3    H233880   5.339   6.124  12.443 -1.4674 -2.7674 -0.7700
 3229TIP3   OH233881   6.528   4.419  12.554  0.2497  0.3319 -0.4695
 3229TIP3    H133882   6.572   4.504  12.558  2.2667 -0.6649  0.0228
 3229TIP3    H233883   6.593   4.361  12.513  0.7149 -1.9240  3.0289
 3230TIP3   OH233884   5.306   0.251  11.802  0.3142  0.7585  0.4390
 3230TIP3    H133885   5.293   0.271  11.709  1.2411 -1.0827 -0.1456
 3230TIP3    H233886   5.382   0.192  11.803 -0.0561  0.2475  2.3065
 3231TIP3   OH233887   7.457   5.402  12.877  0.1742 -0.2049  0.6312
 3231TIP3    H133888   7.389   5.412  12.810  0.5573 -2.7252 -0.2610
 3231TIP3    H233889   7.538   5.390  12.827  0.7404 -0.5060  1.5946
 3232TIP3   OH233890   5.623   5.093  12.345 -0.3350 -0.4649  0.3044
 3232TIP3    H133891   5.699   5.038  12.327 -0.8297 -0.7932 -0.8472
 3232TIP3    H233892   5.570   5.041  12.406 -0.3755 -0.8967 -0.0928
 3233TIP3   OH233893   3.671   7.279  12.930 -0.5697 -0.1423  0.2150
 3233TIP3    H133894   3.585   7.289  12.971 -0.7049 -3.0282  0.8688
 3233TIP3    H233895   3.663   7.202  12.875  1.6786 -0.7346  0.5902
 3234TIP3   OH233896   7.417   7.610  11.835  0.4271 -0.2067  0.2228
 3234TIP3    H133897   7.421   7.517  11.855 -1.2534 -0.9745 -2.4809
 3234TIP3    H233898   7.489   7.624  11.774 -1.4972 -0.7124 -2.3421
 3235TIP3   OH233899   6.970   7.128  13.387  0.2407 -0.1882 -0.4059
 3235TIP3    H133900   6.881   7.163  13.389  0.4375  0.3843 -1.2122
 3235TIP3    H233901   6.959   7.038  13.356 -0.3011 -1.0382  1.9754
 3236TIP3   OH233902   2.209   7.192  11.803 -0.5016  1.0491 -0.0872
 3236TIP3    H133903   2.171   7.109  11.775 -0.2202  0.6108  0.8141
 3236TIP3    H233904   2.265   7.218  11.730  0.2289 -0.0875  0.0408
 3237TIP3   OH233905   0.478   5.877  13.087 -0.0263 -0.4443 -0.3167
 3237TIP3    H133906   0.519   5.823  13.155 -0.6883 -1.0434 -0.3752
 3237TIP3    H233907   0.389   5.842  13.080 -0.6597  1.0376  0.0387
 3238TIP3   OH233908   0.029   5.647  13.480 -0.4654 -0.0865  0.2349
 3238TIP3    H133909  -0.051   5.671  13.526 -1.9760 -2.1706 -1.0922
 3238TIP3    H233910   0.053   5.561  13.516 -1.1099 -1.2929 -1.9859
 3239TIP3   OH233911   2.831   0.396  13.178  0.2270  0.1676 -0.2589
 3239TIP3    H133912   2.782   0.462  13.227 -1.7461  1.2224 -3.3879
 3239TIP3    H233913   2.811   0.314  13.222  0.9029  1.2961  2.3548
 3240TIP3   OH233914   2.576   5.838  12.066  0.1507 -0.0067 -0.0036
 3240TIP3    H133915   2.640   5.785  12.020 -1.2706 -0.4566 -1.5500
 3240TIP3    H233916   2.540   5.896  11.999 -1.3922 -0.1101  0.6864
 3241TIP3   OH233917   4.700   4.009  12.925 -0.1114  0.1420 -0.5008
 3241TIP3    H133918   4.741   4.036  13.007  0.4022 -0.1786 -0.6465
 3241TIP3    H233919   4.719   4.080  12.864 -1.0550  0.6869 -0.1738
 3242TIP3   OH233920   7.187   7.193  12.812 -0.2562  0.3951 -0.0543
 3242TIP3    H133921   7.125   7.255  12.851  0.5365  0.3059  1.4171
 3242TIP3    H233922   7.141   7.158  12.736 -1.8780  0.6161  0.7670
 3243TIP3   OH233923   0.867   3.720  13.286  0.0676  0.3010 -0.0679
 3243TIP3    H133924   0.935   3.655  13.273  0.3171  0.6752 -0.7273
 3243TIP3    H233925   0.898   3.797  13.237 -1.4648  0.0168 -1.5864
 3244TIP3   OH233926   6.306   3.201  13.080 -0.0050  0.5253 -0.0751
 3244TIP3    H133927   6.272   3.260  13.013  0.7347 -1.1752 -2.0595
 3244TIP3    H233928   6.371   3.148  13.034  0.9685 -0.3373  2.1642
 3245TIP3   OH233929   7.437   6.403  12.977 -0.2989  0.2710  0.3406
 3245TIP3    H133930   7.471   6.357  12.900 -0.4988  0.4435  0.1488
 3245TIP3    H233931   7.347   6.373  12.986  0.1358 -0.7836  1.3194
 3246TIP3   OH233932   5.587   1.326  11.364  1.0298  0.1571 -0.4066
 3246TIP3    H133933   5.588   1.421  11.360 -1.1569  0.2028 -1.9041
 3246TIP3    H233934   5.674   1.300  11.334  2.4445  1.6259  2.1050
 3247TIP3   OH233935   6.681   0.051  12.603  0.4785  0.1771 -0.0887
 3247TIP3    H133936   6.723   0.009  12.678  2.6703  2.8017  0.3516
 3247TIP3    H233937   6.748   0.049  12.534 -0.0268  1.1853 -0.6407
 3248TIP3   OH233938   5.252   7.209  12.934 -0.2908  0.1633 -0.0131
 3248TIP3    H133939   5.241   7.141  12.867 -1.1915 -0.4254  0.7159
 3248TIP3    H233940   5.341   7.240  12.921 -0.2071 -0.4445 -1.0242
 3249TIP3   OH233941   5.167   5.027  10.756 -0.0584  0.3935  0.0158
 3249TIP3    H133942   5.242   5.005  10.701  0.9568 -0.2453  1.5776
 3249TIP3    H233943   5.194   5.107  10.802 -1.4997  1.8167 -1.4718
 3250TIP3   OH233944   6.330   6.082  12.611  0.2695  0.3116 -0.4921
 3250TIP3    H133945   6.378   6.001  12.627 -0.0873  0.2405  0.2333
 3250TIP3    H233946   6.302   6.075  12.520 -1.0673 -1.0846 -0.0207
 3251TIP3   OH233947   3.025   3.704  11.458 -0.1021 -0.1189 -0.0190
 3251TIP3    H133948   2.946   3.741  11.419  0.5942  2.5409  0.8575
 3251TIP3    H233949   3.060   3.646  11.390 -0.5432  1.9994 -2.2148
 3252TIP3   OH233950   0.289   2.556  12.782 -0.3663  0.0290 -0.0049
 3252TIP3    H133951   0.329   2.640  12.760 -2.1706  1.2936  1.2724
 3252TIP3    H233952   0.220   2.577  12.844 -0.5148 -2.4886  0.8308
 3253TIP3   OH233953   1.390   2.960  11.460 -0.0553 -0.1073  0.3621
 3253TIP3    H133954   1.350   2.998  11.382  2.0894  2.1418  0.2472
 3253TIP3    H233955   1.470   2.918  11.428  0.3178 -0.0559  1.2008
 3254TIP3   OH233956   5.569   3.851  10.978 -0.5597 -0.0182 -0.2551
 3254TIP3    H133957   5.476   3.869  10.970 -0.3446  0.6598 -1.3983
 3254TIP3    H233958   5.611   3.935  10.962  0.3271 -0.7292 -1.9241
 3255TIP3   OH233959   3.194   6.642  13.878  0.1195 -0.2228 -0.9725
 3255TIP3    H133960   3.098   6.638  13.880  0.1308 -1.3018  1.8144
 3255TIP3    H233961   3.222   6.553  13.897  1.6897  0.1969 -1.1799
 3256TIP3   OH233962   7.076   3.199  12.098  0.2257  0.1408  0.3737
 3256TIP3    H133963   7.168   3.227  12.099  0.3008  0.4509 -3.4628
 3256TIP3    H233964   7.027   3.279  12.083 -0.2652 -0.5352 -1.9255
 3257TIP3   OH233965   7.259   0.931  11.445  0.4162 -0.1991  0.7208
 3257TIP3    H133966   7.307   0.918  11.526  0.9431 -1.3493  0.2453
 3257TIP3    H233967   7.324   0.920  11.376 -0.0979  0.3860  0.1304
 3258TIP3   OH233968   4.783   0.166  12.382  0.2278  0.1828 -0.1609
 3258TIP3    H133969   4.728   0.105  12.431 -0.8506  1.3536  0.1357
 3258TIP3    H233970   4.787   0.244  12.437  1.1235  0.5836 -0.7792
 3259TIP3   OH233971   1.840   5.143  11.415 -0.5959  0.9313  0.0777
 3259TIP3    H133972   1.872   5.173  11.500 -1.0100  1.9846 -0.1282
 3259TIP3    H233973   1.747   5.125  11.429 -0.7722  1.5648 -0.2667
 3260TIP3   OH233974   3.289   2.642  12.612  0.1231  0.5020 -0.4890
 3260TIP3    H133975   3.247   2.716  12.566  1.1565  1.3341 -0.1472
 3260TIP3    H233976   3.382   2.666  12.614  0.4493 -0.7497 -0.2218
 3261TIP3   OH233977   7.459   0.783  12.297  0.4317 -0.7154 -0.2098
 3261TIP3    H133978   7.491   0.701  12.332  1.5392 -1.0094 -1.8022
 3261TIP3    H233979   7.463   0.844  12.370 -0.7071 -2.1082  1.0869
 3262TIP3   OH233980   0.715   4.453  11.550  0.0197 -0.4589 -0.2445
 3262TIP3    H133981   0.747   4.428  11.463 -0.5515 -1.1890 -0.2550
 3262TIP3    H233982   0.706   4.548  11.545  0.0092 -0.4883 -0.9827
 3263TIP3   OH233983   2.208   3.712  13.356 -0.0755  0.0555  0.7524
 3263TIP3    H133984   2.240   3.720  13.446  0.4413  1.1328  0.5031
 3263TIP3    H233985   2.167   3.626  13.351 -0.0339 -0.0440  1.9936
 3264TIP3   OH233986   4.506   0.904  11.013  0.6269 -0.7247  0.4322
 3264TIP3    H133987   4.434   0.956  11.049  0.6442 -0.0454 -0.4535
 3264TIP3    H233988   4.559   0.968  10.965  0.4750 -1.5985 -0.9471
 3265TIP3   OH233989   7.349   5.624  13.028  0.1627  0.3362  0.0351
 3265TIP3    H133990   7.264   5.583  13.041  0.0938  0.5660  0.3113
 3265TIP3    H233991   7.398   5.561  12.975 -0.4425  0.5507 -0.7923
 3266TIP3   OH233992   7.241   7.111  13.523 -0.6305 -0.5768 -0.6144
 3266TIP3    H133993   7.235   7.058  13.602  0.5598  2.0042  1.3399
 3266TIP3    H233994   7.152   7.142  13.508 -0.9937 -1.6414 -0.7316
 3267TIP3   OH233995   3.248   2.162  13.300 -0.8529 -0.0849 -0.1274
 3267TIP3    H133996   3.195   2.206  13.233 -1.1550  1.6899  1.2053
 3267TIP3    H233997   3.335   2.200  13.291 -0.6556 -0.5131 -0.0820
 3268TIP3   OH233998   2.131   4.360  11.324  0.1261 -0.1109  0.1974
 3268TIP3    H133999   2.148   4.454  11.326 -0.3749 -0.0325  1.4882
 3268TIP3    H234000   2.214   4.320  11.351  0.0071  0.0125  0.7464
 3269TIP3   OH234001   0.789   6.140  12.437 -0.3962  0.2199 -0.3951
 3269TIP3    H134002   0.853   6.192  12.486  0.6973 -0.8914 -0.5891
 3269TIP3    H234003   0.809   6.159  12.345 -1.2625  0.9077 -0.4580
 3270TIP3   OH234004   2.999   5.354  11.641 -0.6614 -0.4751  0.1866
 3270TIP3    H134005   2.905   5.341  11.650 -0.6922 -0.8672 -0.6267
 3270TIP3    H234006   3.009   5.441  11.603 -0.7548 -0.8609 -0.7528
 3271TIP3   OH234007   1.157   5.975  11.695  0.1045  0.3936  0.4284
 3271TIP3    H134008   1.141   6.040  11.627 -0.8631 -1.1275 -0.8689
 3271TIP3    H234009   1.085   5.986  11.757  0.6808  1.4177  0.9281
 3272TIP3   OH234010   4.091   4.801  12.111  0.3605 -0.0800 -0.2564
 3272TIP3    H134011   4.080   4.750  12.191 -1.9270 -1.6748 -1.4560
 3272TIP3    H234012   4.087   4.736  12.041  0.0702  1.4981 -1.7664
 3273TIP3   OH234013   7.229   1.942  12.000 -0.5034 -0.1683  0.0234
 3273TIP3    H134014   7.294   1.981  11.941 -0.5361 -0.2640 -0.0773
 3273TIP3    H234015   7.187   2.017  12.042  0.4673 -0.1245  0.9587
 3274TIP3   OH234016   1.304   5.143  11.354  0.7802  0.1960  0.3024
 3274TIP3    H134017   1.323   5.151  11.260  1.2112 -1.5930  0.2199
 3274TIP3    H234018   1.221   5.191  11.365  0.0047 -0.7187 -1.2504
 3275TIP3   OH234019   0.668   1.699  13.812  0.5074  0.0189  0.4178
 3275TIP3    H134020   0.634   1.627  13.865 -2.7750  0.2698 -1.1262
 3275TIP3    H234021   0.749   1.665  13.775  0.0637 -2.1582  1.2867
 3276TIP3   OH234022   7.526   1.378  12.005  0.3662  0.2518  0.1196
 3276TIP3    H134023   7.505   1.384  11.912  0.2743  0.5427  0.1583
 3276TIP3    H234024   7.507   1.287  12.028  0.3398  0.1930 -0.1329
 3277TIP3   OH234025   7.287   4.267  11.422 -0.4552  0.4003  0.9355
 3277TIP3    H134026   7.236   4.192  11.392 -0.9395  0.6619  1.0987
 3277TIP3    H234027   7.371   4.230  11.449  0.1425  0.1648 -1.0236
 3278TIP3   OH234028   1.265   4.452  12.057  0.3023  0.1263 -0.2877
 3278TIP3    H134029   1.250   4.537  12.098 -2.5079 -0.2048 -0.4265
 3278TIP3    H234030   1.288   4.394  12.130 -1.6992  0.1999  0.4705
 3279TIP3   OH234031   7.360   4.391  11.126 -0.1099  0.0415  0.0284
 3279TIP3    H134032   7.288   4.437  11.083 -0.3063 -0.6837 -0.4295
 3279TIP3    H234033   7.317   4.333  11.189  0.1055 -0.0033  0.1368
 3280TIP3   OH234034   6.950   7.391  12.304  0.2437  0.1880 -0.0178
 3280TIP3    H134035   6.865   7.413  12.265  0.5682  0.1035 -0.7808
 3280TIP3    H234036   7.014   7.417  12.239  0.7204 -1.6423 -0.3436
 3281TIP3   OH234037   2.094   2.335  13.283 -0.1013  0.7410 -0.6467
 3281TIP3    H134038   2.066   2.415  13.238 -2.0806 -0.1247 -1.0277
 3281TIP3    H234039   2.070   2.349  13.374  0.8729  1.1353 -0.4344
 3282TIP3   OH234040   1.118   2.241  12.942  0.0684  0.0825  0.0203
 3282TIP3    H134041   1.153   2.171  12.887  0.3517 -0.9673  1.4841
 3282TIP3    H234042   1.166   2.319  12.916  1.7452 -0.8308  0.2803
 3283TIP3   OH234043   4.377   0.017  11.892  0.4466 -0.6364 -0.0712
 3283TIP3    H134044   4.289   0.055  11.886  0.9059  1.0680  2.6343
 3283TIP3    H234045   4.431   0.072  11.834  0.3125  0.3102  0.6854
 3284TIP3   OH234046   0.069   0.031  12.861 -0.2162 -0.7282 -0.1640
 3284TIP3    H134047   0.164   0.026  12.860 -0.0323  1.1212  1.2120
 3284TIP3    H234048   0.048   0.103  12.801 -0.7197 -0.9412 -0.2465
 3285TIP3   OH234049   3.950   2.210  11.700 -0.1498  0.2433  0.2911
 3285TIP3    H134050   4.033   2.167  11.722 -1.0933 -1.2493  1.1324
 3285TIP3    H234051   3.883   2.152  11.736 -1.5495  1.8154  0.3383
 3286TIP3   OH234052   7.650   6.420  11.168 -0.1077  0.2457 -0.3371
 3286TIP3    H134053   7.597   6.434  11.090 -0.3864 -0.5565 -0.3065
 3286TIP3    H234054   7.586   6.407  11.238  0.1399  0.9507  0.0293
 3287TIP3   OH234055   6.996   0.445  11.049  0.2141 -0.1956  0.0005
 3287TIP3    H134056   6.949   0.402  10.977  0.0327 -0.8114  0.4708
 3287TIP3    H234057   7.080   0.470  11.012 -0.4101  0.7747 -0.8167
 3288TIP3   OH234058   4.135   4.318  13.409  0.3352  0.3449  0.1901
 3288TIP3    H134059   4.140   4.343  13.317  1.1829 -2.2699 -0.5683
 3288TIP3    H234060   4.194   4.379  13.454 -0.1947  1.7383 -0.9349
 3289TIP3   OH234061   3.000   6.010  13.444  0.3616 -0.3063  0.6667
 3289TIP3    H134062   3.064   6.029  13.512  0.1494 -0.0808  0.8063
 3289TIP3    H234063   3.043   5.945  13.388  0.3950 -0.7691  1.2234
 3290TIP3   OH234064   1.782   6.805  13.805 -0.8442 -0.5067 -0.2919
 3290TIP3    H134065   1.698   6.760  13.814 -1.1625  0.4952  3.9046
 3290TIP3    H234066   1.761   6.882  13.752 -2.2993 -0.8756 -0.3089
 3291TIP3   OH234067   4.998   0.188  11.360 -0.4918  0.1358  0.5251
 3291TIP3    H134068   4.948   0.143  11.292  2.4213 -1.6588 -0.6135
 3291TIP3    H234069   5.004   0.125  11.431  0.7056  0.0518  0.3599
 3292TIP3   OH234070   6.947   1.115  11.120 -0.1078  0.7410 -0.1750
 3292TIP3    H134071   7.012   1.045  11.127 -0.6531  0.1541 -0.9646
 3292TIP3    H234072   6.919   1.114  11.028  0.6783  2.7105 -0.5030
 3293TIP3   OH234073   7.665   7.329  12.666 -0.3666  0.7148 -0.1009
 3293TIP3    H134074   7.738   7.361  12.719 -0.0749 -0.2321  0.0779
 3293TIP3    H234075   7.599   7.399  12.672 -0.7578  0.2325  2.3248
 3294TIP3   OH234076   0.496   4.324  11.699 -0.2331  0.2816  0.6121
 3294TIP3    H134077   0.469   4.372  11.778 -3.2980  2.1226 -1.3247
 3294TIP3    H234078   0.582   4.358  11.678 -0.7474  2.2166  1.4247
 3295TIP3   OH234079   2.879   6.247  13.387 -0.1535 -0.1234 -0.1765
 3295TIP3    H134080   2.792   6.214  13.410  0.2057 -0.3751  0.8277
 3295TIP3    H234081   2.934   6.169  13.383  0.8224  0.3084  2.7295
 3296TIP3   OH234082   4.203   2.130  11.863  0.1812 -0.0092  0.3254
 3296TIP3    H134083   4.251   2.192  11.919  0.7308  1.8091 -2.0030
 3296TIP3    H234084   4.271   2.083  11.816 -0.2594  0.6536 -1.0115
 3297TIP3   OH234085   1.606   2.465  12.870 -0.0019  0.0257 -0.0295
 3297TIP3    H134086   1.610   2.555  12.839 -0.5952  0.1594  0.2841
 3297TIP3    H234087   1.593   2.413  12.791  0.6224  0.1848 -0.2424
 3298TIP3   OH234088   6.325   3.754  11.660  0.2581 -0.0082  0.1372
 3298TIP3    H134089   6.299   3.678  11.711 -2.2855  0.2464 -0.6343
 3298TIP3    H234090   6.291   3.737  11.572  2.2523  0.7213 -0.8394
 3299TIP3   OH234091   0.296   3.669  12.727 -0.6614 -0.1401  0.1856
 3299TIP3    H134092   0.238   3.745  12.727 -0.0014  0.3709 -0.3617
 3299TIP3    H234093   0.384   3.705  12.736  0.1763 -0.3739 -4.5516
 3300TIP3   OH234094   5.815   7.261  13.201 -0.1785  0.1178 -0.6416
 3300TIP3    H134095   5.827   7.334  13.141 -2.9393  1.2471  0.0022
 3300TIP3    H234096   5.898   7.253  13.247  0.1313  3.0869 -0.4909
 3301TIP3   OH234097   3.509   6.757  11.528  0.8550  0.5008  0.6898
 3301TIP3    H134098   3.526   6.728  11.439  2.0157 -0.4038  1.1917
 3301TIP3    H234099   3.491   6.677  11.577 -1.6010  1.1133  0.9384
 3302TIP3   OH234100   3.000   6.617  11.244 -0.1553  0.3165 -0.2057
 3302TIP3    H134101   2.999   6.713  11.242  1.9757  0.4775  1.5928
 3302TIP3    H234102   3.074   6.596  11.302 -0.5149 -2.4224 -0.6298
 3303TIP3   OH234103   3.822   5.565  11.717 -0.6832 -0.5185  0.8420
 3303TIP3    H134104   3.817   5.660  11.711 -2.7936 -0.6580 -1.0766
 3303TIP3    H234105   3.757   5.542  11.783 -0.6379 -0.6550  0.8394
 3304TIP3   OH234106   2.921   4.678  11.530  0.4189 -0.3751  0.4657
 3304TIP3    H134107   2.930   4.609  11.596  2.9309 -1.9804 -1.4071
 3304TIP3    H234108   2.855   4.644  11.469  0.4569 -0.3637  0.4182
 3305TIP3   OH234109   4.687   3.828  12.513 -0.9313 -0.8424 -0.2165
 3305TIP3    H134110   4.704   3.872  12.429 -1.7524  2.1029  1.0396
 3305TIP3    H234111   4.774   3.803  12.544 -0.3748  0.1375 -0.9063
 3306TIP3   OH234112   0.108   4.529  11.682  0.1162 -0.0470 -0.1427
 3306TIP3    H134113   0.113   4.554  11.774 -3.8343  0.2026  0.1578
 3306TIP3    H234114   0.068   4.604  11.638 -0.2011 -1.0429 -1.6423
 3307TIP3   OH234115   4.835   3.839  13.289  0.1635  1.0452  0.8954
 3307TIP3    H134116   4.789   3.803  13.364  1.4451 -0.5408  0.9915
 3307TIP3    H234117   4.910   3.780  13.276  0.8722  2.1919 -0.6353
 3308TIP3   OH234118   5.688   4.814  13.189 -0.1997  0.3104  0.4252
 3308TIP3    H134119   5.776   4.830  13.226  0.1713  0.7358 -0.6026
 3308TIP3    H234120   5.655   4.740  13.239  0.7145  0.1949  0.8981
 3309TIP3   OH234121   7.029   5.632  12.772 -0.0612 -0.0427 -0.3250
 3309TIP3    H134122   6.955   5.574  12.755 -0.9918  0.4720  1.7173
 3309TIP3    H234123   7.066   5.600  12.855  1.7098  0.0421 -1.0384
 3310TIP3   OH234124   1.731   7.547  13.154 -0.2477  0.6187 -0.5677
 3310TIP3    H134125   1.690   7.480  13.208 -1.0244  0.8576 -0.8547
 3310TIP3    H234126   1.776   7.604  13.216 -0.3826  0.3823 -0.2524
 3311TIP3   OH234127   2.068   4.832  11.531  0.1876 -0.4087 -0.4210
 3311TIP3    H134128   1.978   4.821  11.499 -0.4332  0.5857  0.8878
 3311TIP3    H234129   2.088   4.750  11.575 -0.2158 -0.5099 -0.4198
 3312TIP3   OH234130   0.353   4.974  12.668  0.6593 -0.1358  0.1534
 3312TIP3    H134131   0.280   4.913  12.674 -0.7747  1.2262 -2.0422
 3312TIP3    H234132   0.407   4.940  12.597  0.0209  0.9288 -0.8676
 3313TIP3   OH234133   3.860   3.578  11.237  0.0681 -0.2418 -0.0247
 3313TIP3    H134134   3.794   3.644  11.218  1.1790  0.9773  0.1890
 3313TIP3    H234135   3.836   3.504  11.182 -0.8283  0.5786 -0.7862
 3314TIP3   OH234136   2.924   0.775  12.126  0.1266 -0.0936  0.2360
 3314TIP3    H134137   2.839   0.734  12.141  0.3901 -0.0654  1.9528
 3314TIP3    H234138   2.987   0.713  12.163  0.6255  1.2596  1.7411
 3315TIP3   OH234139   4.974   4.058  11.847 -0.2961 -0.2828 -0.2825
 3315TIP3    H134140   5.059   4.037  11.809 -0.1378  0.3752 -0.3051
 3315TIP3    H234141   4.941   4.130  11.792 -0.9662 -0.6883 -0.4182
 3316TIP3   OH234142   5.774   7.015  11.991 -0.3589 -0.9778  0.0141
 3316TIP3    H134143   5.694   6.972  11.959  0.1290 -0.0325 -2.7497
 3316TIP3    H234144   5.742   7.081  12.053 -1.6458 -1.2212 -0.3501
 3317TIP3   OH234145   6.575   0.754  11.142  0.0219  0.2681  0.1681
 3317TIP3    H134146   6.479   0.763  11.145 -0.5570 -2.3997 -3.4088
 3317TIP3    H234147   6.604   0.826  11.086 -0.0497  0.3265  0.2058
 3318TIP3   OH234148   4.046   4.281  12.108 -0.5982 -0.0437 -0.0056
 3318TIP3    H134149   4.039   4.187  12.127 -3.1331  0.0899  0.0405
 3318TIP3    H234150   4.110   4.314  12.172 -1.3307 -1.3664  1.4759
 3319TIP3   OH234151   0.497   4.603  12.587  0.6673 -0.2433 -0.0780
 3319TIP3    H134152   0.479   4.601  12.681 -0.2995  1.8249 -0.1396
 3319TIP3    H234153   0.499   4.697  12.566  0.5286 -0.6668 -2.1735
 3320TIP3   OH234154   7.273   4.385  11.976  0.4649  0.4860  0.0237
 3320TIP3    H134155   7.333   4.395  12.050  0.1074  0.5055  0.3208
 3320TIP3    H234156   7.264   4.473  11.941 -1.2574  0.9688  1.4941
 3321TIP3   OH234157   1.283   0.245  12.418 -0.5045  0.1208 -0.4893
 3321TIP3    H134158   1.189   0.229  12.405 -0.5062  0.6798 -1.2369
 3321TIP3    H234159   1.323   0.159  12.410 -0.7297  0.1580 -2.3222
 3322TIP3   OH234160   3.261   5.371  12.200 -0.4850 -0.0685  0.5272
 3322TIP3    H134161   3.346   5.357  12.158 -0.0417  0.1504  1.3358
 3322TIP3    H234162   3.201   5.313  12.153  0.3015 -0.9147  0.5553
 3323TIP3   OH234163   4.511   7.425  12.588 -0.2888 -0.1822  0.4370
 3323TIP3    H134164   4.552   7.342  12.562 -0.7689 -0.4948  0.6585
 3323TIP3    H234165   4.450   7.401  12.659  0.1940  0.4878  1.1002
 3324TIP3   OH234166   1.368   0.270  11.816  0.4383 -0.7298  0.1814
 3324TIP3    H134167   1.311   0.347  11.811  0.1399 -0.7794  2.1102
 3324TIP3    H234168   1.404   0.261  11.728  0.0495  1.2884 -0.2269
 3325TIP3   OH234169   0.280   4.281  12.079  0.6433  0.0693  0.2756
 3325TIP3    H134170   0.344   4.224  12.121  1.5607  0.7702 -0.1391
 3325TIP3    H234171   0.333   4.349  12.036 -0.2970 -0.0988 -1.2133
 3326TIP3   OH234172   6.338   7.073  12.639  0.0355 -0.5135  0.5122
 3326TIP3    H134173   6.423   7.097  12.601 -0.2505  0.4079  0.4453
 3326TIP3    H234174   6.346   6.979  12.657  1.3519 -0.2836  1.2360
 3327TIP3   OH234175   2.035   5.117  12.315  0.2355 -0.4923 -0.1269
 3327TIP3    H134176   1.988   5.115  12.231  2.3173 -0.2530 -1.3561
 3327TIP3    H234177   2.105   5.181  12.302  1.8794 -1.9563  1.0590
 3328TIP3   OH234178   1.315   4.494  13.778 -0.4057 -0.1859 -0.3881
 3328TIP3    H134179   1.222   4.511  13.764 -0.2852  0.5654 -0.2849
 3328TIP3    H234180   1.342   4.559  13.843  0.1336 -0.5702 -0.2204
 3329TIP3   OH234181   3.660   2.903  10.925 -0.1683  0.5154 -0.7720
 3329TIP3    H134182   3.663   2.994  10.955  0.6635 -0.3437  2.0343
 3329TIP3    H234183   3.751   2.873  10.930 -0.6993 -1.0410  0.4455
 3330TIP3   OH234184   7.357   4.845  12.366 -0.2343  0.2958 -0.4249
 3330TIP3    H134185   7.349   4.822  12.459  0.4842 -1.4744 -0.7449
 3330TIP3    H234186   7.447   4.875  12.357  0.6358 -2.2456 -1.0005
 3331TIP3   OH234187   0.004   6.056  11.234  0.1068 -0.0576 -0.4515
 3331TIP3    H134188  -0.035   6.098  11.158 -0.8708  0.6679  0.4226
 3331TIP3    H234189  -0.066   6.055  11.300  1.7071  1.8781  1.4101
 3332TIP3   OH234190   1.588   4.665  12.040 -0.7370  0.3184  0.1741
 3332TIP3    H134191   1.645   4.595  12.010  2.3711  2.3757  0.7324
 3332TIP3    H234192   1.547   4.631  12.119 -1.2437 -1.6421 -0.8748
 3333TIP3   OH234193   3.089   5.189  13.044  0.0390  0.0018 -0.0387
 3333TIP3    H134194   3.068   5.096  13.039  1.8172 -0.4951  0.8736
 3333TIP3    H234195   3.164   5.194  13.102  0.8029  1.8896 -1.0783
 3334TIP3   OH234196   7.617   2.001  12.496 -0.3941  0.6087  1.2804
 3334TIP3    H134197   7.525   1.987  12.471  0.1758  1.2275 -1.5659
 3334TIP3    H234198   7.653   1.913  12.504 -0.2558  0.2323 -2.1133
 3335TIP3   OH234199   4.599   5.128  13.325  0.4838  0.7099  0.5508
 3335TIP3    H134200   4.668   5.188  13.355  0.3874  1.4176 -0.6021
 3335TIP3    H234201   4.607   5.127  13.230 -1.3495  1.1102  0.3538
 3336TIP3   OH234202   4.680   1.994  11.106 -0.0676  0.2949 -0.0325
 3336TIP3    H134203   4.634   2.046  11.172 -1.3735 -1.1569  0.2355
 3336TIP3    H234204   4.696   1.910  11.148  1.5714  0.2641 -0.6400
 3337TIP3   OH234205   5.548   7.203  13.146  0.4691  0.0642  0.4255
 3337TIP3    H134206   5.534   7.121  13.098 -0.3842 -0.1227  0.9777
 3337TIP3    H234207   5.642   7.220  13.137  0.2014  0.5759 -2.1685
 3338TIP3   OH234208   1.770   4.830  13.069  0.1582 -0.3251 -0.0771
 3338TIP3    H134209   1.738   4.754  13.117 -1.2400  0.7407  0.7647
 3338TIP3    H234210   1.793   4.795  12.982 -1.8393 -1.4807 -0.2152
 3339TIP3   OH234211   2.935   3.256  13.723  0.3483  0.2784 -0.1739
 3339TIP3    H134212   2.951   3.284  13.632  1.6357  1.4120  0.3618
 3339TIP3    H234213   2.997   3.307  13.774  1.8113 -2.5472  1.0617
 3340TIP3   OH234214   7.512   5.058  11.507  0.5009  0.4946  0.0837
 3340TIP3    H134215   7.435   5.102  11.543  0.2725  0.5778 -0.4953
 3340TIP3    H234216   7.586   5.100  11.551  0.1944 -0.2840  1.4070
 3341TIP3   OH234217   0.718   1.493  11.189  0.2269  0.0161  0.2744
 3341TIP3    H134218   0.738   1.581  11.221  0.7045  0.2362 -0.6203
 3341TIP3    H234219   0.635   1.503  11.143  0.2916 -0.0027  0.1553
 3342TIP3   OH234220   5.317   4.331  11.390 -0.3656  0.0679  0.3704
 3342TIP3    H134221   5.240   4.355  11.338  0.4101  1.1596 -0.3052
 3342TIP3    H234222   5.359   4.261  11.339  0.7076  1.5234 -0.8281
 3343TIP3   OH234223   2.147   2.634  13.435 -0.2667 -0.1016  0.5412
 3343TIP3    H134224   2.242   2.639  13.441 -0.1128 -1.7673 -0.1484
 3343TIP3    H234225   2.121   2.719  13.398  1.1554 -0.3843 -1.2522
 3344TIP3   OH234226   1.066   5.659  12.918  0.6619 -0.6141 -0.2817
 3344TIP3    H134227   1.121   5.728  12.954  0.0927  0.3450 -1.1752
 3344TIP3    H234228   1.053   5.685  12.826 -0.6144 -1.2294 -0.2939
 3345TIP3   OH234229   1.804   4.828  12.113  0.5000 -0.1548  0.1247
 3345TIP3    H134230   1.843   4.810  12.198 -1.0500 -0.8820  0.7274
 3345TIP3    H234231   1.733   4.764  12.105 -0.1831  0.7171 -1.1554
 3346TIP3   OH234232   4.367   1.913  11.857  0.2274 -1.0402  0.1655
 3346TIP3    H134233   4.397   1.875  11.940 -0.7038 -2.7385 -0.2231
 3346TIP3    H234234   4.416   1.864  11.791 -0.7439 -1.3260 -0.3462
 3347TIP3   OH234235   0.824   2.297  13.789 -0.0436 -0.2354 -0.1337
 3347TIP3    H134236   0.909   2.275  13.750 -0.2555 -1.6447  0.1718
 3347TIP3    H234237   0.839   2.383  13.829  1.3160 -0.5721  0.1449
 3348TIP3   OH234238   2.714   6.547  13.674  0.5605  0.5238  0.8227
 3348TIP3    H134239   2.650   6.479  13.695  2.9311 -1.6176  1.7341
 3348TIP3    H234240   2.686   6.582  13.589 -0.8074 -1.5682  0.3458
 3349TIP3   OH234241   6.543   1.419  11.639 -0.0394 -0.0081 -0.0124
 3349TIP3    H134242   6.573   1.381  11.556  0.4469 -1.3154  0.7226
 3349TIP3    H234243   6.470   1.475  11.614 -0.2030 -0.7293 -1.2877
 3350TIP3   OH234244   1.503   7.383  11.051 -0.2063  0.2312  0.1034
 3350TIP3    H134245   1.466   7.471  11.061  0.8255  0.7258 -0.3674
 3350TIP3    H234246   1.574   7.379  11.115  0.1944 -0.0106 -0.3506
 3351TIP3   OH234247   0.088   3.156  13.275 -0.3971 -0.0437  0.8642
 3351TIP3    H134248   0.133   3.241  13.274  2.0324 -1.2137  1.8433
 3351TIP3    H234249   0.047   3.152  13.361 -2.0410  0.8050  0.1663
 3352TIP3   OH234250   1.721   1.523  11.964 -0.1123 -0.2259  0.2492
 3352TIP3    H134251   1.798   1.534  12.020  0.5965  0.7880 -0.8757
 3352TIP3    H234252   1.740   1.444  11.913 -0.5789 -0.9198  1.1259
 3353TIP3   OH234253   4.344   5.823  12.948  0.3465 -0.5162  0.0746
 3353TIP3    H134254   4.334   5.836  12.854  1.4998 -3.1674 -0.5013
 3353TIP3    H234255   4.424   5.771  12.957  0.1022 -0.6093  2.5115
 3354TIP3   OH234256   6.785   5.880  13.052 -0.0584  0.5543  0.0680
 3354TIP3    H134257   6.746   5.833  12.978 -0.4834  1.4657 -0.2938
 3354TIP3    H234258   6.752   5.969  13.044  0.0030  0.7000  1.2819
 3355TIP3   OH234259   7.341   0.602  13.070  0.3498  0.2595  1.0990
 3355TIP3    H134260   7.341   0.697  13.079 -0.1135  0.5371 -1.1946
 3355TIP3    H234261   7.253   0.574  13.096  0.1125  0.5983  0.6598
 3356TIP3   OH234262   1.204   0.593  12.411 -0.6449  0.2980  0.6618
 3356TIP3    H134263   1.241   0.563  12.494 -0.6811 -0.6849  0.3370
 3356TIP3    H234264   1.276   0.639  12.368  0.0931 -1.1972  0.2371
 3357TIP3   OH234265   1.513   1.854  13.238 -0.2281  0.0263  0.5747
 3357TIP3    H134266   1.497   1.766  13.273  1.6285 -0.2279  0.8510
 3357TIP3    H234267   1.597   1.847  13.193 -0.7943  1.2880 -0.7672
 3358TIP3   OH234268   4.307   4.502  11.998  0.2898 -0.1925  0.0830
 3358TIP3    H134269   4.297   4.516  12.092 -0.0960  1.5267 -0.1773
 3358TIP3    H234270   4.393   4.462  11.989  0.2130 -0.6422  1.1797
 3359TIP3   OH234271   5.887   6.662  12.197 -0.1787 -0.5219 -0.0143
 3359TIP3    H134272   5.831   6.740  12.203 -0.3093 -0.7103  1.7877
 3359TIP3    H234273   5.829   6.590  12.223  0.5387 -0.9091  0.5226
 3360TIP3   OH234274   7.583   1.567  11.675 -0.5308 -0.4637 -0.3819
 3360TIP3    H134275   7.594   1.479  11.710 -0.0995 -0.6393 -0.9367
 3360TIP3    H234276   7.488   1.578  11.665 -0.5517 -1.1476 -1.0034
 3361TIP3   OH234277   2.530   2.982  12.493 -0.8670 -0.0430  0.2675
 3361TIP3    H134278   2.581   2.995  12.413 -0.3932  1.0554  0.7275
 3361TIP3    H234279   2.490   3.068  12.509  2.0776  0.9538  3.2718
 3362TIP3   OH234280   3.435   5.455  11.755  0.1522 -0.4090  0.4047
 3362TIP3    H134281   3.512   5.452  11.812 -1.1859 -0.7663  2.3007
 3362TIP3    H234282   3.392   5.538  11.776 -0.8702 -0.9757  0.6376
 3363TIP3   OH234283   7.033   4.327  12.123  0.4541 -0.8089 -0.3592
 3363TIP3    H134284   6.993   4.275  12.053  0.7501 -3.1081  1.0475
 3363TIP3    H234285   7.116   4.357  12.086 -1.4218  2.1470 -2.5515
 3364TIP3   OH234286   7.133   6.521  12.138  0.7068  0.2936 -0.2085
 3364TIP3    H134287   7.087   6.602  12.162  1.1989  0.8284 -0.9864
 3364TIP3    H234288   7.099   6.501  12.050  0.9392 -0.0771 -0.2119
 3365TIP3   OH234289   3.449   6.035  11.017 -0.2404 -0.3556 -0.0727
 3365TIP3    H134290   3.543   6.037  11.036 -0.1837 -1.2577 -0.2059
 3365TIP3    H234291   3.424   6.127  11.012  0.2576 -0.0671  1.8099
 3366TIP3   OH234292   5.578   3.767  13.376 -0.4668  0.2765 -0.2115
 3366TIP3    H134293   5.538   3.805  13.454 -1.2816  2.3293 -1.5324
 3366TIP3    H234294   5.505   3.757  13.315  0.6244  1.9496 -1.8869
 3367TIP3   OH234295   1.695   4.812  13.871  0.6315 -0.2250  0.5186
 3367TIP3    H134296   1.742   4.798  13.789  0.8963 -0.0613  0.6402
 3367TIP3    H234297   1.750   4.874  13.920  0.0477  0.3605  0.4570
 3368TIP3   OH234298   6.296   6.591  10.461  0.1420 -0.4584 -0.2461
 3368TIP3    H134299   6.285   6.636  10.378 -1.8748 -1.6761 -0.6978
 3368TIP3    H234300   6.318   6.501  10.437 -0.9089 -0.9353  0.5015
 3369TIP3   OH234301   4.314   0.864  11.788  0.1027  0.0694  0.4504
 3369TIP3    H134302   4.343   0.803  11.855  3.8185  0.5248 -0.5173
 3369TIP3    H234303   4.372   0.848  11.714 -2.4571  1.0127 -1.9656
 3370TIP3   OH234304   5.110   5.989  11.320 -0.4093  0.0181 -0.4688
 3370TIP3    H134305   5.075   5.908  11.284 -0.9453 -0.0464  0.1726
 3370TIP3    H234306   5.169   5.960  11.390 -0.5058  0.1816 -0.3207
 3371TIP3   OH234307   4.636   5.416  13.725  0.0861 -0.0485  0.2629
 3371TIP3    H134308   4.704   5.374  13.778  1.4074  1.1349 -0.4300
 3371TIP3    H234309   4.654   5.510  13.733 -1.4493  0.2947  0.0007
 3372TIP3   OH234310   6.284   7.584  12.124  0.1048  0.0167 -0.3182
 3372TIP3    H134311   6.331   7.657  12.166  0.2463  1.1155 -2.2426
 3372TIP3    H234312   6.324   7.505  12.160  0.8415  0.9107  0.8798
 3373TIP3   OH234313   1.789   2.945  11.743  0.2091 -0.4718 -0.1749
 3373TIP3    H134314   1.847   2.990  11.804 -1.0847  1.8299 -0.5411
 3373TIP3    H234315   1.843   2.933  11.664  1.3714 -2.0039  0.7808
 3374TIP3   OH234316   5.225   6.009  13.402  0.1070  0.4170  0.6416
 3374TIP3    H134317   5.175   5.929  13.415 -0.1111  0.3111 -0.7363
 3374TIP3    H234318   5.159   6.079  13.400 -0.0527  0.2533 -1.3993
 3375TIP3   OH234319   0.349   0.041  12.730 -0.1901  0.1826 -0.2176
 3375TIP3    H134320   0.345   0.000  12.816 -0.5031  3.1737  1.3357
 3375TIP3    H234321   0.393   0.125  12.746 -0.7741  1.0771 -2.8703
 3376TIP3   OH234322   7.005   0.162  12.503 -0.0521 -0.0688  0.0138
 3376TIP3    H134323   7.072   0.183  12.569 -0.6225  0.0800  0.5590
 3376TIP3    H234324   6.986   0.070  12.518 -0.0261 -0.0904 -0.0887
 3377TIP3   OH234325   7.501   3.004  10.888  0.4323  0.1133  0.4064
 3377TIP3    H134326   7.538   2.964  10.967  0.2293  1.1179  1.0381
 3377TIP3    H234327   7.407   2.983  10.893 -0.1060  2.3810  1.9151
 3378TIP3   OH234328   0.838   2.811  13.331  0.6514  0.2530 -0.0443
 3378TIP3    H134329   0.910   2.760  13.367  1.2837  1.5225  0.5653
 3378TIP3    H234330   0.789   2.842  13.408 -1.0519 -1.2300 -0.4540
 3379TIP3   OH234331   5.310   3.668  12.247  0.5991 -0.3128  0.3506
 3379TIP3    H134332   5.255   3.646  12.172  0.6777 -0.0792  0.2232
 3379TIP3    H234333   5.332   3.584  12.286 -1.2409 -0.3772  1.4115
 3380TIP3   OH234334   3.325   5.037  11.551  0.4754  0.9785  0.6554
 3380TIP3    H134335   3.401   5.036  11.609  0.9225 -2.2934  0.2151
 3380TIP3    H234336   3.297   4.946  11.546 -1.0976  1.4864 -2.2848
 3381TIP3   OH234337   5.290   5.317  12.153  0.2325  0.3319 -0.1398
 3381TIP3    H134338   5.222   5.290  12.092  1.5710 -0.2328 -1.4347
 3381TIP3    H234339   5.295   5.412  12.142 -0.1129  0.3352 -0.2875
 3382TIP3   OH234340   1.607   5.986  13.568 -0.1669  0.0103 -0.4198
 3382TIP3    H134341   1.511   5.990  13.571 -0.1178  2.9395  0.6635
 3382TIP3    H234342   1.629   5.988  13.475 -1.1590  0.4944 -0.6564
 3383TIP3   OH234343   4.941   1.447  12.692 -0.1359  0.2945 -0.3300
 3383TIP3    H134344   4.990   1.502  12.631  0.2242 -0.1714 -0.4699
 3383TIP3    H234345   4.896   1.384  12.636 -0.2853  0.2414 -0.1503
 3384TIP3   OH234346   0.106   2.267  11.088 -0.0126  0.1475  0.0629
 3384TIP3    H134347   0.061   2.280  11.004 -0.8017  0.1270  0.4673
 3384TIP3    H234348   0.196   2.294  11.072  0.1874 -1.1345 -1.1624
 3385TIP3   OH234349   4.307   2.882  12.437  0.0418 -0.0173  0.0365
 3385TIP3    H134350   4.281   2.838  12.356  1.1024 -0.6994  0.0536
 3385TIP3    H234351   4.340   2.812  12.493  1.3467  0.7267  0.2288
 3386TIP3   OH234352   6.515   5.544  12.247 -0.5439  0.0623 -0.4889
 3386TIP3    H134353   6.548   5.619  12.297 -1.4086  0.0636  0.0983
 3386TIP3    H234354   6.572   5.472  12.270 -0.0317  0.4099 -0.6485
 3387TIP3   OH234355   5.590   1.563  10.908  0.1362 -0.1337  0.1231
 3387TIP3    H134356   5.555   1.500  10.846  1.1641 -0.8830  0.2678
 3387TIP3    H234357   5.656   1.514  10.957  2.1022  1.4211 -0.7968
 3388TIP3   OH234358   3.691   0.752  12.068 -0.0595 -0.0505  0.3459
 3388TIP3    H134359   3.737   0.831  12.039 -0.3960  0.3159  0.7881
 3388TIP3    H234360   3.714   0.743  12.161  0.8616 -1.1053  0.0427
 3389TIP3   OH234361   6.584   2.782  12.452  0.0846 -0.0604  0.4130
 3389TIP3    H134362   6.524   2.733  12.395  0.9169 -1.0057  0.3308
 3389TIP3    H234363   6.613   2.856  12.398  0.8803 -0.9559 -0.4325
 3390TIP3   OH234364   5.434   5.834  10.685 -0.4496 -0.1503 -0.6680
 3390TIP3    H134365   5.363   5.843  10.622 -1.0414 -0.3566 -0.0337
 3390TIP3    H234366   5.399   5.868  10.767 -0.0881 -0.9585 -0.1641
 3391TIP3   OH234367   6.453   2.618  12.826 -0.3697 -0.0799 -0.3487
 3391TIP3    H134368   6.548   2.620  12.835 -0.5300 -0.2938  2.4686
 3391TIP3    H234369   6.428   2.710  12.826 -0.1627 -0.0193 -1.2644
 3392TIP3   OH234370   7.253   1.254  10.931  0.4519  0.1408 -0.0564
 3392TIP3    H134371   7.194   1.187  10.896  1.0242  0.2591 -1.2714
 3392TIP3    H234372   7.199   1.301  10.995 -0.9162  0.5321 -1.4320
 3393TIP3   OH234373   4.538   2.149  12.530  0.1004  0.4749 -0.0256
 3393TIP3    H134374   4.534   2.122  12.622  1.2346 -0.3352 -0.1926
 3393TIP3    H234375   4.597   2.086  12.489 -0.4742  0.7599 -1.3466
 3394TIP3   OH234376   5.491   1.934  13.203 -0.2208 -0.4169  0.1654
 3394TIP3    H134377   5.433   2.007  13.183  0.1131 -0.1359  0.2122
 3394TIP3    H234378   5.546   1.966  13.275 -0.4096 -0.8896  0.5266
 3395TIP3   OH234379   3.758   5.799  12.585 -0.3372  0.0696 -0.5069
 3395TIP3    H134380   3.762   5.735  12.657  0.3268  0.3505 -0.2856
 3395TIP3    H234381   3.665   5.822  12.579 -0.1632  1.8933  1.9476
 3396TIP3   OH234382   7.679   5.279  13.314  0.0206 -0.0247 -0.0575
 3396TIP3    H134383   7.614   5.211  13.297 -0.6575  0.5502  0.2220
 3396TIP3    H234384   7.692   5.321  13.229 -0.4724  0.2946  0.0220
 3397TIP3   OH234385   5.072   5.301  11.534 -0.0336 -0.5183 -0.1474
 3397TIP3    H134386   5.118   5.228  11.494 -2.0524 -1.0080 -1.7177
 3397TIP3    H234387   5.040   5.266  11.617 -1.0763 -1.5119 -0.9321
 3398TIP3   OH234388   1.949   0.692  12.539 -0.3218  1.3256  1.0009
 3398TIP3    H134389   2.013   0.679  12.609 -0.8459 -1.7866  1.0485
 3398TIP3    H234390   1.864   0.688  12.582 -0.6474 -0.5161  0.3113
 3399TIP3   OH234391   2.756   6.986  11.760  0.4414  0.3987  0.4580
 3399TIP3    H134392   2.664   7.013  11.757  0.4346  0.3687  0.4120
 3399TIP3    H234393   2.757   6.898  11.724  0.6620  0.8459 -0.6730
 3400TIP3   OH234394   2.628   5.900  13.611 -0.2867 -0.6136  0.0039
 3400TIP3    H134395   2.563   5.831  13.594 -0.3952 -0.4325 -0.3308
 3400TIP3    H234396   2.675   5.909  13.528 -1.1637  0.6439 -0.3669
 3401TIP3   OH234397   0.257   2.005  12.537 -0.5548  0.0053 -0.4547
 3401TIP3    H134398   0.215   2.085  12.568 -0.1970  0.0466 -0.0629
 3401TIP3    H234399   0.187   1.940  12.535 -0.8023  0.2749 -0.5758
 3402TIP3   OH234400   3.956   6.725  13.526 -0.3524  0.5234 -0.2309
 3402TIP3    H134401   3.989   6.812  13.550  0.1770  0.9322 -2.2836
 3402TIP3    H234402   3.971   6.719  13.432 -2.0774 -1.0682 -0.4561
 3403TIP3   OH234403   7.376   3.262  10.925 -0.2175  0.8171  0.2411
 3403TIP3    H134404   7.288   3.225  10.921 -0.7621  2.1550 -0.7075
 3403TIP3    H234405   7.432   3.192  10.890 -0.5768 -0.7838  2.6052
 3404TIP3   OH234406   0.562   7.304  13.493  0.3120 -0.2971  0.2728
 3404TIP3    H134407   0.619   7.274  13.563  0.4609  0.0192  0.2874
 3404TIP3    H234408   0.480   7.326  13.537  0.0220 -1.1705  0.1931
 3405TIP3   OH234409   3.231   2.955  12.745 -0.1219 -0.4206 -0.4917
 3405TIP3    H134410   3.264   3.035  12.785 -0.7668 -0.7406  0.7415
 3405TIP3    H234411   3.243   2.968  12.651  2.2046  0.0300 -0.1918
 3406TIP3   OH234412   4.062   3.462  11.381  0.3746  0.1015 -0.3009
 3406TIP3    H134413   4.150   3.487  11.355  1.2957  0.3879  2.7144
 3406TIP3    H234414   4.004   3.514  11.325  2.1340  1.2912 -1.0829
 3407TIP3   OH234415   5.122   6.553  13.442 -0.4307  0.3238  0.0400
 3407TIP3    H134416   5.165   6.594  13.517  0.0090 -0.2346  0.1034
 3407TIP3    H234417   5.030   6.546  13.468  0.0249 -1.6597  1.3866
 3408TIP3   OH234418   2.218   0.852  13.202  0.0578  0.0606  0.4582
 3408TIP3    H134419   2.157   0.779  13.188 -0.3637  0.3184  0.9301
 3408TIP3    H234420   2.224   0.861  13.297  1.5317 -0.5318  0.4397
 3409TIP3   OH234421   4.929   2.711  12.957  0.1299  0.0369  0.2758
 3409TIP3    H134422   4.934   2.625  12.915 -0.0368 -0.2073  0.7414
 3409TIP3    H234423   4.923   2.773  12.885  0.1305 -0.3518 -0.0634
 3410TIP3   OH234424   3.471   7.533  13.407  0.7785  0.2044  0.3457
 3410TIP3    H134425   3.466   7.437  13.401 -0.8423  0.2891 -0.2903
 3410TIP3    H234426   3.561   7.554  13.381  0.8459 -1.0855 -0.6171
 3411TIP3   OH234427   3.456   5.742  11.218 -0.1146 -0.2741  0.0131
 3411TIP3    H134428   3.447   5.649  11.238  0.4760 -0.3235  0.0700
 3411TIP3    H234429   3.474   5.744  11.124  1.7965 -0.3507  0.3551
 3412TIP3   OH234430   2.765   7.240  13.140 -0.7038  0.1284  0.1207
 3412TIP3    H134431   2.755   7.334  13.151  0.6006  0.3322 -0.2075
 3412TIP3    H234432   2.859   7.225  13.150 -0.7641 -1.0005 -0.7921
 3413TIP3   OH234433   1.252   7.472  12.979 -0.3801 -0.2494  0.0541
 3413TIP3    H134434   1.176   7.489  13.034 -0.5665 -2.2343  0.4885
 3413TIP3    H234435   1.228   7.396  12.927  1.0714 -0.5263 -0.2623
 3414TIP3   OH234436   0.454   5.397  13.122 -0.6622 -0.0141  0.6311
 3414TIP3    H134437   0.465   5.421  13.214  1.1201  0.6024  0.2859
 3414TIP3    H234438   0.432   5.479  13.079  1.6031  0.3347  0.0513
 3415TIP3   OH234439   6.996   0.819  12.071  0.1877  0.6168 -0.2467
 3415TIP3    H134440   7.058   0.855  12.134 -0.8265  1.2693  0.4022
 3415TIP3    H234441   6.995   0.882  11.999  0.6611  0.3386 -0.4996
 3416TIP3   OH234442   4.919   4.854  11.278 -0.0811  0.4732 -0.5335
 3416TIP3    H134443   4.889   4.833  11.190  2.8671  0.2788 -1.5671
 3416TIP3    H234444   4.889   4.945  11.292 -1.7087  0.0664 -1.1405
 3417TIP3   OH234445   0.898   4.923  13.672 -0.4865 -0.6831  0.0452
 3417TIP3    H134446   0.821   4.914  13.616 -0.7092 -0.4825  0.3224
 3417TIP3    H234447   0.907   4.838  13.715 -0.7210 -0.6096  0.2349
 3418TIP3   OH234448   4.813   1.966  11.850  0.5980 -0.2927 -0.4023
 3418TIP3    H134449   4.832   1.874  11.831  1.8005 -0.1954  0.2525
 3418TIP3    H234450   4.898   2.009  11.845  0.2458  0.5402  0.6145
 3419TIP3   OH234451   0.281   5.106  11.727 -0.7042  0.0445 -0.2657
 3419TIP3    H134452   0.368   5.080  11.696 -0.6651 -0.5405  0.3145
 3419TIP3    H234453   0.233   5.023  11.735 -0.6213  0.1175  1.4802
 3420TIP3   OH234454   0.537   1.417  11.740 -0.1913 -0.4085 -0.0380
 3420TIP3    H134455   0.507   1.364  11.666 -0.2188  0.1481 -0.4350
 3420TIP3    H234456   0.457   1.453  11.777 -0.0763  0.9164 -0.9768
 3421TIP3   OH234457   0.248   0.033  11.551 -0.0445 -0.5316  0.1884
 3421TIP3    H134458   0.195   0.113  11.551 -0.0033 -0.3911  3.0111
 3421TIP3    H234459   0.185  -0.038  11.551 -0.3069 -0.3736  2.2390
 3422TIP3   OH234460   5.087   3.964  13.148 -0.5275 -0.1841  0.3152
 3422TIP3    H134461   5.054   4.017  13.076  1.7849  0.1533 -0.5778
 3422TIP3    H234462   5.093   4.025  13.222  0.7825  0.4938 -0.3185
 3423TIP3   OH234463   2.436   5.310  13.416  0.6576  0.0546 -0.2004
 3423TIP3    H134464   2.394   5.275  13.494  0.7721 -0.1455 -0.2284
 3423TIP3    H234465   2.488   5.238  13.382 -0.2214 -0.1861 -1.0667
 3424TIP3   OH234466   3.520   6.211  12.728 -0.1163 -0.4657  0.4482
 3424TIP3    H134467   3.538   6.301  12.701 -0.8179 -0.1938  0.8589
 3424TIP3    H234468   3.606   6.170  12.734  0.1389 -1.0027 -3.5856
 3425TIP3   OH234469   6.838   3.959  12.363 -0.1563  0.3181  0.1881
 3425TIP3    H134470   6.781   3.927  12.293  0.6070 -1.4148  0.2954
 3425TIP3    H234471   6.924   3.969  12.321 -0.0999  1.0321  0.4675
 3426TIP3   OH234472   0.943   7.285  13.439 -0.1826 -0.0259  0.4619
 3426TIP3    H134473   1.021   7.327  13.403 -1.1617  0.4523 -1.1969
 3426TIP3    H234474   0.890   7.358  13.471 -1.8072  0.1260 -2.2574
 3427TIP3   OH234475   3.696   3.101  11.141 -0.6050  0.0000 -0.0217
 3427TIP3    H134476   3.791   3.097  11.151 -0.6269  0.5782  0.5797
 3427TIP3    H234477   3.667   3.152  11.217 -1.3673  0.0562 -0.3412
 3428TIP3   OH234478   7.479   4.590  13.219 -0.2259 -0.1447  0.1389
 3428TIP3    H134479   7.540   4.535  13.269 -1.7830 -0.9684  1.2377
 3428TIP3    H234480   7.471   4.546  13.135  1.0378  0.2479 -0.2156
 3429TIP3   OH234481   6.324   1.794  11.524 -0.2145 -0.1336 -0.0036
 3429TIP3    H134482   6.245   1.833  11.486  1.3201  4.5122  0.8544
 3429TIP3    H234483   6.376   1.769  11.448 -0.4784  1.5736 -0.8100
 3430TIP3   OH234484   0.322   4.731  10.786 -0.0523 -0.1344  0.0156
 3430TIP3    H134485   0.272   4.803  10.824  1.1282  0.3130  0.7831
 3430TIP3    H234486   0.267   4.653  10.801 -1.7276  0.6773 -1.5799
 3431TIP3   OH234487   2.296   1.294  12.562  0.2549  0.3572  0.0449
 3431TIP3    H134488   2.234   1.231  12.600 -1.9617  2.0861 -0.4597
 3431TIP3    H234489   2.364   1.239  12.522 -2.1856 -1.8289 -1.4816
 3432TIP3   OH234490   1.853   7.202  12.724 -0.9332  0.9202  0.0201
 3432TIP3    H134491   1.845   7.139  12.652 -0.0380  0.8874 -0.0686
 3432TIP3    H234492   1.766   7.205  12.763 -0.8520 -0.8961  0.4507
 3433TIP3   OH234493   6.409   7.384  12.522  0.4753 -0.3426  0.0453
 3433TIP3    H134494   6.505   7.384  12.531  0.7162 -1.7440 -1.7401
 3433TIP3    H234495   6.395   7.390  12.427 -1.2805  1.4178  0.3573
 3434TIP3   OH234496   7.413   7.388  10.750  0.2002 -0.1442 -0.2208
 3434TIP3    H134497   7.442   7.479  10.755  0.7006 -0.3272  0.1612
 3434TIP3    H234498   7.402   7.372  10.656  0.0634  0.3188 -0.2884
 3435TIP3   OH234499   6.177   2.351  12.448  0.0628 -0.1476  0.1105
 3435TIP3    H134500   6.156   2.258  12.435  1.8719 -0.5316 -0.4185
 3435TIP3    H234501   6.271   2.356  12.432 -0.3003  2.1350 -1.9249
 3436TIP3   OH234502   1.753   5.814  11.537 -0.2252 -0.0026  0.1749
 3436TIP3    H134503   1.677   5.772  11.578 -0.9505  0.8426 -0.2458
 3436TIP3    H234504   1.721   5.901  11.513  0.6056  0.0197 -0.8895
 3437TIP3   OH234505   4.956   4.926  11.914 -0.4883 -0.4151 -0.2339
 3437TIP3    H134506   4.984   4.867  11.844  0.4026 -2.7213  1.9105
 3437TIP3    H234507   4.865   4.903  11.930 -1.7608  2.3298 -2.6042
 3438TIP3   OH234508   5.805   3.732  10.856 -0.2032  0.5581 -0.1702
 3438TIP3    H134509   5.871   3.796  10.830  0.0080  0.0355 -0.9683
 3438TIP3    H234510   5.727   3.784  10.876  0.0275  1.0745 -0.6093
 3439TIP3   OH234511   4.925   6.487  11.239  0.7240 -0.2487 -0.5516
 3439TIP3    H134512   4.981   6.443  11.176 -0.6568 -2.2095 -0.5024
 3439TIP3    H234513   4.837   6.481  11.202  0.3493  1.6566 -0.0595
 3440TIP3   OH234514   5.741   1.289  11.804  0.5740 -0.3508 -0.3322
 3440TIP3    H134515   5.828   1.299  11.843  1.4940 -1.0447 -2.0921
 3440TIP3    H234516   5.738   1.355  11.735  0.2482 -1.2100 -1.1634
 3441TIP3   OH234517   7.450   4.897  12.007  0.1117  0.9029  0.4990
 3441TIP3    H134518   7.517   4.906  12.075 -1.0320  0.1491  1.7851
 3441TIP3    H234519   7.467   4.969  11.947  2.7836  0.0848  0.1215
 3442TIP3   OH234520   2.098   4.861  12.371 -0.0884  0.6370  0.4657
 3442TIP3    H134521   2.098   4.956  12.383  2.1451  0.7050  0.2875
 3442TIP3    H234522   2.179   4.843  12.325 -0.9824 -1.2795 -0.4651
 3443TIP3   OH234523   4.365   4.391  10.939  0.5458 -0.2614 -0.1151
 3443TIP3    H134524   4.272   4.402  10.921  0.3725 -0.6067  0.5533
 3443TIP3    H234525   4.373   4.301  10.971  0.5090  0.8531  3.4592
 3444TIP3   OH234526   3.018   4.012  11.837 -0.3607 -0.5583 -0.2282
 3444TIP3    H134527   2.983   3.992  11.924 -0.2660 -1.3229 -0.3608
 3444TIP3    H234528   2.955   3.972  11.777  0.6322 -1.7991 -0.4703
 3445TIP3   OH234529   7.358   5.031  12.785 -0.4365 -0.3100  0.2136
 3445TIP3    H134530   7.365   4.980  12.866 -1.1002  0.3633  0.7103
 3445TIP3    H234531   7.278   5.083  12.796  1.7510  3.1394  1.0439
 3446TIP3   OH234532   1.908   7.153  13.144  0.1159 -0.4943  0.0396
 3446TIP3    H134533   1.966   7.189  13.077  0.2137 -1.2347 -0.2785
 3446TIP3    H234534   1.820   7.160  13.106 -0.2238  1.8804  1.0497
 3447TIP3   OH234535   7.573   3.236  12.235  0.8438  0.1576  0.1612
 3447TIP3    H134536   7.537   3.198  12.155  2.4458 -1.7024  0.2592
 3447TIP3    H234537   7.552   3.172  12.303 -0.9778  1.9589  1.4273
 3448TIP3   OH234538   5.158   4.144  13.352 -0.4312 -0.0389  0.4789
 3448TIP3    H134539   5.108   4.203  13.408 -0.0530  0.3487  0.4186
 3448TIP3    H234540   5.215   4.203  13.301  0.1020 -0.4709  0.5680
 3449TIP3   OH234541   2.337   2.759  11.371 -0.1058 -0.0074  0.4347
 3449TIP3    H134542   2.373   2.732  11.286  2.4025  1.3440  0.9910
 3449TIP3    H234543   2.272   2.826  11.349  0.0781 -0.1055 -0.4512
 3450TIP3   OH234544   4.380   7.238  13.483 -0.5709  0.6932 -0.2890
 3450TIP3    H134545   4.295   7.214  13.446 -0.0368 -1.1941 -0.3956
 3450TIP3    H234546   4.374   7.333  13.496 -1.4628  1.2183 -3.4773
 3451TIP3   OH234547   4.065   4.645  13.198 -0.5442  0.6507  0.0166
 3451TIP3    H134548   4.094   4.557  13.224  1.3917  0.9439 -0.9360
 3451TIP3    H234549   3.978   4.632  13.160  0.0397 -0.9977 -0.8394
 3452TIP3   OH234550   2.701   7.304  12.297 -0.0513  0.0895 -0.9538
 3452TIP3    H134551   2.617   7.275  12.261 -0.4426 -1.9004  1.2593
 3452TIP3    H234552   2.764   7.237  12.270  0.7468  1.2878 -2.1531
 3453TIP3   OH234553   2.390   0.363  11.290 -0.2511  0.0628  0.1840
 3453TIP3    H134554   2.304   0.323  11.279 -0.3843  0.5036 -0.4300
 3453TIP3    H234555   2.434   0.350  11.206 -1.4852  3.9682 -1.3133
 3454TIP3   OH234556   1.832   3.228  12.079  0.3906 -0.2576  0.0099
 3454TIP3    H134557   1.752   3.207  12.030  0.4448  0.0274 -0.2075
 3454TIP3    H234558   1.840   3.323  12.071  0.3840 -0.2034  0.6036
 3455TIP3   OH234559   5.527   5.964  11.874  0.3877 -0.0288 -0.2759
 3455TIP3    H134560   5.523   5.933  11.964 -3.5313 -0.3860 -0.4052
 3455TIP3    H234561   5.535   5.885  11.821  0.0116 -0.0343 -0.3243
 3456TIP3   OH234562   6.516   7.081  12.424 -0.4240 -0.0286 -0.3247
 3456TIP3    H134563   6.540   7.069  12.332  1.0614 -2.2664  0.2751
 3456TIP3    H234564   6.431   7.123  12.421  0.6419  2.2340 -2.6814
 3457TIP3   OH234565   0.432   7.060  11.740  0.3352 -0.1924  0.0194
 3457TIP3    H134566   0.368   7.059  11.669 -0.6746 -1.0388  0.9118
 3457TIP3    H234567   0.487   6.983  11.724  0.3433 -0.1720 -0.0530
 3458TIP3   OH234568   4.511   0.893  12.708  0.4180  0.1172 -0.2754
 3458TIP3    H134569   4.420   0.886  12.736  0.0512  1.8132 -0.9062
 3458TIP3    H234570   4.522   0.826  12.641 -0.3371 -0.1434 -0.1445
 3459TIP3   OH234571   1.120   5.058  13.057  0.1735 -0.6373 -0.7371
 3459TIP3    H134572   1.192   5.120  13.068  0.6010 -1.2080 -0.2661
 3459TIP3    H234573   1.131   5.024  12.968  0.1473 -0.3073 -0.8680
 3460TIP3   OH234574   6.195   2.769  12.780  0.0684 -0.2532  0.2141
 3460TIP3    H134575   6.209   2.801  12.870  0.7102 -2.0634  0.8040
 3460TIP3    H234576   6.100   2.761  12.772  0.0328 -0.6777  0.9672
 3461TIP3   OH234577   7.365   3.536  11.304 -0.3350 -0.1107  0.4138
 3461TIP3    H134578   7.349   3.547  11.210 -0.7747  0.6755  0.5709
 3461TIP3    H234579   7.460   3.537  11.312 -0.3033  0.8847  0.0851
 3462TIP3   OH234580   2.943   4.467  11.700 -0.3953 -0.0563  0.2715
 3462TIP3    H134581   2.947   4.383  11.655 -1.2148 -0.1460  0.3479
 3462TIP3    H234582   3.028   4.476  11.743  0.3233 -0.0728 -1.0899
 3463TIP3   OH234583   4.946   2.719  12.558  0.4035  0.4913  0.1388
 3463TIP3    H134584   4.922   2.784  12.624  0.3399 -0.6060  1.2477
 3463TIP3    H234585   4.985   2.647  12.609  0.2535 -0.4282 -1.0050
 3464TIP3   OH234586   7.150   0.926  11.176 -0.3607 -0.1591 -0.4650
 3464TIP3    H134587   7.206   0.867  11.126  0.5766 -1.1139  1.5503
 3464TIP3    H234588   7.171   0.906  11.268 -2.5470  0.9170  0.3380
 3465TIP3   OH234589   0.801   3.353  11.184 -0.1360 -0.3682 -0.3496
 3465TIP3    H134590   0.717   3.350  11.139  0.2625 -1.2638 -1.0438
 3465TIP3    H234591   0.787   3.304  11.265 -1.0256  1.7459  0.8742
 3466TIP3   OH234592   5.985   2.090  12.875  0.0018  0.4106 -0.4575
 3466TIP3    H134593   6.067   2.046  12.854 -0.1107  0.7094 -1.6088
 3466TIP3    H234594   5.936   2.028  12.928  0.9536  0.2165  0.2164
 3467TIP3   OH234595   2.267   2.304  12.504 -0.6004 -0.4116  0.7150
 3467TIP3    H134596   2.322   2.247  12.451 -1.7710 -1.4826  0.6041
 3467TIP3    H234597   2.230   2.367  12.442 -1.0969 -0.9647  0.4471
 3468TIP3   OH234598   1.248   6.952  13.177 -0.2964  0.0305 -0.5451
 3468TIP3    H134599   1.158   6.918  13.169 -0.1881 -0.4370  0.0951
 3468TIP3    H234600   1.295   6.883  13.225  0.2029  0.6193 -0.1752
 3469TIP3   OH234601   5.485   4.053  11.690  0.2606 -0.1976  0.2937
 3469TIP3    H134602   5.502   4.061  11.596 -0.2900 -1.5294  0.0553
 3469TIP3    H234603   5.523   4.132  11.728 -0.7842  1.0939 -1.2024
 3470TIP3   OH234604   4.291   4.501  11.232  0.2097 -0.1685  0.0615
 3470TIP3    H134605   4.355   4.571  11.241 -0.6851  0.6430  0.2253
 3470TIP3    H234606   4.294   4.477  11.139  0.5802  0.0174  0.0227
 3471TIP3   OH234607   3.204   4.746  12.687 -0.3202  0.1032 -0.5241
 3471TIP3    H134608   3.248   4.673  12.730 -0.7134  1.0216  1.5299
 3471TIP3    H234609   3.272   4.786  12.632  1.0742  0.6608  1.5053
 3472TIP3   OH234610   3.951   5.010  11.956 -0.2127  0.6215  0.0985
 3472TIP3    H134611   3.976   4.964  11.875  1.0584  2.2848 -0.5154
 3472TIP3    H234612   3.999   4.964  12.025 -1.4799 -0.9522 -0.0201
 3473TIP3   OH234613   3.573   7.041  13.516  0.7315 -0.1321  0.6373
 3473TIP3    H134614   3.562   6.980  13.443 -0.1589  1.4676 -0.6332
 3473TIP3    H234615   3.557   6.988  13.594  1.1687 -1.7711 -0.3304
 3474TIP3   OH234616   7.554   7.399  11.249 -0.0738 -0.1568  0.3618
 3474TIP3    H134617   7.567   7.372  11.158 -1.4336  0.1724  0.0364
 3474TIP3    H234618   7.577   7.491  11.251 -0.7555  0.0303  0.1503
 3475TIP3   OH234619   1.356   1.925  11.055 -0.2852 -0.1755 -0.1476
 3475TIP3    H134620   1.277   1.946  11.005  0.2095 -0.0775 -0.9210
 3475TIP3    H234621   1.339   1.838  11.092 -0.8173 -0.0826 -0.1682
 3476TIP3   OH234622   1.322   4.753  11.611  0.0827  0.0791  0.0299
 3476TIP3    H134623   1.357   4.749  11.700  0.9124 -1.7142 -0.3220
 3476TIP3    H234624   1.228   4.741  11.622  0.4195 -2.7245  0.5725
 3477TIP3   OH234625   4.620   2.399  13.120  0.2163  0.3747 -0.4809
 3477TIP3    H134626   4.607   2.493  13.128 -0.9641  0.3092 -1.3534
 3477TIP3    H234627   4.579   2.362  13.198  0.1915  0.5384 -0.4157
 3478TIP3   OH234628   0.505   2.392  13.397 -0.2086  0.2113 -0.1461
 3478TIP3    H134629   0.439   2.360  13.335  0.1791  1.5696 -1.2898
 3478TIP3    H234630   0.472   2.364  13.483  0.2114 -3.4347 -1.0071
 3479TIP3   OH234631   4.576   5.283  11.554 -0.5632 -0.0983 -0.1851
 3479TIP3    H134632   4.622   5.339  11.492 -1.4007  0.1660 -0.5840
 3479TIP3    H234633   4.488   5.320  11.560 -1.1452 -1.3573 -0.4572
 3480TIP3   OH234634   0.899   3.254  13.397  0.1491  0.2254  0.4559
 3480TIP3    H134635   0.941   3.171  13.416  2.0503  1.4935  2.2379
 3480TIP3    H234636   0.896   3.300  13.481 -1.4073  1.7269 -0.3516
 3481TIP3   OH234637   7.673   0.304  13.236  0.3203  0.0414 -0.8268
 3481TIP3    H134638   7.698   0.221  13.195 -0.0167 -0.2678 -0.4101
 3481TIP3    H234639   7.745   0.324  13.295 -1.6763 -2.5200  2.9027
 3482TIP3   OH234640   2.228   5.773  12.045  0.0753  0.9349  0.3338
 3482TIP3    H134641   2.254   5.865  12.051 -0.4099  1.1582 -0.9177
 3482TIP3    H234642   2.224   5.755  11.952 -0.4254 -0.2019  0.5653
 3483TIP3   OH234643   3.205   4.392  11.727  0.5830 -0.1692  0.4457
 3483TIP3    H134644   3.204   4.297  11.741  0.4261 -0.0562  1.2328
 3483TIP3    H234645   3.203   4.402  11.632 -0.1048 -0.9436  0.3704
 3484TIP3   OH234646   1.201   3.158  11.892 -0.0970 -0.8077 -0.1384
 3484TIP3    H134647   1.121   3.209  11.879 -0.8729 -1.6539  1.0736
 3484TIP3    H234648   1.254   3.211  11.951 -0.8399 -1.2711  1.0008
 3485TIP3   OH234649   5.520   3.458  12.768  0.7516 -0.5618 -0.5530
 3485TIP3    H134650   5.484   3.507  12.695  2.1033 -0.6603 -1.3165
 3485TIP3    H234651   5.530   3.523  12.838 -0.0934 -0.3645 -0.6042
 3486TIP3   OH234652   7.469   3.088  13.139  0.5313 -0.1526  0.1752
 3486TIP3    H134653   7.536   3.058  13.201  0.5213  0.2056  0.3633
 3486TIP3    H234654   7.397   3.027  13.150  0.8653 -0.5974 -0.0948
 3487TIP3   OH234655   2.469   3.769  12.253  0.0234 -0.5781 -0.1845
 3487TIP3    H134656   2.481   3.677  12.232 -1.5915 -0.8177 -0.1727
 3487TIP3    H234657   2.501   3.778  12.343  2.1819 -0.6355 -0.8890
 3488TIP3   OH234658   0.777   5.059  11.861 -0.3265  0.0749  0.1810
 3488TIP3    H134659   0.709   5.050  11.928 -0.4400  1.7272  0.3247
 3488TIP3    H234660   0.767   5.149  11.828  1.0116 -0.0483 -0.6525
 3489TIP3   OH234661   1.006   7.304  12.044 -0.2346 -0.7555 -0.0676
 3489TIP3    H134662   0.956   7.303  12.126 -0.3363 -0.8314 -0.1300
 3489TIP3    H234663   0.995   7.394  12.011  0.0209 -0.6491  0.1323
 3490TIP3   OH234664   5.611   1.487  13.431 -0.5550  0.6236  1.0512
 3490TIP3    H134665   5.662   1.529  13.361 -1.3202  1.9641  1.2519
 3490TIP3    H234666   5.528   1.535  13.431 -2.4336 -2.3575 -0.2163
 3491TIP3   OH234667   4.901   2.852  11.038  0.0644 -0.3437 -0.1230
 3491TIP3    H134668   4.911   2.922  10.973  1.6695  0.7315  1.1759
 3491TIP3    H234669   4.917   2.772  10.989 -0.5859  0.2769 -1.4074
 3492TIP3   OH234670   2.992   2.060  12.041 -0.3976 -0.2998 -0.4071
 3492TIP3    H134671   2.987   2.093  11.951 -0.9243 -0.8795 -0.5968
 3492TIP3    H234672   3.059   1.992  12.038 -0.8842 -0.7795 -0.5129
 3493TIP3   OH234673   3.496   5.301  12.048  0.2670  0.0554 -0.3433
 3493TIP3    H134674   3.577   5.342  12.019  0.9057 -1.7372 -1.1548
 3493TIP3    H234675   3.502   5.210  12.021 -0.9941 -0.7092  1.6502
 3494TIP3   OH234676   3.186   5.921  12.041  0.6300 -0.0681 -0.2492
 3494TIP3    H134677   3.123   5.985  12.073 -0.2463 -1.2133  0.4002
 3494TIP3    H234678   3.199   5.943  11.949 -0.5490  0.3300 -0.3278
 3495TIP3   OH234679   2.385   0.308  12.240  0.1212 -0.2748  0.5671
 3495TIP3    H134680   2.380   0.395  12.200  1.0131 -0.0740  0.8670
 3495TIP3    H234681   2.306   0.263  12.210  1.3343 -0.5895 -2.4777
 3496TIP3   OH234682   0.676   4.654  11.030  0.3419 -0.1212 -0.0496
 3496TIP3    H134683   0.686   4.746  11.006 -0.3896 -0.3908 -1.5462
 3496TIP3    H234684   0.644   4.612  10.950 -2.6239 -1.0672  1.4709
 3497TIP3   OH234685   3.836   1.093  12.866  0.0344  0.0733 -0.2229
 3497TIP3    H134686   3.752   1.072  12.906  0.2392 -0.9610 -0.2887
 3497TIP3    H234687   3.901   1.056  12.926  0.4302  0.5131 -0.3720
 3498TIP3   OH234688   5.014   2.797  12.267  0.2120  0.0833 -0.1201
 3498TIP3    H134689   4.957   2.773  12.340  0.0393  0.8053 -0.0096
 3498TIP3    H234690   5.021   2.717  12.215  0.2330 -0.4070  0.6132
 3499TIP3   OH234691   4.243   3.972  11.872  0.1246  0.0693 -0.3419
 3499TIP3    H134692   4.302   3.910  11.828  0.2700  0.8922 -1.3483
 3499TIP3    H234693   4.294   4.053  11.877 -0.6260  0.5547 -0.4617
 3500TIP3   OH234694   0.112   7.504  13.764  0.1989  0.1718 -0.3835
 3500TIP3    H134695   0.032   7.482  13.717  0.7342 -1.3135 -0.6340
 3500TIP3    H234696   0.105   7.460  13.848  0.1139  1.2422  0.1948
 3501TIP3   OH234697   5.536   6.667  11.667  0.2054 -0.9935 -0.0454
 3501TIP3    H134698   5.482   6.588  11.657 -0.8206 -0.2931 -0.0977
 3501TIP3    H234699   5.503   6.727  11.601  3.3313 -1.7429 -2.5255
 3502TIP3   OH234700   1.134   2.808  11.354  0.1071 -0.1781  0.3311
 3502TIP3    H134701   1.147   2.829  11.447 -0.4350  1.4785  0.0626
 3502TIP3    H234702   1.074   2.875  11.323 -1.5189 -2.0105 -0.7127
 3503TIP3   OH234703   0.689   0.167  11.623 -0.4476 -0.1191 -0.1886
 3503TIP3    H134704   0.631   0.226  11.671  1.9243  1.4989  0.8955
 3503TIP3    H234705   0.695   0.205  11.535 -0.9811 -0.2974 -0.3076
 3504TIP3   OH234706   7.644   3.941  12.701  0.4588 -0.0361  0.1698
 3504TIP3    H134707   7.582   4.010  12.726 -0.4689 -0.8885  0.3102
 3504TIP3    H234708   7.680   3.910  12.784 -0.0458 -0.5319  0.2147
 3505TIP3   OH234709   0.649   4.322  13.515  0.2296  0.0918  0.5377
 3505TIP3    H134710   0.576   4.334  13.453  0.3154  0.3520  0.4863
 3505TIP3    H234711   0.691   4.241  13.486  1.3806  1.1396 -0.8827
 3506TIP3   OH234712   1.610   5.888  12.794 -0.4534  1.1814  0.1875
 3506TIP3    H134713   1.668   5.915  12.723 -1.6264  0.8204 -0.9498
 3506TIP3    H234714   1.619   5.956  12.860  0.5769  1.5877 -0.3474
 3507TIP3   OH234715   6.636   0.347  12.717  0.1988  0.6028 -0.3055
 3507TIP3    H134716   6.677   0.299  12.646 -1.3497 -0.1055 -0.7622
 3507TIP3    H234717   6.708   0.367  12.777  1.2253 -0.4110 -1.1532
 3508TIP3   OH234718   6.443   4.599  12.218  0.1803 -0.1422 -0.1943
 3508TIP3    H134719   6.408   4.582  12.130 -0.6782 -0.9788  0.2876
 3508TIP3    H234720   6.527   4.553  12.219  0.7065  0.7574 -0.9117
 3509TIP3   OH234721   0.640   5.934  11.309  0.6202  0.4125  0.1264
 3509TIP3    H134722   0.730   5.924  11.279  0.9856  0.1150  1.2966
 3509TIP3    H234723   0.643   5.918  11.403 -0.8177 -0.5496  0.0436
 3510TIP3   OH234724   5.098   4.360  11.608  0.0012 -0.8406  0.4022
 3510TIP3    H134725   5.088   4.430  11.673  1.2865  0.5783 -0.8531
 3510TIP3    H234726   5.187   4.370  11.575 -1.3905  0.4123 -3.6408
 3511TIP3   OH234727   6.066   5.042  12.939 -0.0390  0.1877  0.3245
 3511TIP3    H134728   6.006   5.001  13.001 -0.6397 -1.8651 -1.4848
 3511TIP3    H234729   6.140   5.070  12.993 -0.9855 -0.5532  2.0995
 3512TIP3   OH234730   4.460   7.442  11.916  0.0253  0.1888  0.7114
 3512TIP3    H134731   4.401   7.393  11.973  0.3640  0.2164  1.0817
 3512TIP3    H234732   4.419   7.529  11.908 -0.2511  0.0450  0.5504
 3513TIP3   OH234733   1.455   3.195  12.809 -0.3645  0.5350 -0.3537
 3513TIP3    H134734   1.432   3.234  12.725  0.2693 -0.7775 -1.1796
 3513TIP3    H234735   1.437   3.263  12.873  0.2591  2.0030 -1.6693
 3514TIP3   OH234736   5.803   5.659  12.485 -0.2319 -0.1683  0.1495
 3514TIP3    H134737   5.746   5.614  12.547 -1.0136  2.6547  1.6308
 3514TIP3    H234738   5.884   5.674  12.534  0.0443 -0.0266 -0.3457
 3515TIP3   OH234739   2.283   4.314  13.126 -0.5740  0.5830  0.2203
 3515TIP3    H134740   2.301   4.286  13.036  0.3079  0.3187  0.4718
 3515TIP3    H234741   2.189   4.303  13.136 -0.4906 -0.7282 -0.2269
 3516TIP3   OH234742   6.182   5.178  12.554 -0.0946  0.8914 -0.0024
 3516TIP3    H134743   6.132   5.123  12.493  1.2227  1.4083 -1.6523
 3516TIP3    H234744   6.245   5.118  12.594 -1.4940  0.3846  1.5364
 3517TIP3   OH234745   2.484   3.757  11.738  0.5964  0.1618 -0.9279
 3517TIP3    H134746   2.506   3.816  11.810  0.8033  0.1221 -0.9592
 3517TIP3    H234747   2.514   3.802  11.659  2.6412 -0.8725 -0.8029
 3518TIP3   OH234748   6.565   2.509  10.915 -0.0036 -0.1608  0.2065
 3518TIP3    H134749   6.647   2.464  10.897  0.7015  0.7670  1.0109
 3518TIP3    H234750   6.552   2.498  11.010  0.0154  1.0196  0.3602
 3519TIP3   OH234751   6.784   5.046  12.051 -0.4817  0.0602  0.2826
 3519TIP3    H134752   6.875   5.031  12.027 -0.9144 -0.8517 -0.8696
 3519TIP3    H234753   6.766   5.136  12.025 -0.1017  0.0205 -0.1216
 3520TIP3   OH234754   5.091   0.498  11.914 -0.4350  0.7108 -0.4990
 3520TIP3    H134755   5.058   0.416  11.877 -1.9941  1.5684 -1.0986
 3520TIP3    H234756   5.185   0.483  11.924 -0.6769 -1.1559 -0.5470
 3521TIP3   OH234757   1.660   6.350  13.945 -0.2271 -0.8266  0.7096
 3521TIP3    H134758   1.703   6.305  13.873  0.8378  0.7622  0.3042
 3521TIP3    H234759   1.654   6.283  14.014  3.0453 -1.1710  0.8448
 3522TIP3   OH234760   5.102   7.260  11.922  0.0246 -0.3456  0.1641
 3522TIP3    H134761   5.175   7.251  11.983  1.1197  1.0631 -0.8701
 3522TIP3    H234762   5.095   7.175  11.879  0.0281 -0.9689  1.3694
 3523TIP3   OH234763   5.827   7.131  12.344  0.3799  0.1647  0.5673
 3523TIP3    H134764   5.821   7.217  12.303  1.5157  0.1021  0.2375
 3523TIP3    H234765   5.919   7.120  12.365 -0.0976  0.0184  2.8260
 3524TIP3   OH234766   2.754   2.341  11.752  0.2737  0.3091 -0.0003
 3524TIP3    H134767   2.680   2.383  11.795 -2.4916 -0.8284 -3.2706
 3524TIP3    H234768   2.779   2.401  11.682  0.6485 -0.5463 -0.6117
 3525TIP3   OH234769   7.554   4.350  11.762 -0.4288  0.6613  0.1283
 3525TIP3    H134770   7.632   4.402  11.747  1.6533 -2.2341  0.1071
 3525TIP3    H234771   7.482   4.403  11.726  1.5455  3.1686 -0.3755
 3526TIP3   OH234772   5.529   7.308  11.444  0.4482 -0.0660  0.1065
 3526TIP3    H134773   5.612   7.280  11.405  0.5100 -0.6975  0.6768
 3526TIP3    H234774   5.535   7.404  11.446  1.2393 -0.1124  0.3138
 3527TIP3   OH234775   0.064   0.715  12.189  0.2945  0.1544  0.4778
 3527TIP3    H134776  -0.014   0.670  12.156  1.5008 -1.5028 -0.3015
 3527TIP3    H234777   0.031   0.781  12.249 -1.7499  0.1250 -0.5410
 3528TIP3   OH234778   4.844   6.032  13.838  0.3163 -0.0552 -0.2354
 3528TIP3    H134779   4.888   5.957  13.798 -0.8352 -0.0103 -1.6569
 3528TIP3    H234780   4.767   5.995  13.880 -1.2314  0.4550 -2.4420
 3529TIP3   OH234781   5.095   2.191  12.124  0.3769  0.3202 -0.3543
 3529TIP3    H134782   5.173   2.244  12.111  0.2834  1.0670  1.6987
 3529TIP3    H234783   5.047   2.236  12.194 -0.5923 -1.5269  0.2413
 3530TIP3   OH234784   5.323   4.547  12.249 -0.3148  0.0069  0.2101
 3530TIP3    H134785   5.281   4.621  12.205 -1.5163 -1.5449 -1.3677
 3530TIP3    H234786   5.253   4.485  12.266  1.0587 -2.0523 -1.1816
 3531TIP3   OH234787   7.142   7.129  13.156  0.2480  0.1872  0.3154
 3531TIP3    H134788   7.156   7.108  13.248  1.2966 -1.1332 -0.1090
 3531TIP3    H234789   7.049   7.115  13.142  0.2022 -0.2600  1.0115
 3532TIP3   OH234790   5.850   0.894  12.394  0.3148 -0.0751  0.1631
 3532TIP3    H134791   5.942   0.917  12.381 -0.2078  1.6945 -0.7343
 3532TIP3    H234792   5.808   0.977  12.415 -1.2874 -0.6190 -0.7371
 3533TIP3   OH234793   2.674   6.532  12.652  0.4882  0.4948  0.3639
 3533TIP3    H134794   2.635   6.607  12.607  0.2595  0.0459 -0.2150
 3533TIP3    H234795   2.619   6.519  12.729  1.4714  1.8886  1.3353
 3534TIP3   OH234796   6.916   6.201  11.637 -0.2073  0.6200 -0.1274
 3534TIP3    H134797   6.836   6.224  11.684 -0.6420  0.0664 -0.5799
 3534TIP3    H234798   6.926   6.270  11.571 -0.8515  0.1760 -0.7017
 3535TIP3   OH234799   5.685   6.880  12.775  0.1438 -0.4252 -0.0657
 3535TIP3    H134800   5.693   6.963  12.821 -2.3959  0.0093 -0.2298
 3535TIP3    H234801   5.689   6.904  12.682 -2.2952 -0.1637 -0.1604
 3536TIP3   OH234802   6.969   2.786  10.736  0.0887  0.1966 -0.3132
 3536TIP3    H134803   6.968   2.810  10.829 -0.3067  0.0633 -0.2806
 3536TIP3    H234804   7.012   2.859  10.692 -1.6583  1.2605 -0.2975
 3537TIP3   OH234805   6.097   5.834  13.162 -0.6270  0.3878 -0.8048
 3537TIP3    H134806   6.013   5.876  13.143 -0.4439  0.8385 -0.6110
 3537TIP3    H234807   6.136   5.888  13.230 -1.0133 -0.8870  0.4806
 3538TIP3   OH234808   3.438   7.135  11.226 -0.1362  0.3380 -0.8748
 3538TIP3    H134809   3.508   7.075  11.200 -1.1854 -1.6529  0.6151
 3538TIP3    H234810   3.475   7.222  11.212  3.3323 -0.5588  1.4125
 3539TIP3   OH234811   1.978   6.873  14.000  0.0312 -0.6819  0.1967
 3539TIP3    H134812   1.983   6.783  14.035 -0.3948 -0.4784  0.8096
 3539TIP3    H234813   1.895   6.876  13.953 -0.5916 -0.2408  1.2901
 3540TIP3   OH234814   1.855   5.611  11.926 -0.5697  0.7696 -0.3219
 3540TIP3    H134815   1.839   5.529  11.879  0.0080  0.2093  0.4497
 3540TIP3    H234816   1.906   5.664  11.864  2.2490 -0.8461  0.4407
 3541TIP3   OH234817   5.055   7.649  12.582 -0.0069 -0.2581 -0.4947
 3541TIP3    H134818   5.019   7.569  12.545  0.4544 -0.2592 -0.9575
 3541TIP3    H234819   5.053   7.712  12.510  3.2084 -0.9558 -1.3746
 3542TIP3   OH234820   1.469   0.735  11.734  0.3779 -0.4150 -0.1359
 3542TIP3    H134821   1.382   0.753  11.769  0.9439  1.9063  0.2205
 3542TIP3    H234822   1.510   0.678  11.800 -0.4041 -0.4259  0.3510
 3543TIP3   OH234823   5.777   0.729  11.988 -0.2278  0.5292  0.2777
 3543TIP3    H134824   5.827   0.810  11.977  0.5829  0.0676  0.4489
 3543TIP3    H234825   5.844   0.662  12.006 -1.0035  0.1147  1.7455
 3544TIP3   OH234826   3.485   4.155  12.886  0.0775 -0.0261 -0.2208
 3544TIP3    H134827   3.546   4.081  12.887 -2.2405 -2.1547 -2.2268
 3544TIP3    H234828   3.523   4.216  12.823  0.6459 -0.8392 -0.6847
 3545TIP3   OH234829   5.905   5.341  11.771  0.5494  0.1800 -0.0031
 3545TIP3    H134830   5.850   5.419  11.774 -1.0044 -0.9058  1.1167
 3545TIP3    H234831   5.952   5.342  11.854  2.0689  0.9519 -0.8376
 3546TIP3   OH234832   1.536   3.863  12.410 -0.0144  0.0948 -0.0187
 3546TIP3    H134833   1.608   3.878  12.471 -0.4059  0.4958  0.3553
 3546TIP3    H234834   1.492   3.948  12.403 -1.3626 -0.4843  0.9664
 3547TIP3   OH234835   0.601   1.822  12.081 -0.5151  0.3041  0.8048
 3547TIP3    H134836   0.692   1.854  12.079  0.0791 -1.3128 -0.0553
 3547TIP3    H234837   0.593   1.778  12.166 -0.1274 -0.4639  0.4602
 3548TIP3   OH234838   4.179   5.178  11.834  0.4031 -0.4644  0.3641
 3548TIP3    H134839   4.096   5.182  11.880 -0.9131 -0.6561 -1.8338
 3548TIP3    H234840   4.211   5.268  11.833 -0.3808 -0.1867  0.2039
 3549TIP3   OH234841   7.240   0.117  11.901 -0.1612  0.3509  0.0511
 3549TIP3    H134842   7.302   0.048  11.878 -0.7913  0.2910 -1.6472
 3549TIP3    H234843   7.219   0.101  11.993  0.9468 -0.7183  0.1475
 3550TIP3   OH234844   7.579   7.236  11.615  0.7030 -0.0517 -0.6896
 3550TIP3    H134845   7.549   7.178  11.545 -0.2478  0.7712 -0.9809
 3550TIP3    H234846   7.648   7.288  11.576 -0.2191  0.8113 -1.2162
 3551TIP3   OH234847   1.300   5.011  11.956  0.3599  0.5534 -0.1992
 3551TIP3    H134848   1.300   5.079  12.023  0.5525  1.4965 -1.1213
 3551TIP3    H234849   1.222   5.030  11.903  1.2936  1.0651 -1.4358
 3552TIP3   OH234850   7.217   4.438  13.082 -0.0359 -0.5507 -0.6183
 3552TIP3    H134851   7.214   4.487  12.999 -0.4210  0.2638 -0.1359
 3552TIP3    H234852   7.134   4.459  13.125  0.3105 -0.6879  0.1315
 3553TIP3   OH234853   6.536   5.777  11.975  0.1956  0.0173 -0.0402
 3553TIP3    H134854   6.446   5.807  11.960  0.5299  0.6064 -0.9753
 3553TIP3    H234855   6.528   5.683  11.993 -0.6859  0.2414  0.8482
 3554TIP3   OH234856   1.049   4.270  12.004 -0.6081  0.1196  0.1896
 3554TIP3    H134857   1.114   4.339  12.014 -2.1022  1.6362 -0.2023
 3554TIP3    H234858   1.094   4.203  11.952  0.4230  1.4401 -0.7020
 3555TIP3   OH234859   6.271   1.752  12.200 -0.1335  0.5912 -0.0141
 3555TIP3    H134860   6.209   1.767  12.129  1.2932  2.0219 -1.0284
 3555TIP3    H234861   6.352   1.726  12.156  0.2282 -0.4892  1.2312
 3556TIP3   OH234862   2.383   0.837  12.199 -0.3049  0.0058 -0.2330
 3556TIP3    H134863   2.334   0.859  12.278 -0.4031  1.2642 -0.6121
 3556TIP3    H234864   2.324   0.779  12.150 -0.1728 -0.9166  0.6737
 3557TIP3   OH234865   5.849   1.652  13.470  0.3553  0.1219  0.0305
 3557TIP3    H134866   5.829   1.641  13.377  2.8480 -0.8783 -0.4577
 3557TIP3    H234867   5.889   1.739  13.476  1.1874 -0.2444 -0.0533
 3558TIP3   OH234868   1.649   0.616  11.962 -0.0512  0.5563  0.2820
 3558TIP3    H134869   1.736   0.653  11.947  0.5133 -0.8812 -0.1001
 3558TIP3    H234870   1.655   0.525  11.933 -1.6281  0.3643  0.4414
 3559TIP3   OH234871   3.839   3.359  11.855 -0.2048 -0.1290 -0.0356
 3559TIP3    H134872   3.902   3.354  11.927  0.5732  1.7137 -0.5156
 3559TIP3    H234873   3.758   3.391  11.896  0.1295  0.5679  0.1068
 3560TIP3   OH234874   1.875   1.259  12.936 -0.2470 -0.1499 -0.2840
 3560TIP3    H134875   1.914   1.174  12.956 -0.3656 -0.2831 -0.6220
 3560TIP3    H234876   1.948   1.311  12.903  0.0679  0.2425  0.9712
 3561TIP3   OH234877   2.470   1.207  11.136  0.5768 -0.1664  0.1928
 3561TIP3    H134878   2.464   1.165  11.050 -1.1602  0.6254 -0.1014
 3561TIP3    H234879   2.564   1.209  11.154  0.8395 -2.4786 -0.6040
 3562TIP3   OH234880   0.463   5.626  11.697 -0.1116 -0.0998  0.1571
 3562TIP3    H134881   0.417   5.586  11.772  0.7232 -0.4820  0.4757
 3562TIP3    H234882   0.413   5.706  11.679 -1.0837 -0.6516  0.2972
 3563TIP3   OH234883   2.662   4.562  13.222 -0.2282 -0.3385  0.4304
 3563TIP3    H134884   2.694   4.639  13.175 -2.1630  0.2944  0.0607
 3563TIP3    H234885   2.659   4.493  13.156  1.2978 -0.7133  0.7117
 3564TIP3   OH234886   4.640   5.528  11.448 -0.0671 -0.1073 -0.0753
 3564TIP3    H134887   4.696   5.593  11.405 -2.5764  1.1564 -1.6981
 3564TIP3    H234888   4.551   5.551  11.421 -1.3202 -2.7099  1.3919
 3565TIP3   OH234889   3.210   6.604  13.098 -0.3295  0.6047 -0.3446
 3565TIP3    H134890   3.151   6.553  13.153  0.7797  0.2572  0.5517
 3565TIP3    H234891   3.198   6.568  13.010 -3.0012  1.9562 -0.6276
 3566TIP3   OH234892   3.175   5.923  12.901 -0.0289 -0.4969 -1.0579
 3566TIP3    H134893   3.139   6.007  12.930  0.4919 -0.8704  0.7698
 3566TIP3    H234894   3.098   5.870  12.879 -0.5560 -0.6363  0.9665
 3567TIP3   OH234895   4.961   1.343  11.522  0.2622  0.1238 -0.7074
 3567TIP3    H134896   5.045   1.363  11.481  0.8568 -0.6374  0.1258
 3567TIP3    H234897   4.937   1.257  11.488  0.7770 -0.5303  0.5266
 3568TIP3   OH234898   6.982   0.054  11.818  0.4971  0.1942  0.5116
 3568TIP3    H134899   6.938   0.129  11.778  2.1000  0.3968 -0.9796
 3568TIP3    H234900   7.063   0.090  11.853  1.3184 -0.8540 -0.2754
 3569TIP3   OH234901   3.406   2.249  12.637 -0.3828  0.4292 -0.8640
 3569TIP3    H134902   3.416   2.319  12.701  0.9145 -0.5953  0.1076
 3569TIP3    H234903   3.314   2.223  12.644 -0.4910  0.9989 -0.1166
 3570TIP3   OH234904   3.978   0.453  11.159 -0.1031  0.5256 -0.0316
 3570TIP3    H134905   4.038   0.446  11.084 -0.5700 -1.6834 -0.2533
 3570TIP3    H234906   4.031   0.428  11.235 -0.5805 -0.9719 -0.1672
 3571TIP3   OH234907   4.233   5.815  13.523  0.0574 -0.1447 -0.3365
 3571TIP3    H134908   4.317   5.855  13.543 -1.0809  1.3686  1.8002
 3571TIP3    H234909   4.255   5.738  13.470  2.6659  0.7757 -0.7185
 3572TIP3   OH234910   6.782   5.234  12.948 -0.1286  0.2795 -0.4642
 3572TIP3    H134911   6.717   5.237  13.017 -1.2181  1.6336 -1.4977
 3572TIP3    H234912   6.776   5.145  12.913 -1.2525  0.3045 -0.3663
 3573TIP3   OH234913   2.615   4.614  12.723  0.4825  0.4055 -0.4452
 3573TIP3    H134914   2.594   4.620  12.629 -0.8280  0.9556 -0.1408
 3573TIP3    H234915   2.641   4.523  12.736 -1.1715 -0.1836 -1.0122
 3574TIP3   OH234916   2.731   2.802  12.548 -0.4960 -0.0014  0.5098
 3574TIP3    H134917   2.677   2.881  12.543  0.7936  0.8901 -0.1370
 3574TIP3    H234918   2.814   2.833  12.585 -0.3344 -1.2751  1.2480
 3575TIP3   OH234919   4.275   1.330  12.951  0.1943 -0.1451 -0.7345
 3575TIP3    H134920   4.196   1.287  12.919 -3.0476  1.8443  3.4860
 3575TIP3    H234921   4.271   1.418  12.915 -0.5944  0.5031  0.8605
 3576TIP3   OH234922   4.941   1.889  12.528  0.1286 -0.0117  0.4614
 3576TIP3    H134923   4.967   1.826  12.461 -3.0162  0.5217 -1.4555
 3576TIP3    H234924   4.978   1.972  12.497 -0.0276 -0.0288  0.2282
 3577TIP3   OH234925   2.244   0.816  11.812 -0.4901  0.0368  0.4091
 3577TIP3    H134926   2.257   0.901  11.855  2.2496  0.0842 -0.3509
 3577TIP3    H234927   2.261   0.833  11.720 -4.8436 -0.3881 -0.6987
 3578TIP3   OH234928   5.245   5.216  12.427  0.5107 -0.0025  0.1694
 3578TIP3    H134929   5.239   5.268  12.507 -0.3519  0.6985 -0.3384
 3578TIP3    H234930   5.250   5.280  12.356 -4.1602 -0.3624 -0.8117
 3579TIP3   OH234931   3.220   5.405  11.225  0.3067 -0.1318 -0.0226
 3579TIP3    H134932   3.187   5.340  11.287 -0.5609 -1.3894 -1.7140
 3579TIP3    H234933   3.301   5.366  11.191  0.8185  0.5834  0.3649
 3580TIP3   OH234934   7.071   1.231  12.349 -0.1523 -0.6010 -0.1318
 3580TIP3    H134935   6.982   1.195  12.355 -0.2377 -0.5855 -1.1010
 3580TIP3    H234936   7.059   1.326  12.353 -0.1137 -0.6109  0.3422
 3581TIP3   OH234937   1.729   1.083  11.507 -0.3515  0.2550 -0.4423
 3581TIP3    H134938   1.726   1.151  11.440  2.8495 -0.3423 -1.3633
 3581TIP3    H234939   1.810   1.100  11.555 -1.1075 -1.0417  1.4111
 3582TIP3   OH234940   4.789   2.273  11.334 -0.1153  0.6572  0.4636
 3582TIP3    H134941   4.785   2.295  11.427 -0.7302  0.1952  0.5519
 3582TIP3    H234942   4.698   2.276  11.304  0.0506  0.5474 -0.0640
 3583TIP3   OH234943   4.502   3.655  12.575  0.3852  0.0641  0.4980
 3583TIP3    H134944   4.473   3.706  12.651 -1.3420  0.0160 -0.0750
 3583TIP3    H234945   4.561   3.714  12.528 -1.4822  1.5982 -0.0949
 3584TIP3   OH234946   7.600   3.603  13.054 -0.1916 -0.0459  0.3980
 3584TIP3    H134947   7.592   3.587  13.148 -1.0275  1.9285  0.7087
 3584TIP3    H234948   7.579   3.518  13.014  0.9830 -1.1412  1.9716
 3585TIP3   OH234949   1.333   6.435  12.368  0.2459 -0.2563  0.4840
 3585TIP3    H134950   1.397   6.371  12.400 -0.1512 -1.1055 -0.3697
 3585TIP3    H234951   1.382   6.517  12.364  1.0424 -0.7107  0.6529
 3586TIP3   OH234952   2.018   4.049  11.472 -0.2283 -0.0287 -0.1890
 3586TIP3    H134953   1.963   4.040  11.550 -1.3428 -3.8056 -1.1590
 3586TIP3    H234954   1.967   4.007  11.402  1.9940  0.4651 -2.2596
 3587TIP3   OH234955   6.510   5.447  13.183 -0.2391 -0.1207 -0.5545
 3587TIP3    H134956   6.534   5.497  13.262 -0.6793 -0.8449  0.0506
 3587TIP3    H234957   6.415   5.452  13.180 -0.2708 -0.7079 -0.6318
 3588TIP3   OH234958   4.770   1.058  12.804 -0.4397 -0.5580 -0.4154
 3588TIP3    H134959   4.683   1.086  12.778 -0.4605  0.1250  0.3424
 3588TIP3    H234960   4.755   1.003  12.881 -0.2872 -1.5110 -1.0476
 3589TIP3   OH234961   6.568   1.896  11.348 -0.2470  0.3128 -0.2222
 3589TIP3    H134962   6.603   1.819  11.394  0.5068  0.4291 -0.5886
 3589TIP3    H234963   6.645   1.938  11.309 -0.8717  0.1050 -1.7552
 3590TIP3   OH234964   1.898   0.627  13.471  0.0451 -0.5458  0.4231
 3590TIP3    H134965   1.989   0.607  13.450  0.2669  0.1951  0.6359
 3590TIP3    H234966   1.892   0.723  13.463  0.0502 -0.2271  3.3808
 3591TIP3   OH234967   3.698   3.873  13.073  0.2861 -0.5481  0.2453
 3591TIP3    H134968   3.671   3.903  12.987 -2.7851 -1.9656  0.5995
 3591TIP3    H234969   3.719   3.953  13.121  0.2232  0.3891 -1.2257
 3592TIP3   OH234970   2.729   0.850  11.153 -0.1323 -0.3123  0.1494
 3592TIP3    H134971   2.786   0.856  11.230 -1.4584 -0.0617  1.1578
 3592TIP3    H234972   2.723   0.756  11.135 -0.6106 -0.4488  0.9837
 3593TIP3   OH234973   3.377   2.114  12.381  0.1332 -0.2053  0.0239
 3593TIP3    H134974   3.422   2.158  12.309  0.2672  0.1429  0.3214
 3593TIP3    H234975   3.401   2.163  12.459 -1.0292  0.1979  0.1495
 3594TIP3   OH234976   0.566   4.289  13.097  0.2775 -0.4018 -0.0214
 3594TIP3    H134977   0.522   4.307  13.180 -0.6563  0.2951 -0.6362
 3594TIP3    H234978   0.499   4.246  13.043  0.2945  0.7455 -1.0060
 3595TIP3   OH234979   0.920   0.569  13.417  0.1190 -0.2924 -0.1809
 3595TIP3    H134980   0.913   0.660  13.446 -0.3390 -0.1597 -0.6892
 3595TIP3    H234981   0.845   0.556  13.358  0.7686 -0.6713 -0.9569
 3596TIP3   OH234982   5.906   2.187  12.247 -0.1838 -0.4233 -0.8664
 3596TIP3    H134983   5.981   2.146  12.290  0.4655  0.3219 -1.2584
 3596TIP3    H234984   5.938   2.274  12.222 -1.4322  0.2338 -0.2787
 3597TIP3   OH234985   5.267   1.017  11.576 -0.3722  0.0773  0.5045
 3597TIP3    H134986   5.194   1.010  11.515 -0.3033  1.0129  0.3011
 3597TIP3    H234987   5.340   1.049  11.523  1.0072 -3.2933  0.0910
 3598TIP3   OH234988   0.794   3.934  12.894  0.0353 -0.5227  0.2555
 3598TIP3    H134989   0.811   4.026  12.913 -0.1601 -0.8646  2.2459
 3598TIP3    H234990   0.700   3.923  12.909 -0.3398 -0.6590 -1.8624
 3599TIP3   OH234991   5.045   0.649  13.507 -0.2421  0.1750 -0.3998
 3599TIP3    H134992   5.013   0.700  13.432  2.1977  1.5184 -0.6342
 3599TIP3    H234993   4.975   0.657  13.573 -1.3655  1.0380 -1.6430
 3600TIP3   OH234994   3.504   2.113  12.089 -0.0397 -0.1232 -0.7174
 3600TIP3    H134995   3.548   2.178  12.143 -1.6076  0.0799  0.3741
 3600TIP3    H234996   3.420   2.153  12.066 -0.0642 -0.8516 -1.9829
 3601TIP3   OH234997   4.457   0.366  12.429 -0.0273 -0.1972 -0.0557
 3601TIP3    H134998   4.498   0.358  12.515 -1.3595  2.1006  0.8799
 3601TIP3    H234999   4.531   0.380  12.369  0.7630  1.1231  1.1642
 3602TIP3   OH235000   6.499   5.202  12.576  0.4799 -0.0212  0.3932
 3602TIP3    H135001   6.582   5.207  12.529 -0.9376 -0.0795 -2.3388
 3602TIP3    H235002   6.466   5.114  12.557 -0.9930  0.6065 -0.1186
 3603TIP3   OH235003   2.667   6.887  11.216 -0.4227  0.5855 -0.4430
 3603TIP3    H135004   2.667   6.981  11.232  0.3313  0.2361  1.9805
 3603TIP3    H235005   2.759   6.866  11.197 -0.3760  0.1807  0.2064
 3604TIP3   OH235006   5.519   2.853  11.896  0.1986 -0.4878 -0.6095
 3604TIP3    H135007   5.612   2.872  11.882 -0.1465  1.1482 -0.8766
 3604TIP3    H235008   5.487   2.927  11.947 -1.6613  0.7232 -3.3185
 3605TIP3   OH235009   0.899   6.374  12.030 -0.1900  0.5271  0.9454
 3605TIP3    H135010   0.918   6.464  12.005 -1.1912  0.4720 -0.1087
 3605TIP3    H235011   0.838   6.343  11.964  1.1140 -1.3538  0.5337
 3606TIP3   OH235012   0.108   5.523  12.446  0.2657 -0.3330  0.2563
 3606TIP3    H135013   0.107   5.601  12.391 -2.3907 -1.6143 -1.7298
 3606TIP3    H235014   0.197   5.489  12.438  1.1162  1.7833  0.1938
 3607TIP3   OH235015   6.113   1.967  11.987  0.1548  0.4865 -0.0948
 3607TIP3    H135016   6.122   2.062  11.982  1.9270  0.4150  0.7425
 3607TIP3    H235017   6.021   1.952  12.006 -0.4318  1.9527 -1.5640
 3608TIP3   OH235018   6.028   1.479  10.966 -0.0474 -0.6577 -0.4488
 3608TIP3    H135019   6.000   1.544  10.903 -0.2810  1.0079  1.2747
 3608TIP3    H235020   6.116   1.455  10.940  0.4101  1.0790 -0.6141
 3609TIP3   OH235021   7.366   2.300  11.836 -0.0594  0.2881 -0.0187
 3609TIP3    H135022   7.437   2.360  11.858 -0.8355  1.4727 -0.6639
 3609TIP3    H235023   7.408   2.231  11.785  0.7658  0.5390  0.3006
 3610TIP3   OH235024   6.140   1.256  11.534  0.0102 -0.5239 -0.2494
 3610TIP3    H135025   6.070   1.303  11.488  1.2455  1.8090  0.1356
 3610TIP3    H235026   6.194   1.325  11.573  1.8342 -2.2904  0.5061
 3611TIP3   OH235027   5.736   4.678  12.722  0.4182 -0.6782  0.1900
 3611TIP3    H135028   5.794   4.602  12.730 -0.3405 -1.1549  1.4414
 3611TIP3    H235029   5.702   4.692  12.811 -1.1180 -0.2021 -0.4471
 3612TIP3   OH235030   4.653   6.654  13.603 -0.5163  0.4352  0.2034
 3612TIP3    H135031   4.562   6.647  13.633 -0.4672 -0.3502  0.1683
 3612TIP3    H235032   4.648   6.715  13.529 -1.3236 -1.0726 -1.0389
 3613TIP3   OH235033   6.837   7.267  11.816  0.1361 -0.4706  1.1897
 3613TIP3    H135034   6.838   7.324  11.739 -3.0308  0.8933  2.0363
 3613TIP3    H235035   6.782   7.193  11.790 -2.1845  0.7039  2.5063
 3614TIP3   OH235036   2.141   2.104  13.089 -0.0405 -0.4352 -0.4799
 3614TIP3    H135037   2.212   2.156  13.051 -0.8163  0.0931 -1.2599
 3614TIP3    H235038   2.088   2.168  13.137  0.7472 -1.0450  1.2563
 3615TIP3   OH235039   7.121   5.593  11.334 -0.5872 -0.1664  0.0728
 3615TIP3    H135040   7.140   5.518  11.278 -1.4571  1.3537 -2.4333
 3615TIP3    H235041   7.205   5.637  11.346 -0.3373 -0.6962  0.2969
 3616TIP3   OH235042   0.874   6.284  12.907 -0.1148 -0.1940 -0.1207
 3616TIP3    H135043   0.789   6.307  12.944 -0.9196 -1.6261 -0.9682
 3616TIP3    H235044   0.929   6.263  12.983 -1.2247 -1.4434  0.3814
 3617TIP3   OH235045   7.406   3.967  13.062 -0.1811 -0.1114  0.5854
 3617TIP3    H135046   7.341   4.032  13.034  1.4049  0.9143 -0.9389
 3617TIP3    H235047   7.435   3.997  13.148 -0.6578  0.2532  0.6208
 3618TIP3   OH235048   5.481   3.059  13.048 -0.0369  0.1628 -0.1164
 3618TIP3    H135049   5.514   3.126  12.987  0.4023 -0.5042 -0.6201
 3618TIP3    H235050   5.394   3.037  13.015 -0.3150  0.7156  0.2394
 3619TIP3   OH235051   3.266   7.476  13.586 -0.6414 -0.5058  0.1785
 3619TIP3    H135052   3.331   7.506  13.522  1.8422 -1.8917  1.8891
 3619TIP3    H235053   3.220   7.556  13.613  0.1052  0.4762 -1.3444
 3620TIP3   OH235054   4.572   7.255  12.183 -0.3629 -0.8956  0.0943
 3620TIP3    H135055   4.623   7.263  12.102  1.0921 -0.6822  1.0030
 3620TIP3    H235056   4.546   7.345  12.204 -0.9991 -0.9855 -0.2808
 3621TIP3   OH235057   6.575   5.201  11.767 -0.7544  0.0807 -0.4942
 3621TIP3    H135058   6.615   5.244  11.843  1.6952 -2.4239 -0.1979
 3621TIP3    H235059   6.489   5.174  11.797  0.3416 -1.2859  1.6362
 3622TIP3   OH235060   3.352   5.029  12.009 -0.4839  0.0826 -0.4407
 3622TIP3    H135061   3.264   5.004  11.982 -0.2283 -0.8484 -0.4645
 3622TIP3    H235062   3.403   4.948  12.000  0.2185  0.4435  0.2035
 3623TIP3   OH235063   4.193   6.091  12.707  0.1893 -0.0473 -0.3250
 3623TIP3    H135064   4.252   6.083  12.783  0.0504 -0.2992 -0.2423
 3623TIP3    H235065   4.173   6.184  12.703  0.0504 -0.0562  0.0633
 3624TIP3   OH235066   7.314   3.764  12.080  0.2651 -0.3668  0.0262
 3624TIP3    H135067   7.283   3.824  12.012 -0.8840  0.2983  1.0942
 3624TIP3    H235068   7.386   3.716  12.039  0.9295  1.4185 -1.0217
 3625TIP3   OH235069   1.604   0.858  12.096  0.1473 -0.0983 -0.6493
 3625TIP3    H135070   1.626   0.778  12.047 -0.0852 -1.2439  1.0518
 3625TIP3    H235071   1.685   0.909  12.095  1.3865 -1.8990  1.0611
 3626TIP3   OH235072   5.563   3.634  13.002 -0.3231  0.0588  0.0996
 3626TIP3    H135073   5.604   3.549  13.018  1.4252  1.0940  1.5686
 3626TIP3    H235074   5.518   3.655  13.084 -0.7318  0.5633 -0.2446
 3627TIP3   OH235075   1.757   0.455  13.263 -0.2866 -0.0802 -0.1971
 3627TIP3    H135076   1.765   0.470  13.169  0.0553 -3.8329 -0.9252
 3627TIP3    H235077   1.841   0.484  13.299  0.8301 -1.3945 -1.5803
 3628TIP3   OH235078   1.937   2.688  12.433 -0.0997  0.0727  0.0177
 3628TIP3    H135079   1.991   2.676  12.511  1.3743  3.7102 -0.2748
 3628TIP3    H235080   1.952   2.609  12.381  2.1712 -0.6004  1.5388
 3629TIP3   OH235081   3.730   3.222  13.064 -0.2594  0.2765  0.1259
 3629TIP3    H135082   3.681   3.266  12.995  0.2501  0.9650  0.1898
 3629TIP3    H235083   3.709   3.271  13.144 -1.8172 -1.2621  0.7147
 3630TIP3   OH235084   6.119   2.241  11.957 -0.2193 -0.2209 -0.0669
 3630TIP3    H135085   6.191   2.272  12.012  0.4558 -1.3511 -0.2927
 3630TIP3    H235086   6.123   2.296  11.878 -0.0459  0.1809  0.2210
 3631TIP3   OH235087   4.789   6.749  11.601 -0.0395  0.1188 -0.3310
 3631TIP3    H135088   4.754   6.703  11.524 -0.0359 -0.5746  0.0667
 3631TIP3    H235089   4.712   6.774  11.651 -0.0242  0.0620 -0.2782
 3632TIP3   OH235090   4.306   1.947  12.589 -0.2752 -0.3334 -0.0232
 3632TIP3    H135091   4.292   1.976  12.499  1.3270 -1.3273 -0.6415
 3632TIP3    H235092   4.281   2.022  12.643 -0.5621  0.5439 -1.3260
 3633TIP3   OH235093   3.331   3.928  12.148 -0.4098  0.1292  0.2716
 3633TIP3    H135094   3.387   3.935  12.225  2.3127  0.4666 -1.6174
 3633TIP3    H235095   3.260   3.990  12.163 -0.6288 -0.6544  2.9572
 3634TIP3   OH235096   7.344   6.914  12.705  0.1309 -0.0179  0.4993
 3634TIP3    H135097   7.376   6.945  12.790 -0.4799  0.3113  0.6217
 3634TIP3    H235098   7.400   6.840  12.683  2.3755  1.8355 -0.3429
 3635TIP3   OH235099   0.721   2.123  12.407 -0.3999  0.0618 -1.1182
 3635TIP3    H135100   0.694   2.160  12.490  0.5528 -0.6223 -0.4870
 3635TIP3    H235101   0.732   2.029  12.425  0.3357 -0.0060 -1.8809
 3636TIP3   OH235102   5.987   4.521  11.457 -0.0214 -0.0078 -0.4902
 3636TIP3    H135103   5.998   4.461  11.383  0.3380 -2.0612  1.1101
 3636TIP3    H235104   6.054   4.588  11.444 -1.2570  0.8473 -3.0164
 3637TIP3   OH235105   6.939   2.310  12.212  0.0389  0.0003  0.0050
 3637TIP3    H135106   7.003   2.353  12.269  0.0475  0.9032 -0.6533
 3637TIP3    H235107   6.881   2.381  12.184 -0.6570 -0.6356 -0.1884
 3638TIP3   OH235108   4.227   6.379  11.846  0.6295  0.0448 -0.1984
 3638TIP3    H135109   4.223   6.391  11.751 -1.2012  0.0069 -0.1777
 3638TIP3    H235110   4.230   6.467  11.882  1.8315  0.0511 -0.2789
 3639TIP3   OH235111   0.103   3.600  12.542  0.9334  0.1990 -0.0141
 3639TIP3    H135112   0.125   3.508  12.527 -0.1422 -0.1136  0.2009
 3639TIP3    H235113   0.173   3.633  12.599  0.1953 -1.1041  1.7483
 3640TIP3   OH235114   0.032   0.207  11.553 -0.1099 -0.0114 -0.0846
 3640TIP3    H135115   0.024   0.233  11.461 -0.0839  0.1435 -0.0429
 3640TIP3    H235116   0.063   0.286  11.598  0.2330 -0.1922 -0.0030
 3641TIP3   OH235117   5.075   2.505  11.298 -0.8284 -0.2456  0.1866
 3641TIP3    H135118   5.089   2.466  11.211 -0.4158  0.9965 -0.3263
 3641TIP3    H235119   5.161   2.505  11.338 -0.6964  0.6868 -0.0691
 3642TIP3   OH235120   1.684   2.350  11.875  0.2005  0.6959 -0.6824
 3642TIP3    H135121   1.633   2.274  11.844 -0.6652  0.6474  0.7718
 3642TIP3    H235122   1.623   2.398  11.931  1.2506  1.5784 -0.2712
 3643TIP3   OH235123   1.449   6.898  12.780  0.3898  0.3374  0.5454
 3643TIP3    H135124   1.430   6.814  12.738  0.5228  0.4935  0.1652
 3643TIP3    H235125   1.422   6.963  12.716  2.6266  0.5717 -0.2597
 3644TIP3   OH235126   4.739   1.037  11.740 -0.5941 -0.0912 -0.1051
 3644TIP3    H135127   4.766   1.058  11.651 -1.4988 -0.9170 -0.5829
 3644TIP3    H235128   4.795   1.092  11.795 -0.7385  1.2296 -1.2081
 3645TIP3   OH235129   2.030   7.630  11.282  0.3928 -0.1197  0.5943
 3645TIP3    H135130   2.004   7.586  11.201  2.6727 -1.3793  0.4674
 3645TIP3    H235131   1.972   7.706  11.287 -1.3087 -1.2062 -1.0314
 3646TIP3   OH235132   6.228   7.078  13.266  0.0038  0.6222 -0.5312
 3646TIP3    H135133   6.209   7.040  13.351 -2.0819 -1.8918 -1.9837
 3646TIP3    H235134   6.321   7.103  13.271  0.4743 -1.2687  1.8269
 3647TIP3   OH235135   3.444   7.096  12.575  0.0694 -0.0002 -0.2975
 3647TIP3    H135136   3.471   7.169  12.519 -1.2702  0.2266 -0.6850
 3647TIP3    H235137   3.371   7.130  12.626 -0.3699 -0.9603 -0.2600
 3648TIP3   OH235138   5.094   5.053  12.109  0.1201  0.5446 -0.1994
 3648TIP3    H135139   5.033   5.023  12.042  2.4376 -0.9170 -1.8147
 3648TIP3    H235140   5.082   5.148  12.112 -1.0144  0.4788 -1.6871
 3649TIP3   OH235141   4.114   1.435  12.248 -0.7189 -0.0805 -0.1178
 3649TIP3    H135142   4.182   1.444  12.315 -1.4444 -1.5648  0.8699
 3649TIP3    H235143   4.162   1.417  12.167  0.1454  1.1747  0.0830
 3650TIP3   OH235144   4.422   3.370  11.517 -0.3556 -0.0666  0.0473
 3650TIP3    H135145   4.501   3.353  11.466  0.1398  0.5912  0.5741
 3650TIP3    H235146   4.392   3.283  11.543  0.4716 -0.3110  0.2378
 3651TIP3   OH235147   3.275   3.359  11.467 -0.4163 -0.0635  0.2838
 3651TIP3    H135148   3.240   3.405  11.390  3.4668  1.5979 -0.7445
 3651TIP3    H235149   3.280   3.427  11.534 -1.1517 -0.8176  1.1172
 3652TIP3   OH235150   6.292   2.414  12.072 -0.0963 -0.1848 -0.0927
 3652TIP3    H135151   6.372   2.383  12.116 -0.1523 -1.5497 -0.8937
 3652TIP3    H235152   6.325   2.469  12.001  0.1937 -1.2994 -0.8490
 3653TIP3   OH235153   2.929   7.138  12.788  0.3626 -0.0164  0.5357
 3653TIP3    H135154   2.949   7.221  12.831  1.2098 -0.7498  1.6435
 3653TIP3    H235155   2.900   7.162  12.700  1.7627  1.3921  0.4132
 3654TIP3   OH235156   7.623   1.844  12.851  0.3217 -0.5779  0.4497
 3654TIP3    H135157   7.682   1.904  12.897 -0.0237  0.7244 -0.7290
 3654TIP3    H235158   7.564   1.813  12.919  1.0232 -0.2202  1.2500
 3655TIP3   OH235159   2.335   4.260  11.486  0.0756 -0.2532  0.0402
 3655TIP3    H135160   2.290   4.225  11.563  1.1579  0.3468  0.9886
 3655TIP3    H235161   2.360   4.183  11.435 -0.6431 -0.6632  0.3018
 3656TIP3   OH235162   2.331   5.555  12.197 -0.1512 -0.2707  0.2699
 3656TIP3    H135163   2.263   5.615  12.166 -0.6338 -0.2222  1.3669
 3656TIP3    H235164   2.393   5.550  12.125 -1.0581  0.0808 -0.5629
 3657TIP3   OH235165   6.549   6.670  10.956 -0.1138  0.1492 -0.8645
 3657TIP3    H135166   6.620   6.725  10.923 -0.3789  0.8864 -0.2192
 3657TIP3    H235167   6.473   6.695  10.904 -0.5420  1.3425  0.2892
 3658TIP3   OH235168   5.914   1.291  12.212 -0.2607 -0.1486  0.5350
 3658TIP3    H135169   5.991   1.347  12.217  2.0296 -3.1626  2.8291
 3658TIP3    H235170   5.913   1.260  12.122 -0.1007  1.5583 -0.0879
 3659TIP3   OH235171   5.475   6.836  12.264 -0.1294  0.4084 -0.6951
 3659TIP3    H135172   5.430   6.751  12.263 -0.3432  0.5155 -0.4291
 3659TIP3    H235173   5.562   6.816  12.297  0.1522  0.1400 -1.5687
 3660TIP3   OH235174   6.792   1.899  12.527  0.0489 -0.1868 -0.1194
 3660TIP3    H135175   6.753   1.980  12.495  3.0293  1.1228 -0.8452
 3660TIP3    H235176   6.796   1.842  12.449 -1.0597 -0.6222  0.1350
 3661TIP3   OH235177   3.518   6.279  13.418  0.0553  0.5087 -0.3717
 3661TIP3    H135178   3.427   6.291  13.444  0.0112 -0.6814  0.1127
 3661TIP3    H235179   3.515   6.272  13.322 -0.4320  0.0379 -0.3274
 3662TIP3   OH235180   2.547   7.619  13.037 -0.1156 -0.2816  0.4894
 3662TIP3    H135181   2.557   7.583  13.125  0.5859  0.2871  0.6439
 3662TIP3    H235182   2.521   7.710  13.051  0.9511  0.0936  0.1292
 3663TIP3   OH235183   5.360   0.989  10.842  0.0532  0.1349 -0.1217
 3663TIP3    H135184   5.379   1.073  10.882  0.3621 -0.5083  1.1358
 3663TIP3    H235185   5.394   0.997  10.753  0.8669  1.0437  0.2473
 3664TIP3   OH235186   4.796   4.564  11.765  0.3564 -0.0125 -0.3761
 3664TIP3    H135187   4.775   4.635  11.825  0.3683 -0.9927  0.8481
 3664TIP3    H235188   4.887   4.542  11.784 -0.4750 -2.3319  1.5161
 3665TIP3   OH235189   4.014   5.854  12.679  0.5020  0.0088 -0.3373
 3665TIP3    H135190   3.941   5.862  12.618  0.6502  0.7233 -0.4318
 3665TIP3    H235191   4.063   5.936  12.669  0.6843  0.0181  0.5342
 3666TIP3   OH235192   5.211   1.057  12.651  0.1786  0.3052  0.5698
 3666TIP3    H135193   5.289   1.029  12.603  1.0298  0.6910  1.6858
 3666TIP3    H235194   5.191   1.144  12.617 -1.2536 -0.7212 -1.4438
 3667TIP3   OH235195   6.352   2.317  10.966  0.3703 -0.4662  0.0710
 3667TIP3    H135196   6.376   2.280  10.881 -0.2469  0.5766 -0.5788
 3667TIP3    H235197   6.413   2.390  10.978  0.2363 -0.4021  0.3753
 3668TIP3   OH235198   5.686   6.093  11.649  0.5739  0.4925 -0.5742
 3668TIP3    H135199   5.647   6.054  11.727  1.3179  1.2106  0.1700
 3668TIP3    H235200   5.658   6.035  11.578 -0.4502  0.0530  0.1540
 3669TIP3   OH235201   5.137   0.775  12.837  0.3863  0.0974 -0.7907
 3669TIP3    H135202   5.142   0.682  12.858  0.6899 -0.2117 -2.1566
 3669TIP3    H235203   5.228   0.802  12.825  0.3567  0.7631  0.3132
 3670TIP3   OH235204   5.296   5.114  11.495 -0.1861 -0.0269 -0.0480
 3670TIP3    H135205   5.276   5.070  11.578  1.3688 -1.1349 -0.2230
 3670TIP3    H235206   5.362   5.179  11.518  0.5509 -0.6098 -0.4522
 3671TIP3   OH235207   4.325   6.217  11.005  0.0526 -0.5215  0.5337
 3671TIP3    H135208   4.322   6.251  10.916 -0.9095 -0.1244  0.7090
 3671TIP3    H235209   4.389   6.273  11.050 -1.3495  0.9784  0.7603
 3672TIP3   OH235210   2.157   2.625  11.532  0.1591 -0.2248  0.1518
 3672TIP3    H135211   2.210   2.683  11.477  1.0085 -3.0730 -2.3218
 3672TIP3    H235212   2.096   2.583  11.471 -0.3571 -1.9623  1.7735
 3673TIP3   OH235213   0.916   1.644  13.728  0.1036  0.0492 -0.2126
 3673TIP3    H135214   1.003   1.646  13.769 -0.4662  1.0918  0.9821
 3673TIP3    H235215   0.918   1.565  13.673  1.1653 -0.9967  1.2389
 3674TIP3   OH235216   1.970   0.917  12.275  0.1656  0.0566 -0.2573
 3674TIP3    H135217   1.902   0.966  12.228 -0.5507 -1.4806 -0.8958
 3674TIP3    H235218   1.942   0.826  12.268  1.1150 -0.3986  1.4612
 3675TIP3   OH235219   1.428   6.890  12.286  0.1124  0.2068 -0.2084
 3675TIP3    H135220   1.456   6.953  12.352 -1.8468  1.3918 -0.4389
 3675TIP3    H235221   1.334   6.884  12.297 -0.0085 -1.0301 -1.6542
 3676TIP3   OH235222   6.089   7.210  12.265  0.4895  0.0963  0.4827
 3676TIP3    H135223   6.034   7.278  12.226  0.8528 -0.1953 -0.5537
 3676TIP3    H235224   6.177   7.247  12.265  0.7677 -0.5190 -0.4940
 3677TIP3   OH235225   4.922   6.734  12.548 -0.2864  0.1949  0.2345
 3677TIP3    H135226   4.973   6.807  12.513  0.2417 -0.2372  0.0950
 3677TIP3    H235227   4.958   6.656  12.504 -1.2874 -0.0815 -0.1277
 3678TIP3   OH235228   4.319   3.361  13.573  0.5625 -0.3154  0.4360
 3678TIP3    H135229   4.297   3.328  13.486  0.9011  1.2133 -0.2570
 3678TIP3    H235230   4.310   3.285  13.630 -0.7194 -1.1086 -0.7557
 3679TIP3   OH235231   0.009   2.095  13.240 -0.3791  1.1842 -0.1622
 3679TIP3    H135232  -0.056   2.164  13.225 -0.2948  1.7428  1.7796
 3679TIP3    H235233   0.055   2.122  13.319  0.5251 -0.4874 -0.0741
 3680TIP3   OH235234   1.970   0.572  11.688 -0.1197 -0.1021 -0.0482
 3680TIP3    H135235   2.017   0.612  11.615  0.1488 -2.0723 -1.0027
 3680TIP3    H235236   2.038   0.534  11.744 -0.4303 -0.4783  0.0802
 3681TIP3   OH235237   7.522   2.205  11.623  0.3105 -0.6657  0.5352
 3681TIP3    H135238   7.538   2.299  11.626  1.0719 -0.7838  0.5108
 3681TIP3    H235239   7.449   2.194  11.562  0.4246 -0.1167  0.2979
 3682TIP3   OH235240   6.985   5.750  10.672  0.0974  0.1762 -0.2361
 3682TIP3    H135241   7.076   5.745  10.643 -0.2334 -1.1211 -1.1789
 3682TIP3    H235242   6.956   5.837  10.645  0.8935  0.3888 -0.4347
 3683TIP3   OH235243   7.387   2.264  13.511 -0.0773  0.1625  0.0301
 3683TIP3    H135244   7.455   2.312  13.558 -0.8512  1.2922  0.0400
 3683TIP3    H235245   7.351   2.204  13.576  0.0354  0.4761  0.3865
 3684TIP3   OH235246   5.243   1.191  11.938 -0.7811  0.2229 -0.4982
 3684TIP3    H135247   5.314   1.219  11.880  0.3551 -0.9263  0.2892
 3684TIP3    H235248   5.249   1.095  11.938 -1.4121  0.1691  0.7089
 3685TIP3   OH235249   2.675   4.928  10.856  0.6124  0.2428  0.2139
 3685TIP3    H135250   2.735   4.906  10.785  1.2132  2.2054  0.0683
 3685TIP3    H235251   2.673   5.023  10.857  0.9667  0.2997  3.1130
 3686TIP3   OH235252   6.221   1.682  12.850  0.4426 -0.3033  0.6271
 3686TIP3    H135253   6.179   1.682  12.936  1.5027  1.2359  1.1960
 3686TIP3    H235254   6.178   1.754  12.803 -0.7172 -1.6654 -0.4777
 3687TIP3   OH235255   1.541   4.658  11.505  0.1344 -0.1994  0.2626
 3687TIP3    H135256   1.532   4.644  11.411 -0.8255  0.7888  0.1893
 3687TIP3    H235257   1.452   4.675  11.535  0.2226 -1.8387  1.6006
 3688TIP3   OH235258   6.236   5.501  12.140  0.0829  0.0607 -0.1625
 3688TIP3    H135259   6.314   5.498  12.195  1.0583 -1.9431 -1.5264
 3688TIP3    H235260   6.179   5.432  12.175 -0.5380  0.6541  0.0284
 3689TIP3   OH235261   4.779   0.781  11.673 -0.1304 -0.1963 -0.0843
 3689TIP3    H135262   4.791   0.868  11.710  1.5311 -0.2818 -0.3459
 3689TIP3    H235263   4.868   0.750  11.654 -0.4199 -2.9982  2.3335
 3690TIP3   OH235264   2.664   3.481  11.149 -0.5831 -0.4480 -0.1316
 3690TIP3    H135265   2.698   3.432  11.075 -0.4761  1.3221 -1.3284
 3690TIP3    H235266   2.736   3.486  11.211  0.5187  0.9716 -1.4570
 3691TIP3   OH235267   6.539   7.026  11.066  0.0671  0.1078  0.1912
 3691TIP3    H135268   6.513   6.963  11.133  3.4640 -1.6912  0.0590
 3691TIP3    H235269   6.569   6.973  10.993 -0.3777  1.9778 -1.4375
 3692TIP3   OH235270   6.695   7.380  12.169  0.1939 -0.1020 -0.4919
 3692TIP3    H135271   6.613   7.366  12.216 -0.0653  0.6338 -0.7055
 3692TIP3    H235272   6.667   7.415  12.084  0.6290 -1.7539 -1.3573
 3693TIP3   OH235273   5.678   2.868  12.854 -0.1154 -0.6981 -0.0607
 3693TIP3    H135274   5.643   2.952  12.826  2.9473  0.5248 -0.5812
 3693TIP3    H235275   5.607   2.828  12.904 -2.0728  1.6468 -0.7533
 3694TIP3   OH235276   1.462   6.480  11.812  0.2726 -0.0752  0.2221
 3694TIP3    H135277   1.415   6.397  11.818  2.0556 -1.0849  0.9436
 3694TIP3    H235278   1.468   6.511  11.903 -0.2533  0.7924 -0.0249
 3695TIP3   OH235279   1.591   2.604  12.525  0.1144  0.0653  0.1034
 3695TIP3    H135280   1.507   2.564  12.551 -0.1033  0.7375  0.4401
 3695TIP3    H235281   1.624   2.645  12.605  0.1780  0.8377 -0.3096
 3696TIP3   OH235282   2.978   0.549  11.838 -1.1958 -0.2006  0.2417
 3696TIP3    H135283   2.997   0.533  11.746 -1.9123 -0.3837  0.1128
 3696TIP3    H235284   2.882   0.554  11.842 -1.1409  0.5290  0.8609
 3697TIP3   OH235285   5.373   3.499  11.742  0.5502 -0.0069 -0.0001
 3697TIP3    H135286   5.410   3.454  11.666 -2.1547 -1.8531 -0.3537
 3697TIP3    H235287   5.388   3.438  11.815  0.9880  0.6780  0.4949
 3698TIP3   OH235288   5.590   6.794  11.899 -0.4104 -0.8234 -0.1065
 3698TIP3    H135289   5.594   6.764  11.808  0.9236 -1.6855  0.1972
 3698TIP3    H235290   5.592   6.713  11.951  0.6647 -0.2995  0.7101
 3699TIP3   OH235291   0.873   1.876  12.128  0.2968 -0.3727 -1.2734
 3699TIP3    H135292   0.872   1.923  12.212 -0.6968 -1.2892 -0.7366
 3699TIP3    H235293   0.945   1.814  12.137 -1.9058 -2.9178  0.4016
 3700TIP3   OH235294   4.435   4.756  11.972  0.0289 -0.2065 -0.1751
 3700TIP3    H135295   4.373   4.692  11.938 -0.5307  0.7979 -1.1154
 3700TIP3    H235296   4.494   4.705  12.028  0.0898 -1.6684 -1.5108
 3701TIP3   OH235297   6.466   5.815  11.113  0.0317 -0.0959 -0.3247
 3701TIP3    H135298   6.516   5.811  11.194  0.5268 -2.6168 -0.6662
 3701TIP3    H235299   6.459   5.909  11.093  3.4594  0.4609  0.4458
 3702TIP3   OH235300   5.523   7.092  12.362  0.2345  0.2533  0.1249
 3702TIP3    H135301   5.618   7.083  12.368  0.3736  0.4768 -1.3868
 3702TIP3    H235302   5.492   7.005  12.336 -0.0107  0.0961  0.9307
 3703TIP3   OH235303   0.307   7.068  11.499 -0.0111 -0.0444  0.5516
 3703TIP3    H135304   0.230   7.041  11.451 -0.4207  0.2375  1.0370
 3703TIP3    H235305   0.349   7.133  11.442  0.1696 -0.6035  0.0463
 3704TIP3   OH235306   7.056   4.992  12.888 -0.0185 -0.3231  0.5052
 3704TIP3    H135307   7.078   5.085  12.893 -1.8311  0.0960  3.7376
 3704TIP3    H235308   6.977   4.988  12.834 -0.6106  0.2146  1.3117
 3705TIP3   OH235309   4.985   5.835  13.717 -0.0388  0.6586 -0.0663
 3705TIP3    H135310   5.065   5.854  13.767 -0.0839  0.4196  0.0997
 3705TIP3    H235311   5.016   5.803  13.632  0.0742  3.7821 -1.3315
 3706TIP3   OH235312   1.199   0.136  12.036  0.3070 -0.3917  0.0234
 3706TIP3    H135313   1.215   0.168  11.948  3.3501  1.4496  1.1235
 3706TIP3    H235314   1.218   0.042  12.031  2.7014  0.0716 -0.8773
 3707TIP3   OH235315   4.957   0.728  11.236  0.0901  0.1158  0.1532
 3707TIP3    H135316   4.888   0.769  11.185 -0.7413 -0.9533  0.3769
 3707TIP3    H235317   4.996   0.663  11.177 -1.0885 -1.3554  0.9123
 3708TIP3   OH235318   4.045   6.605  11.693  0.0767  0.2410 -0.3319
 3708TIP3    H135319   3.996   6.644  11.765 -0.2832 -0.1590 -0.3564
 3708TIP3    H235320   4.012   6.650  11.615 -0.9262 -0.6519 -0.4515
 3709TIP3   OH235321   3.018   5.702  12.784  0.0897 -0.4685 -0.1094
 3709TIP3    H135322   3.039   5.628  12.841  0.1109 -0.0212  0.4741
 3709TIP3    H235323   3.075   5.691  12.708  0.2607 -0.9206  0.0839
 3710TIP3   OH235324   2.203   3.995  11.983  0.4257  0.2793  0.1045
 3710TIP3    H135325   2.149   3.921  11.953  1.4723 -0.4989  0.0624
 3710TIP3    H235326   2.181   4.005  12.075  0.4610 -0.2705  0.1767
 3711TIP3   OH235327   7.453   1.995  13.372  0.1699  0.0027 -0.4044
 3711TIP3    H135328   7.421   2.078  13.336  0.3539 -0.1741 -0.9880
 3711TIP3    H235329   7.548   2.007  13.380  0.0714  0.2280  0.5350
 3712TIP3   OH235330   5.814   2.534  13.170  0.0463 -0.2318  0.9984
 3712TIP3    H135331   5.816   2.448  13.128  1.3997 -0.5910  1.7243
 3712TIP3    H235332   5.724   2.544  13.200 -1.1211  0.2133 -2.2276
 3713TIP3   OH235333   3.150   1.291  10.977 -0.1972 -0.3240  0.1959
 3713TIP3    H135334   3.233   1.331  10.949  0.0435 -0.0002  1.3158
 3713TIP3    H235335   3.083   1.351  10.947 -0.1918 -1.5006 -2.3669
 3714TIP3   OH235336   3.108   0.314  13.371  0.3773 -0.1342  0.0337
 3714TIP3    H135337   3.077   0.380  13.309  1.0345 -0.5057 -0.7014
 3714TIP3    H235338   3.199   0.299  13.348  0.7070 -0.1222  1.2403
 3715TIP3   OH235339   5.114   6.017  12.200 -0.0765  0.0496  0.1673
 3715TIP3    H135340   5.175   5.989  12.132  3.8544  2.8607  2.1197
 3715TIP3    H235341   5.139   5.967  12.278 -0.4495  1.0167  0.9358
 3716TIP3   OH235342   1.473   6.776  11.893  0.1621  0.2777  0.1651
 3716TIP3    H135343   1.381   6.801  11.888  0.6635  2.0898 -1.0561
 3716TIP3    H235344   1.482   6.704  11.830 -0.2994  0.5075 -0.1679
 3717TIP3   OH235345   0.329   0.080  13.437  0.7711 -0.7019  1.1111
 3717TIP3    H135346   0.240   0.079  13.472 -0.1845 -0.9018 -1.1501
 3717TIP3    H235347   0.383   0.114  13.509 -1.3355  0.9114  2.0250
 3718TIP3   OH235348   5.489   3.203  13.527  0.2073  0.0286 -0.6924
 3718TIP3    H135349   5.436   3.268  13.481 -1.4927 -0.6748  0.2066
 3718TIP3    H235350   5.522   3.249  13.604  1.1489  0.5366 -1.3754
 3719TIP3   OH235351   2.274   1.922  12.655  0.2257 -0.4394 -0.3397
 3719TIP3    H135352   2.198   1.979  12.645 -0.5107 -1.0820  1.2319
 3719TIP3    H235353   2.310   1.914  12.567 -0.4936  1.2647 -0.8402
 3720TIP3   OH235354   0.595   7.328  11.043  0.1576  0.2458 -0.1678
 3720TIP3    H135355   0.610   7.247  10.994  0.5934  1.3217 -1.8915
 3720TIP3    H235356   0.506   7.353  11.021  0.5126  0.9817 -0.7841
 3721TIP3   OH235357   6.403   3.866  11.339  0.3905  0.0600 -0.4356
 3721TIP3    H135358   6.494   3.875  11.368 -0.3263  0.2939  1.9541
 3721TIP3    H235359   6.403   3.896  11.248  2.1675  3.0373  0.4411
 3722TIP3   OH235360   2.151   6.544  11.741 -0.1961  0.1215  0.2543
 3722TIP3    H135361   2.135   6.621  11.796  1.9618  0.5421  0.4042
 3722TIP3    H235362   2.116   6.470  11.792  2.3965  0.4007  2.6757
 3723TIP3   OH235363   2.389   3.457  13.237 -0.3021 -0.1337 -0.1305
 3723TIP3    H135364   2.351   3.384  13.287 -2.5178  0.5360 -0.7363
 3723TIP3    H235365   2.319   3.484  13.178  1.4465  0.6574 -1.9278
 3724TIP3   OH235366   1.439   5.273  12.179 -0.4494  0.1431 -0.0343
 3724TIP3    H135367   1.438   5.339  12.248  0.7299 -0.6839  0.8134
 3724TIP3    H235368   1.523   5.285  12.135 -0.7136 -0.0645 -0.6088
 3725TIP3   OH235369   4.898   2.895  13.381 -0.9260  0.0481  0.1083
 3725TIP3    H135370   4.812   2.915  13.345 -1.6193 -2.5622  0.1691
 3725TIP3    H235371   4.891   2.805  13.412  1.4251  0.2357  1.3966
 3726TIP3   OH235372   4.339   3.551  12.882 -0.1578  0.8401  0.5278
 3726TIP3    H135373   4.314   3.636  12.844  0.8765  0.9529  0.0855
 3726TIP3    H235374   4.434   3.547  12.873 -0.3616 -1.3532 -1.5482
 3727TIP3   OH235375   5.899   0.459  13.473  0.3469 -0.2352  0.0524
 3727TIP3    H135376   5.953   0.380  13.464 -0.6844 -1.0131  0.5157
 3727TIP3    H235377   5.826   0.446  13.412  0.8235  0.9692 -0.8330
 3728TIP3   OH235378   7.295   7.620  13.201  0.3001 -0.2400  0.0877
 3728TIP3    H135379   7.210   7.663  13.212 -0.4838 -1.8776  0.8933
 3728TIP3    H235380   7.333   7.618  13.289  0.9756  0.0838 -0.1904
 3729TIP3   OH235381   4.859   6.022  12.393 -0.3391  0.3885 -0.3678
 3729TIP3    H135382   4.837   6.098  12.340 -2.4954  1.1619  1.4764
 3729TIP3    H235383   4.952   6.035  12.415 -0.2443  1.6255 -1.3872
 3730TIP3   OH235384   4.190   4.753  12.876 -0.1617  0.4720 -0.1829
 3730TIP3    H135385   4.265   4.703  12.845  0.2564  1.3154 -0.5793
 3730TIP3    H235386   4.115   4.697  12.860  0.5242 -1.0944  1.7608
 3731TIP3   OH235387   4.192   4.459  11.505  0.1682  0.5870  0.3654
 3731TIP3    H135388   4.208   4.459  11.410 -0.0661 -1.5961  0.2808
 3731TIP3    H235389   4.141   4.380  11.521 -1.4767  1.9066  2.0961
 3732TIP3   OH235390   6.291   7.216  13.560 -0.2465 -0.0847  0.0671
 3732TIP3    H135391   6.267   7.124  13.554 -1.6145  0.3528 -2.4562
 3732TIP3    H235392   6.355   7.229  13.490  1.2745  0.5478  1.5176
 3733TIP3   OH235393   1.357   1.990  12.789 -0.6253  0.1633 -0.0393
 3733TIP3    H135394   1.313   2.070  12.759 -1.6698 -0.1316  0.6347
 3733TIP3    H235395   1.318   1.920  12.737  0.3247  0.0844 -0.6625
 3734TIP3   OH235396   3.569   6.409  13.833  0.9968  0.2435 -0.0713
 3734TIP3    H135397   3.632   6.390  13.764 -1.6956 -1.4825 -2.2936
 3734TIP3    H235398   3.498   6.456  13.788 -0.1647  0.4357  1.8706
 3735TIP3   OH235399   5.527   6.657  12.796  0.0382  0.0724  0.2267
 3735TIP3    H135400   5.484   6.688  12.716  0.3866  1.2563  0.4824
 3735TIP3    H235401   5.581   6.730  12.825 -2.6911  1.0871  3.4773
 3736TIP3   OH235402   4.051   6.354  12.593  0.2646 -0.2710 -0.6301
 3736TIP3    H135403   4.103   6.397  12.661  0.6385  0.1894 -1.1884
 3736TIP3    H235404   3.984   6.419  12.570 -0.7692 -0.9817  0.3048
 3737TIP3   OH235405   0.925   4.280  11.588  0.1520  0.6873  0.0546
 3737TIP3    H135406   0.990   4.343  11.619  1.0345  0.2335 -0.7952
 3737TIP3    H235407   0.887   4.321  11.511 -0.8258  1.0941  0.7431
 3738TIP3   OH235408   3.662   2.280  11.715  0.1133 -0.1260 -0.2145
 3738TIP3    H135409   3.701   2.252  11.632  0.0742  3.4202 -1.5816
 3738TIP3    H235410   3.736   2.310  11.768 -0.1276  0.3457 -0.1379
 3739TIP3   OH235411   4.385   0.680  11.986  0.0982 -0.0982 -0.2400
 3739TIP3    H135412   4.445   0.618  12.027 -0.7583 -0.5825  0.3072
 3739TIP3    H235413   4.298   0.644  12.002 -0.3685  0.7825 -0.6950
 3740TIP3   OH235414   1.343   2.564  13.376 -0.0431  0.5625  0.2287
 3740TIP3    H135415   1.311   2.496  13.317  0.9910  1.0002 -0.8693
 3740TIP3    H235416   1.403   2.519  13.436  0.5297  0.4693 -0.4057
 3741TIP3   OH235417   1.960   5.030  13.167  0.4231  0.0341 -0.4089
 3741TIP3    H135418   1.885   4.980  13.138  0.0718 -0.1202  0.7120
 3741TIP3    H235419   2.035   4.974  13.150  0.3432  0.3547 -1.9140
 3742TIP3   OH235420   4.260   0.414  11.750 -0.0723 -0.0499  0.0275
 3742TIP3    H135421   4.301   0.491  11.713  1.0069 -0.3507  0.5544
 3742TIP3    H235422   4.260   0.350  11.679  1.5839 -0.4779  0.3794
 3743TIP3   OH235423   5.435   7.538  12.903  0.3981 -0.7341  0.0117
 3743TIP3    H135424   5.355   7.551  12.955  0.5958  0.3499  0.0510
 3743TIP3    H235425   5.464   7.626  12.880  2.0118 -1.0716  0.6280
 3744TIP3   OH235426   4.479   4.625  12.602  0.1882 -0.3047  0.4577
 3744TIP3    H135427   4.432   4.706  12.582  0.9519  0.4766  1.6108
 3744TIP3    H235428   4.415   4.556  12.589 -0.8966  0.6084  0.7282
 3745TIP3   OH235429   6.119   1.090  12.532 -0.1382 -0.1913  0.0220
 3745TIP3    H135430   6.113   1.014  12.591 -0.1693  0.0686  0.3537
 3745TIP3    H235431   6.132   1.165  12.591  0.1797  0.0245 -0.3228
 3746TIP3   OH235432   5.615   4.667  11.671 -0.3081 -0.4034  0.3181
 3746TIP3    H135433   5.549   4.683  11.603  0.0685 -0.3228 -0.0292
 3746TIP3    H235434   5.686   4.622  11.626 -0.0495 -0.3359  0.6539
 3747TIP3   OH235435   0.517   0.516  12.319 -0.2358 -0.0502 -0.2240
 3747TIP3    H135436   0.548   0.602  12.293 -1.7534  0.3266 -0.8648
 3747TIP3    H235437   0.422   0.524  12.324 -0.2944 -1.0635  1.9801
 3748TIP3   OH235438   6.584   6.565  12.788 -0.5971  0.1505  0.3988
 3748TIP3    H135439   6.543   6.503  12.728 -1.2536  0.5402  0.4367
 3748TIP3    H235440   6.593   6.516  12.870 -0.9120  0.0329  0.3661
 3749TIP3   OH235441   7.293   7.397  12.047 -0.0840  0.2898  0.2446
 3749TIP3    H135442   7.320   7.339  11.977 -0.1210  1.4155 -0.7313
 3749TIP3    H235443   7.201   7.417  12.028 -0.1535  0.4557  0.7298
 3750TIP3   OH235444   7.450   6.834  12.029 -0.1330  0.1072  1.0209
 3750TIP3    H135445   7.367   6.871  12.059 -0.4708  2.1720 -2.0160
 3750TIP3    H235446   7.516   6.897  12.057 -0.2380  1.0586 -0.7398
 3751TIP3   OH235447   6.434   6.792  13.499  0.3432 -0.0880 -0.1470
 3751TIP3    H135448   6.485   6.828  13.426  0.6024 -0.1448  0.0064
 3751TIP3    H235449   6.498   6.748  13.554 -0.1645 -2.2772 -1.1956
 3752TIP3   OH235450   6.916   5.669  12.494  0.1368  0.0637 -0.1954
 3752TIP3    H135451   6.953   5.685  12.407 -0.8252  0.1418 -0.5995
 3752TIP3    H235452   6.992   5.655  12.550  0.8534  1.5317 -0.7364
 3753TIP3   OH235453   5.851   4.903  12.630  0.5565  0.3615  0.3663
 3753TIP3    H135454   5.798   4.824  12.638  1.9449 -0.6550 -0.1247
 3753TIP3    H235455   5.809   4.967  12.688  0.0797 -1.1124  1.7030
 3754TIP3   OH235456   5.067   1.521  12.951 -0.1049 -0.1779 -0.2046
 3754TIP3    H135457   5.014   1.516  12.872 -0.9300 -1.2885  0.3870
 3754TIP3    H235458   5.093   1.431  12.969  0.8904  0.1870  0.2609
 3755TIP3   OH235459   4.065   3.115  11.127 -0.2050  0.1333  0.2696
 3755TIP3    H135460   4.106   3.201  11.140 -0.3677  0.3261 -0.4335
 3755TIP3    H235461   4.128   3.066  11.073  0.0952 -0.3587  1.0522
 3756TIP3   OH235462   6.292   3.775  11.981 -0.5261 -0.0120 -0.2136
 3756TIP3    H135463   6.215   3.822  12.013 -1.1105 -1.3528  0.4088
 3756TIP3    H235464   6.257   3.700  11.934  0.3982  0.1095 -1.1368
 3757TIP3   OH235465   7.262   4.914  13.397 -0.2274 -0.4510 -0.0874
 3757TIP3    H135466   7.303   4.835  13.432  0.9575  0.4521  0.6559
 3757TIP3    H235467   7.194   4.882  13.338  1.2621 -2.0360 -1.0428
 3758TIP3   OH235468   0.552   6.463  12.773 -0.0433 -0.0931 -0.6323
 3758TIP3    H135469   0.474   6.508  12.806  1.9830  1.5628  2.3858
 3758TIP3    H235470   0.568   6.393  12.836  2.2208  1.1923  0.3330
 3759TIP3   OH235471   6.063   2.497  12.164  0.1244 -0.5256  0.0396
 3759TIP3    H135472   6.082   2.475  12.255  0.0889 -1.6856 -0.2259
 3759TIP3    H235473   6.150   2.507  12.124  0.1397 -0.1654  0.1554
 3760TIP3   OH235474   2.803   4.215  10.794 -0.5735 -0.2156  0.1418
 3760TIP3    H135475   2.743   4.145  10.767 -1.8676  1.0016 -0.2156
 3760TIP3    H235476   2.802   4.278  10.722 -0.5480  0.8743  1.0707
 3761TIP3   OH235477   0.662   6.894  12.312  0.4130 -0.3709  0.1237
 3761TIP3    H135478   0.654   6.928  12.401 -0.5191 -1.8235  0.6372
 3761TIP3    H235479   0.581   6.920  12.268  1.2996  1.2237 -0.6686
 3762TIP3   OH235480   1.367   7.300  13.598  0.3272 -0.2216  0.9045
 3762TIP3    H135481   1.373   7.234  13.529 -0.2417  0.3750  0.2627
 3762TIP3    H235482   1.327   7.254  13.672  2.2495 -1.2478  1.3655
 3763TIP3   OH235483   6.650   3.358  12.989  0.1185 -0.2789 -0.8797
 3763TIP3    H135484   6.596   3.305  12.931  2.2511 -0.0992 -3.1892
 3763TIP3    H235485   6.614   3.447  12.982 -1.4803 -0.7662  0.5105
 3764TIP3   OH235486   1.179   4.352  13.116 -0.4522  0.0506  0.2479
 3764TIP3    H135487   1.102   4.408  13.114 -0.0526  0.5888 -0.2484
 3764TIP3    H235488   1.166   4.291  13.044 -0.4882  0.0370  0.2661
 3765TIP3   OH235489   3.680   6.144  11.578  0.3877 -0.0300 -0.2438
 3765TIP3    H135490   3.768   6.150  11.616 -0.1874  0.7779  1.0470
 3765TIP3    H235491   3.643   6.064  11.615 -0.2543  0.8732  1.1780
 3766TIP3   OH235492   3.579   5.995  11.904 -0.7847  0.1232  0.4588
 3766TIP3    H135493   3.529   6.067  11.943 -0.5796  0.3800  0.2436
 3766TIP3    H235494   3.658   5.988  11.958  0.9494  2.3887 -1.5799
 3767TIP3   OH235495   5.837   4.530  12.422  0.3846 -0.2785 -0.1358
 3767TIP3    H135496   5.757   4.567  12.460 -0.1973 -1.9483  0.3628
 3767TIP3    H235497   5.908   4.573  12.469 -0.2998 -1.7232  2.4194
 3768TIP3   OH235498   3.312   3.531  11.693  0.1784 -0.3609 -0.3768
 3768TIP3    H135499   3.273   3.592  11.756 -2.2159 -2.0400 -0.0836
 3768TIP3    H235500   3.390   3.576  11.661  0.7402  1.1793  2.7205
 3769TIP3   OH235501   2.351   3.190  12.701 -0.4874  0.1667 -0.1661
 3769TIP3    H135502   2.296   3.158  12.630 -1.8616  0.6313  0.6573
 3769TIP3    H235503   2.356   3.284  12.687 -1.2266  0.3357  0.6506
 3770TIP3   OH235504   7.406   1.775  11.517  0.0767  0.2796  0.0586
 3770TIP3    H135505   7.375   1.819  11.438  0.0657 -0.2062 -0.2156
 3770TIP3    H235506   7.391   1.682  11.500  3.7224 -0.2666 -1.0853
 3771TIP3   OH235507   0.208   5.025  12.369  0.8289  0.3970  0.1126
 3771TIP3    H135508   0.297   5.061  12.373  1.4268 -1.0743  1.4050
 3771TIP3    H235509   0.184   5.029  12.277  0.8249  3.9746  0.1053
 3772TIP3   OH235510   1.318   3.344  12.067  0.0009  0.2255 -0.2255
 3772TIP3    H135511   1.409   3.372  12.078 -0.4170  1.1497  1.1690
 3772TIP3    H235512   1.287   3.329  12.156 -0.3642 -3.0342 -0.7855
 3773TIP3   OH235513   0.371   7.286  12.658  0.7383 -0.7927 -0.2990
 3773TIP3    H135514   0.405   7.253  12.575 -0.2094 -1.5558 -0.3907
 3773TIP3    H235515   0.447   7.284  12.717  1.6338  0.5573 -1.3388
 3774TIP3   OH235516   0.529   3.339  12.471  0.1098 -0.5070 -0.1170
 3774TIP3    H135517   0.618   3.304  12.482  0.3631  0.3141  0.5312
 3774TIP3    H235518   0.499   3.357  12.560 -0.9899 -1.4357 -0.2765
 3775TIP3   OH235519   7.019   0.205  12.846 -0.2490 -0.7551  0.2450
 3775TIP3    H135520   6.973   0.275  12.799  0.0191 -1.1896 -0.6876
 3775TIP3    H235521   6.960   0.183  12.918 -0.5576  0.1009  0.2780
 3776TIP3   OH235522   1.105   5.775  12.679 -0.0014  0.0669  0.1083
 3776TIP3    H135523   1.050   5.853  12.671 -0.4906 -0.2854 -0.0359
 3776TIP3    H235524   1.190   5.802  12.646 -0.1042  0.6047  0.2718
 3777TIP3   OH235525   6.224   5.680  12.375  0.0828 -0.0570  0.1029
 3777TIP3    H135526   6.270   5.644  12.299  1.2392  0.8872  0.3247
 3777TIP3    H235527   6.236   5.615  12.444  1.6331  0.4368  0.3277
 3778TIP3   OH235528   4.651   1.661  12.475  0.0963 -0.4902 -0.5033
 3778TIP3    H135529   4.706   1.583  12.479  0.8101  0.0547  1.8885
 3778TIP3    H235530   4.606   1.664  12.560 -1.5770  0.5625 -1.3590
 3779TIP3   OH235531   2.893   2.501  12.025  0.6167 -0.0176 -0.2450
 3779TIP3    H135532   2.818   2.487  11.967 -1.0437 -0.6876  1.9442
 3779TIP3    H235533   2.888   2.431  12.089  3.4229 -0.3324 -0.2465
 3780TIP3   OH235534   2.537   7.308  13.496  0.4878 -0.2874  0.1998
 3780TIP3    H135535   2.549   7.342  13.584 -2.1601  0.2295  0.4354
 3780TIP3    H235536   2.458   7.352  13.463 -0.1143 -2.3912 -1.4277
 3781TIP3   OH235537   3.969   1.402  11.539  0.0821  0.7032  0.2197
 3781TIP3    H135538   3.951   1.316  11.577  0.7320 -0.6097 -2.1810
 3781TIP3    H235539   3.901   1.414  11.473  2.0065  0.3062 -1.9507
 3782TIP3   OH235540   1.221   5.552  13.167 -0.5594  0.1220  0.1855
 3782TIP3    H135541   1.261   5.626  13.211 -0.8746 -0.1762  0.9950
 3782TIP3    H235542   1.217   5.578  13.075  2.5134 -0.2833 -0.1584
 3783TIP3   OH235543   0.221   6.235  10.579 -0.1108  0.5251 -0.3646
 3783TIP3    H135544   0.311   6.256  10.556  0.5845 -1.0149  0.8038
 3783TIP3    H235545   0.201   6.156  10.528 -0.1037 -0.2745  0.8389
 3784TIP3   OH235546   6.603   4.654  10.855 -0.3597  0.5156  0.1496
 3784TIP3    H135547   6.543   4.728  10.857 -0.9937  0.1443 -2.5251
 3784TIP3    H235548   6.665   4.675  10.786 -0.8546 -1.6360 -1.0186
 3785TIP3   OH235549   4.339   5.504  11.077  0.5195  0.3677 -0.3448
 3785TIP3    H135550   4.353   5.458  10.994 -0.1096 -0.5057  0.0251
 3785TIP3    H235551   4.293   5.441  11.132 -1.3621  1.7886 -0.1993
 3786TIP3   OH235552   0.969   3.302  11.921  0.6183  0.4357 -0.0332
 3786TIP3    H135553   0.940   3.393  11.919 -1.1595 -0.0486 -3.0071
 3786TIP3    H235554   0.952   3.273  12.010  1.3585  3.0043  1.0369
 3787TIP3   OH235555   5.237   4.390  13.171 -0.3842 -0.3578 -0.3992
 3787TIP3    H135556   5.152   4.430  13.153 -0.5050  0.4679  1.7475
 3787TIP3    H235557   5.291   4.461  13.205  0.3999 -1.3592  0.5121
 3788TIP3   OH235558   0.336   0.529  11.461  0.2768  0.1501 -0.0057
 3788TIP3    H135559   0.396   0.586  11.414 -0.5823 -0.8023 -2.3962
 3788TIP3    H235560   0.265   0.512  11.399 -1.2213 -0.7482  1.8444
 3789TIP3   OH235561   6.706   2.872  13.382 -0.5535 -0.3853  0.2268
 3789TIP3    H135562   6.643   2.868  13.454  0.5713  1.5717  1.4020
 3789TIP3    H235563   6.701   2.786  13.341 -0.2935 -2.0629  3.4624
 3790TIP3   OH235564   3.246   0.477  11.849  0.0249 -0.0751  0.2277
 3790TIP3    H135565   3.177   0.541  11.867 -0.8972 -1.1260  0.6068
 3790TIP3    H235566   3.245   0.420  11.926  0.7773 -0.5818 -0.1270
 3791TIP3   OH235567   0.095   4.740  12.403 -0.3085  0.1151  0.2978
 3791TIP3    H135568   0.151   4.768  12.476  0.1985 -1.0258  0.3607
 3791TIP3    H235569   0.155   4.695  12.343 -0.5937  1.5139 -1.1317
 3792TIP3   OH235570   1.435   1.560  11.605 -0.1187  0.3643  0.9392
 3792TIP3    H135571   1.399   1.565  11.694 -1.1003  0.2899  0.5673
 3792TIP3    H235572   1.405   1.475  11.572  1.2931 -0.1696  0.9623
 3793TIP3   OH235573   4.740   2.811  11.568  0.1911  0.0351 -0.4694
 3793TIP3    H135574   4.818   2.781  11.614  0.6004  1.0567 -0.4539
 3793TIP3    H235575   4.676   2.828  11.637  1.1594  2.6121 -0.0742
 3794TIP3   OH235576   3.402   6.589  13.706  0.7833 -0.5960 -0.0678
 3794TIP3    H135577   3.328   6.584  13.645  0.8309 -3.0085 -0.0264
 3794TIP3    H235578   3.371   6.646  13.776 -2.4480 -3.9834  1.6026
 3795TIP3   OH235579   6.455   2.820  13.563 -0.3066  0.3484 -0.2097
 3795TIP3    H135580   6.392   2.776  13.506  0.3579  0.9237 -1.4072
 3795TIP3    H235581   6.442   2.914  13.546  2.1163  0.4653 -1.9088
 3796TIP3   OH235582   7.342   0.402  12.202  0.1143 -0.2806 -0.3552
 3796TIP3    H135583   7.319   0.349  12.278  0.1548 -3.3936 -2.3156
 3796TIP3    H235584   7.260   0.447  12.178 -0.5225 -1.1400  0.1609
 3797TIP3   OH235585   2.193   3.554  13.074  0.3646  0.1452  0.6814
 3797TIP3    H135586   2.120   3.516  13.026  0.1197 -0.2413  1.3529
 3797TIP3    H235587   2.183   3.648  13.062 -0.3563  0.1031  0.9387
 3798TIP3   OH235588   6.614   2.428  11.154 -0.1629  0.4094  0.3719
 3798TIP3    H135589   6.613   2.379  11.236  0.2958  2.2110  1.4817
 3798TIP3    H235590   6.705   2.425  11.125  0.0222  1.2220  0.8424
 3799TIP3   OH235591   3.410   7.165  12.012 -0.0997  0.1870  0.4302
 3799TIP3    H135592   3.421   7.080  11.969 -0.6943 -0.6090  1.7945
 3799TIP3    H235593   3.321   7.163  12.046  0.3849  0.7447  1.7776
 3800TIP3   OH235594   1.448   3.346  12.585 -0.2099 -0.1983 -0.0593
 3800TIP3    H135595   1.482   3.345  12.496 -1.5058  1.2024 -0.6345
 3800TIP3    H235596   1.446   3.439  12.608 -2.1398 -0.3306  0.4854
 3801TIP3   OH235597   3.640   5.666  12.156  0.8593 -0.1086  0.1353
 3801TIP3    H135598   3.558   5.717  12.158  0.1171 -1.2821  0.7611
 3801TIP3    H235599   3.685   5.689  12.237 -0.2060 -1.5556  1.1887
 3802TIP3   OH235600   2.604   2.430  13.416  0.6619  0.0628 -0.4078
 3802TIP3    H135601   2.589   2.498  13.482  1.5255  0.6036 -0.7497
 3802TIP3    H235602   2.527   2.374  13.422  1.2998 -0.6787  1.9710
 3803TIP3   OH235603   4.100   0.805  12.365 -0.9850  0.2753 -0.1189
 3803TIP3    H135604   4.129   0.774  12.451 -1.3404  0.1045 -0.0578
 3803TIP3    H235605   4.176   0.850  12.329 -0.0648 -1.6622 -0.7104
 3804TIP3   OH235606   5.850   6.968  13.112 -0.8072  0.3920 -0.5381
 3804TIP3    H135607   5.797   7.029  13.060  1.0046  0.9437 -1.8065
 3804TIP3    H235608   5.912   6.930  13.050 -0.2301 -0.8544  0.7440
 3805TIP3   OH235609   4.437   0.629  13.075  0.1632 -0.0182  0.3401
 3805TIP3    H135610   4.524   0.615  13.037 -0.4276  0.0748 -1.0879
 3805TIP3    H235611   4.420   0.548  13.124  0.4092 -0.7040 -0.6674
 3806TIP3   OH235612   7.485   2.996  12.390  0.1347  0.1415  0.3841
 3806TIP3    H135613   7.442   2.911  12.398 -1.8177  1.1036  0.8255
 3806TIP3    H235614   7.413   3.059  12.389  1.5724  2.0632  3.4980
 3807TIP3   OH235615   1.501   3.603  12.840  0.3937 -0.3061  0.7781
 3807TIP3    H135616   1.552   3.669  12.792  0.1422  0.4760  1.5651
 3807TIP3    H235617   1.410   3.625  12.820  0.2745  0.1859  1.7980
 3808TIP3   OH235618   7.669   6.714  13.896  0.0127  0.0363  0.3979
 3808TIP3    H135619   7.618   6.790  13.924 -0.3232  0.5194 -1.3940
 3808TIP3    H235620   7.608   6.663  13.841  0.9276 -0.2864 -0.3554
 3809TIP3   OH235621   1.350   5.934  12.716 -0.0259  0.0239  0.2765
 3809TIP3    H135622   1.441   5.923  12.745 -0.0457  0.9261  0.7487
 3809TIP3    H235623   1.313   5.995  12.780 -0.9177 -0.2116 -0.0107
 3810TIP3   OH235624   6.296   5.404  12.472  0.1718 -0.0753 -0.0725
 3810TIP3    H135625   6.237   5.330  12.481  0.4524 -0.4863 -1.3885
 3810TIP3    H235626   6.381   5.370  12.499 -0.5771  1.4900  5.6896
 3811TIP3   OH235627   7.674   5.417  13.067 -1.0058 -0.0697 -0.5417
 3811TIP3    H135628   7.744   5.387  13.009 -0.4497 -1.4662  0.7891
 3811TIP3    H235629   7.596   5.416  13.013 -0.4963 -1.2821 -1.2913
 3812TIP3   OH235630   2.272   4.015  11.312  0.3539  0.2439 -0.5306
 3812TIP3    H135631   2.187   4.036  11.352  0.2376 -1.2945  0.0815
 3812TIP3    H235632   2.251   3.948  11.247  0.9433  0.7720 -1.2805
 3813TIP3   OH235633   1.239   1.841  13.625 -0.0842  0.3039  0.0476
 3813TIP3    H135634   1.244   1.829  13.720 -0.5584  0.9303  0.1587
 3813TIP3    H235635   1.302   1.778  13.590 -0.0388 -0.0685  0.7651
 3814TIP3   OH235636   1.934   6.209  12.966 -0.3697  0.2594  0.0364
 3814TIP3    H135637   1.967   6.134  12.917  0.3090  0.7533 -0.2805
 3814TIP3    H235638   2.013   6.256  12.995 -0.7775  0.6925  0.4796
 3815TIP3   OH235639   4.881   4.753  11.014  0.3415 -0.7047  0.8488
 3815TIP3    H135640   4.860   4.811  10.941  0.3915 -0.2386  1.1994
 3815TIP3    H235641   4.885   4.665  10.975  1.1790 -0.3654  0.1290
 3816TIP3   OH235642   0.582   3.753  13.203 -0.1130  0.1748  0.1566
 3816TIP3    H135643   0.521   3.706  13.147 -0.2450  0.0225  0.4296
 3816TIP3    H235644   0.658   3.695  13.211  0.8861  1.1023 -1.6827
 3817TIP3   OH235645   6.705   3.812  11.396  0.3942 -0.0650  0.7134
 3817TIP3    H135646   6.743   3.892  11.361 -1.6937  1.1328  1.0057
 3817TIP3    H235647   6.711   3.749  11.323 -2.3470  1.8681 -1.3944
 3818TIP3   OH235648   2.702   2.750  13.019 -0.8788 -0.2228 -0.5467
 3818TIP3    H135649   2.744   2.671  12.985 -0.2283 -0.6501  1.1317
 3818TIP3    H235650   2.610   2.727  13.027 -0.7850 -0.6173 -0.5878
 3819TIP3   OH235651   1.396   5.814  11.034  0.1061  0.2683 -0.1352
 3819TIP3    H135652   1.465   5.853  11.088  0.5073 -0.9992  0.3276
 3819TIP3    H235653   1.432   5.813  10.946  0.8735 -0.7091  0.1577
 3820TIP3   OH235654   6.079   2.642  11.635 -0.2668 -0.2349 -0.2555
 3820TIP3    H135655   6.088   2.563  11.689  2.0610 -0.4613 -0.8679
 3820TIP3    H235656   6.101   2.612  11.546 -0.2843  0.9075 -0.6527
 3821TIP3   OH235657   7.510   5.150  11.906  0.0763  0.3430 -0.8018
 3821TIP3    H135658   7.524   5.237  11.943 -0.4526 -0.1502  0.5983
 3821TIP3    H235659   7.496   5.166  11.813  0.3887  1.7103 -0.6393
 3822TIP3   OH235660   6.980   0.331  13.494 -0.0214  0.3515 -0.4763
 3822TIP3    H135661   6.975   0.426  13.508 -0.2642  0.2823 -0.0489
 3822TIP3    H235662   6.918   0.295  13.558  1.1794 -0.1894  0.4110
 3823TIP3   OH235663   2.739   1.157  11.143  0.5596 -0.0619 -0.6493
 3823TIP3    H135664   2.775   1.070  11.125  0.5215 -0.2436  0.0978
 3823TIP3    H235665   2.748   1.167  11.238 -0.9767  0.0521 -0.4863
 3824TIP3   OH235666   6.420   4.226  11.190  0.8261 -0.3424 -0.5039
 3824TIP3    H135667   6.510   4.220  11.160  0.7940  0.2510 -0.7174
 3824TIP3    H235668   6.368   4.194  11.116  0.9009 -1.4443 -0.0958
 3825TIP3   OH235669   6.044   0.091  13.856 -0.4975 -0.2504 -0.2963
 3825TIP3    H135670   6.063   0.047  13.939 -2.5398 -4.3980 -1.7584
 3825TIP3    H235671   5.969   0.148  13.876  0.7177  0.9370  1.1708
 3826TIP3   OH235672   0.969   5.589  13.290  0.2410  0.5284  0.3592
 3826TIP3    H135673   1.026   5.575  13.214  0.0769 -1.3034  0.5423
 3826TIP3    H235674   0.987   5.515  13.348 -0.8475  1.0128  1.3567
 3827TIP3   OH235675   7.372   6.950  13.034  0.6161 -0.9257  0.2336
 3827TIP3    H135676   7.310   6.878  13.027 -1.3084  0.3955  2.2966
 3827TIP3    H235677   7.435   6.922  13.100 -0.1688 -0.7503  1.0821
 3828TIP3   OH235678   7.249   6.449  11.529 -0.3705 -0.4874  0.3897
 3828TIP3    H135679   7.176   6.392  11.502  0.0775 -1.7482  1.6757
 3828TIP3    H235680   7.317   6.433  11.464 -1.3638  1.0904 -1.1218
 3829TIP3   OH235681   3.892   4.099  12.541  0.0647  0.0528  0.2575
 3829TIP3    H135682   3.942   4.022  12.513 -1.2122 -0.2724 -1.2383
 3829TIP3    H235683   3.823   4.063  12.597 -1.9184 -0.2503 -2.2345
 3830TIP3   OH235684   3.422   4.731  10.950 -0.3051 -0.3797 -0.1339
 3830TIP3    H135685   3.396   4.761  11.038  0.6447  1.2888 -0.3771
 3830TIP3    H235686   3.465   4.807  10.911  0.2482 -1.4382 -1.6617
 3831TIP3   OH235687   1.965   7.346  13.361 -0.2821  0.0217 -0.1019
 3831TIP3    H135688   2.059   7.356  13.347 -0.4059  0.8978 -0.3954
 3831TIP3    H235689   1.936   7.285  13.292  0.3127 -1.5049  0.9613
 3832TIP3   OH235690   5.833   1.949  13.200  0.8075  0.2965 -0.3768
 3832TIP3    H135691   5.912   1.935  13.251  0.8612  0.6069 -0.3751
 3832TIP3    H235692   5.762   1.913  13.254  0.7447  1.4071  0.3108
 3833TIP3   OH235693   5.655   2.019  12.364  0.5374 -0.6549  0.1924
 3833TIP3    H135694   5.662   1.924  12.362 -1.0766 -0.8115  0.4208
 3833TIP3    H235695   5.587   2.037  12.429 -0.4366  0.5406 -1.0890
 3834TIP3   OH235696   2.672   5.993  11.418  0.1777  0.0950  0.2798
 3834TIP3    H135697   2.620   6.037  11.351  0.3136 -1.2609 -0.7812
 3834TIP3    H235698   2.763   6.002  11.388  0.0769 -2.7136 -1.2158
 3835TIP3   OH235699   1.895   5.652  11.370 -0.7713 -0.6107 -0.1572
 3835TIP3    H135700   1.866   5.707  11.442 -1.9382  0.6123 -1.4921
 3835TIP3    H235701   1.815   5.610  11.338 -0.9281  1.4307 -2.7715
 3836TIP3   OH235702   5.833   0.622  11.679 -0.6396  0.5229 -0.4920
 3836TIP3    H135703   5.778   0.673  11.619  1.1013  1.2522 -1.5405
 3836TIP3    H235704   5.860   0.684  11.746 -1.1656  0.1383  0.0847
 3837TIP3   OH235705   4.689   0.606  10.891 -0.5977  0.0012 -0.7005
 3837TIP3    H135706   4.755   0.567  10.948 -1.5872 -1.0209 -0.2219
 3837TIP3    H235707   4.710   0.571  10.804 -0.0055  0.3528 -0.7026
 3838TIP3   OH235708   6.086   1.864  11.398 -0.1149 -0.2916 -0.0901
 3838TIP3    H135709   5.997   1.881  11.427 -0.0166 -2.8544  2.2191
 3838TIP3    H235710   6.077   1.819  11.314 -1.1271 -1.4348  0.5947
 3839TIP3   OH235711   0.242   1.896  10.860 -0.5286  0.7599 -0.3558
 3839TIP3    H135712   0.292   1.856  10.789 -1.5991 -2.0933  0.3796
 3839TIP3    H235713   0.307   1.921  10.925  0.1073 -1.7808  0.0642
 3840TIP3   OH235714   6.544   3.509  12.685 -0.2307  0.3649  0.2428
 3840TIP3    H135715   6.521   3.588  12.636 -0.6668  0.0709 -0.0402
 3840TIP3    H235716   6.551   3.538  12.776  0.5906  0.9173  0.0164
 3841TIP3   OH235717   1.679   1.171  13.229 -0.1814 -0.3995 -0.0730
 3841TIP3    H135718   1.596   1.182  13.183 -0.7604 -1.8986  0.5390
 3841TIP3    H235719   1.694   1.076  13.229  1.2803 -0.1909  0.2687
 3842TIP3   OH235720   5.821   0.341  11.665 -0.1628 -0.0574  0.4517
 3842TIP3    H135721   5.834   0.434  11.684 -0.7700  0.0671  0.2823
 3842TIP3    H235722   5.786   0.339  11.575 -0.0374 -0.4557  0.4072
 3843TIP3   OH235723   6.365   6.278  10.503 -0.1885 -0.1569  0.4527
 3843TIP3    H135724   6.322   6.217  10.442 -0.6107 -0.7267  1.2915
 3843TIP3    H235725   6.321   6.262  10.587  0.2596  0.7366  0.8657
 3844TIP3   OH235726   1.575   6.547  13.411  0.0781  0.0542  0.0649
 3844TIP3    H135727   1.515   6.497  13.355  0.7521 -1.4991  0.6649
 3844TIP3    H235728   1.573   6.501  13.494 -0.0426  1.6735  0.9930
 3845TIP3   OH235729   2.901   6.648  13.840  0.1706  0.0493 -0.4213
 3845TIP3    H135730   2.854   6.700  13.906 -0.3004  0.4377 -1.0571
 3845TIP3    H235731   2.833   6.615  13.782  0.5693 -0.4486 -0.6122
 3846TIP3   OH235732   0.290   0.337  13.300  0.3357  0.8299 -0.1595
 3846TIP3    H135733   0.298   0.246  13.329 -1.4046  0.3870 -0.9311
 3846TIP3    H235734   0.311   0.389  13.378 -0.5920 -0.2598  0.8589
 3847TIP3   OH235735   7.364   6.344  12.048  0.0317  0.3514  0.2427
 3847TIP3    H135736   7.338   6.345  11.956  0.9310 -0.2710 -0.0221
 3847TIP3    H235737   7.321   6.421  12.085 -1.3444 -0.0634 -0.4081
 3848TIP3   OH235738   3.436   4.728  11.952  0.7043  0.6037  0.3360
 3848TIP3    H135739   3.437   4.659  12.018  1.7113 -0.3564 -0.6304
 3848TIP3    H235740   3.522   4.770  11.959 -0.0046  1.9977  1.1128
 3849TIP3   OH235741   2.617   4.039  10.716  0.2728  0.7709  0.0010
 3849TIP3    H135742   2.614   3.946  10.736  1.9455  0.6935  0.0477
 3849TIP3    H235743   2.552   4.052  10.647 -0.4694 -0.2871  0.4888
 3850TIP3   OH235744   2.041   2.157  12.634 -0.0221 -0.0903 -0.3723
 3850TIP3    H135745   2.102   2.194  12.570 -0.0185  1.2457  0.3635
 3850TIP3    H235746   1.955   2.189  12.606 -0.5184 -2.4308 -1.7367
 3851TIP3   OH235747   6.385   6.814  12.682  0.3882 -0.5842 -0.1953
 3851TIP3    H135748   6.389   6.784  12.592 -2.3610 -0.8843 -0.2899
 3851TIP3    H235749   6.361   6.736  12.733  1.4012 -0.3093  0.7559
 3852TIP3   OH235750   6.995   1.743  11.908  0.2031  0.1656 -0.3619
 3852TIP3    H135751   6.979   1.792  11.988 -2.4297  0.9368 -1.2459
 3852TIP3    H235752   7.046   1.802  11.853  1.1684  0.0091  0.3448
 3853TIP3   OH235753   3.097   7.615  12.331 -0.4326 -0.0738 -0.1311
 3853TIP3    H135754   3.092   7.710  12.323 -1.0754 -0.1697 -1.0500
 3853TIP3    H235755   3.119   7.585  12.243  1.0681 -0.7159  0.4144
 3854TIP3   OH235756   6.866   7.501  11.661  0.2095 -0.1233  1.1657
 3854TIP3    H135757   6.885   7.572  11.723  1.2838  1.3811 -0.7582
 3854TIP3    H235758   6.780   7.524  11.624  1.1852  1.0805 -0.5093
 3855TIP3   OH235759   6.773   5.015  13.513 -0.4939 -0.2912 -0.0223
 3855TIP3    H135760   6.860   5.000  13.475 -0.5018  1.5812 -0.8903
 3855TIP3    H235761   6.713   4.971  13.453 -0.1876 -1.1726  0.3078
 3856TIP3   OH235762   6.411   0.702  12.496  0.4031  0.2595  0.2119
 3856TIP3    H135763   6.441   0.618  12.532 -0.2454 -0.3267 -0.5574
 3856TIP3    H235764   6.478   0.726  12.432  1.0662  0.8134  1.0988
 3857TIP3   OH235765   2.712   4.895  10.529  0.2495  0.0829  0.0988
 3857TIP3    H135766   2.649   4.855  10.589 -0.7452  1.2504 -0.1510
 3857TIP3    H235767   2.797   4.877  10.569 -0.2049 -1.5000  0.4449
 3858TIP3   OH235768   5.558   4.178  12.344 -0.7866 -0.3453  0.3009
 3858TIP3    H135769   5.474   4.223  12.353  0.2039  1.9574 -1.1919
 3858TIP3    H235770   5.597   4.214  12.265  0.3740 -3.5097 -0.7484
 3859TIP3   OH235771   3.459   1.549  11.198  0.6733 -0.0042  0.2390
 3859TIP3    H135772   3.445   1.498  11.118  2.2330 -2.7054  1.5337
 3859TIP3    H235773   3.514   1.622  11.170  0.8515 -0.6606 -1.2408
 3860TIP3   OH235774   5.555   6.144  12.145 -0.0654  0.5029 -0.0398
 3860TIP3    H135775   5.546   6.152  12.240  1.6290 -1.3679  0.3452
 3860TIP3    H235776   5.467   6.161  12.111 -1.2437 -1.0014  2.0533
 3861TIP3   OH235777   7.233   6.183  13.402 -0.1310 -0.2278 -0.7551
 3861TIP3    H135778   7.287   6.186  13.323 -1.9103  0.2625 -2.0170
 3861TIP3    H235779   7.250   6.266  13.446  0.9043 -0.5229 -0.5535
 3862TIP3   OH235780   7.545   0.277  13.624  0.8385  0.6600  0.1042
 3862TIP3    H135781   7.534   0.260  13.718  0.5953  0.6327  0.0723
 3862TIP3    H235782   7.455   0.286  13.591  0.9112  0.3148 -0.1924
 3863TIP3   OH235783   6.275   6.420  11.065 -0.1659 -0.6464  0.9439
 3863TIP3    H135784   6.230   6.342  11.033 -2.1159 -0.3153  2.6141
 3863TIP3    H235785   6.254   6.488  11.002 -0.4312 -0.9527  0.7002
 3864TIP3   OH235786   3.179   4.529  11.983 -0.3115  0.4591  0.2338
 3864TIP3    H135787   3.267   4.561  12.002 -0.4193  1.5009 -0.9109
 3864TIP3    H235788   3.189   4.477  11.904 -0.9563  1.9079 -0.8334
 3865TIP3   OH235789   7.046   3.569  12.310 -0.0383 -0.2280  0.4392
 3865TIP3    H135790   7.037   3.649  12.363  0.5025  0.1286  0.0044
 3865TIP3    H235791   6.992   3.505  12.355 -1.3611  0.6752  0.1978
 3866TIP3   OH235792   5.951   7.570  12.917 -0.7898 -0.4031 -0.4340
 3866TIP3    H135793   5.987   7.659  12.917  0.3541 -0.8192  0.8287
 3866TIP3    H235794   5.984   7.532  12.998 -1.1891 -2.0165 -1.0013
 3867TIP3   OH235795   5.340   0.313  13.454  0.2830  0.1357 -0.0875
 3867TIP3    H135796   5.245   0.313  13.441  0.3011 -1.0243 -0.2846
 3867TIP3    H235797   5.366   0.221  13.446  1.4256  0.4361 -0.0218
 3868TIP3   OH235798   1.766   5.684  12.877  0.5708  0.1982 -0.1106
 3868TIP3    H135799   1.701   5.742  12.839  1.6943  0.2854 -2.0586
 3868TIP3    H235800   1.718   5.605  12.900 -0.6451  1.1972  0.8466
 3869TIP3   OH235801   0.954   0.837  13.490 -0.6756 -0.1396  0.1685
 3869TIP3    H135802   0.911   0.906  13.542 -0.9712  0.5867 -0.9895
 3869TIP3    H235803   1.035   0.819  13.537  1.4078  3.8124 -1.4279
 3870TIP3   OH235804   0.889   2.433  10.945 -0.0700  0.7946  0.2248
 3870TIP3    H135805   0.817   2.493  10.964 -1.0863  0.1278 -1.3572
 3870TIP3    H235806   0.851   2.346  10.952  0.4766  0.4410 -0.9528
 3871TIP3   OH235807   6.298   5.796  12.944 -0.1768 -0.0868  0.2515
 3871TIP3    H135808   6.324   5.869  12.887 -0.1729 -0.9385 -0.8733
 3871TIP3    H235809   6.231   5.833  13.001  0.8898  1.1941  0.7440
 3872TIP3   OH235810   5.887   0.017  12.101  0.1839  0.0345  0.2816
 3872TIP3    H135811   5.854   0.038  12.189  0.5248  2.3665 -0.0959
 3872TIP3    H235812   5.841   0.078  12.043  0.3475 -1.1339 -1.1159
 3873TIP3   OH235813   6.748   2.320  13.633 -0.2567  0.0293 -0.0960
 3873TIP3    H135814   6.831   2.287  13.598 -0.5011  0.0144 -0.6794
 3873TIP3    H235815   6.760   2.415  13.636 -0.1586  0.0143 -0.0318
 3874TIP3   OH235816   4.854   2.896  12.759 -0.0542  0.3284 -0.5554
 3874TIP3    H135817   4.828   2.955  12.830  0.0460 -0.0597 -0.1876
 3874TIP3    H235818   4.776   2.843  12.743  0.0120  0.2278 -0.5423
 3875TIP3   OH235819   7.019   1.375  13.163 -0.3334  0.2121  0.0685
 3875TIP3    H135820   6.996   1.428  13.240  2.0214  2.2930 -0.5166
 3875TIP3    H235821   7.098   1.328  13.189  0.0498  0.3481 -0.8228
 3876TIP3   OH235822   3.489   7.277  13.125 -0.0670  0.1586  0.7049
 3876TIP3    H135823   3.491   7.182  13.135  0.0498 -0.0351 -0.9019
 3876TIP3    H235824   3.408   7.304  13.169 -0.5479 -0.7892  0.4282
 3877TIP3   OH235825   1.226   7.152  13.823 -0.7238  0.2872  0.3688
 3877TIP3    H135826   1.185   7.115  13.901 -1.0072 -1.1359 -0.4176
 3877TIP3    H235827   1.246   7.076  13.768  0.3808  1.1773 -0.5171
 3878TIP3   OH235828   7.147   4.640  11.679  0.1845 -0.2971 -0.3963
 3878TIP3    H135829   7.112   4.716  11.632  0.0664  1.4866  2.3091
 3878TIP3    H235830   7.082   4.571  11.666 -0.8809  0.8020 -1.0768
 3879TIP3   OH235831   1.735   1.560  11.597  0.4741 -0.0398  0.2885
 3879TIP3    H135832   1.641   1.549  11.609  0.6052 -1.7080 -0.0105
 3879TIP3    H235833   1.745   1.587  11.506  0.2694  0.5878  0.4461
 3880TIP3   OH235834   0.482   4.842  12.196  0.9028 -0.5468  0.4542
 3880TIP3    H135835   0.567   4.883  12.180  0.6803 -1.0053 -2.6493
 3880TIP3    H235836   0.418   4.904  12.160  0.4373 -2.5943 -2.6116
 3881TIP3   OH235837   6.970   6.339  12.525  0.4381  0.0473  0.0897
 3881TIP3    H135838   7.053   6.382  12.501 -0.2855  2.1051  1.0083
 3881TIP3    H235839   6.974   6.330  12.620  0.1747 -1.1282 -0.0018
 3882TIP3   OH235840   0.852   3.623  11.231  0.7423 -0.0251 -0.3121
 3882TIP3    H135841   0.835   3.534  11.201  0.2599 -0.2665  0.6449
 3882TIP3    H235842   0.767   3.667  11.222  0.9354  0.2929 -0.6110
 3883TIP3   OH235843   6.253   6.843  13.103 -0.3105 -0.0280  0.1729
 3883TIP3    H135844   6.186   6.846  13.035 -1.7643 -1.0902  1.4778
 3883TIP3    H235845   6.247   6.928  13.147  1.2173  0.9958 -1.4898
 3884TIP3   OH235846   3.109   7.632  13.746 -0.2855  0.0408 -0.6371
 3884TIP3    H135847   3.123   7.629  13.841  2.0961  0.3003 -0.9167
 3884TIP3    H235848   3.032   7.687  13.735 -0.2494  0.5114  1.1314
 3885TIP3   OH235849   1.215   6.986  13.583  0.4827 -0.3144  0.3424
 3885TIP3    H135850   1.194   6.895  13.563 -1.9570  0.1213  0.6362
 3885TIP3    H235851   1.242   7.023  13.499 -1.2281 -0.6399 -0.3910
 3886TIP3   OH235852   5.469   0.122  13.143  0.2718 -0.1211 -0.5654
 3886TIP3    H135853   5.522   0.098  13.067 -1.3704 -1.1449 -1.4607
 3886TIP3    H235854   5.510   0.077  13.217 -0.0426 -2.0116 -1.4555
 3887TIP3   OH235855   3.267   4.378  12.713  0.3283 -0.1257 -0.0154
 3887TIP3    H135856   3.294   4.423  12.793  3.0901 -0.7641 -0.4997
 3887TIP3    H235857   3.281   4.285  12.732 -0.0242 -0.3673 -0.8959
 3888TIP3   OH235858   5.599   6.973  11.067  0.6118 -0.6155  0.1831
 3888TIP3    H135859   5.607   6.980  11.162  1.1049 -1.1968  0.1900
 3888TIP3    H235860   5.689   6.970  11.035  0.4611  0.1973 -0.3623
 3889TIP3   OH235861   6.515   0.018  11.701  0.5588  0.8927 -0.4807
 3889TIP3    H135862   6.547   0.104  11.730  0.4782  1.0321 -0.7994
 3889TIP3    H235863   6.430   0.009  11.744  0.3257  1.2102 -0.8719
 3890TIP3   OH235864   4.181   0.125  13.109 -0.7552 -0.1907  0.1513
 3890TIP3    H135865   4.117   0.196  13.111  0.6995  1.1458  2.6616
 3890TIP3    H235866   4.183   0.091  13.198 -1.0623 -3.1821 -0.8476
 3891TIP3   OH235867   0.335   5.154  13.140  0.4601 -0.2297  0.0111
 3891TIP3    H135868   0.369   5.243  13.129  1.0595 -0.5961 -1.2748
 3891TIP3    H235869   0.369   5.106  13.065  0.3577 -1.6192  0.8215
 3892TIP3   OH235870   0.015   3.103  10.711  0.1607 -0.0769 -0.3190
 3892TIP3    H135871  -0.044   3.089  10.784 -0.3369  1.6743 -0.3346
 3892TIP3    H235872   0.052   3.017  10.692 -0.1365 -0.6597  1.6032
 3893TIP3   OH235873   6.101   0.368  10.967 -0.1764 -0.0515 -0.0678
 3893TIP3    H135874   6.008   0.367  10.987 -0.4831 -1.6039 -1.3594
 3893TIP3    H235875   6.143   0.328  11.044 -0.5289  0.8269  0.5970
 3894TIP3   OH235876   5.613   7.524  12.171  0.2623  0.2226 -0.1149
 3894TIP3    H135877   5.654   7.535  12.085  1.2742  0.7004  0.4088
 3894TIP3    H235878   5.541   7.587  12.171  0.2851  0.2567 -0.5928
 3895TIP3   OH235879   7.501   2.133  12.770 -0.4185 -0.0366  0.6176
 3895TIP3    H135880   7.521   2.039  12.771 -3.4930 -0.8135  1.3695
 3895TIP3    H235881   7.409   2.138  12.798  0.2811  3.4036  2.8610
 3896TIP3   OH235882   6.944   3.692  13.217 -0.0850  0.0682 -0.0420
 3896TIP3    H135883   7.019   3.730  13.171 -0.8713 -0.3181 -1.6936
 3896TIP3    H235884   6.890   3.767  13.241 -1.0131  0.1383 -2.1844
 3897TIP3   OH235885   3.509   7.535  12.655 -0.3729  0.1081  0.1860
 3897TIP3    H135886   3.487   7.547  12.563  0.2878 -1.7655 -0.2653
 3897TIP3    H235887   3.424   7.524  12.698 -0.6283 -0.7715 -0.5065
 3898TIP3   OH235888   1.407   3.413  12.999  0.3403  0.3004 -0.5236
 3898TIP3    H135889   1.447   3.489  12.957 -1.5272  1.2731 -0.6617
 3898TIP3    H235890   1.326   3.398  12.950 -0.3706 -0.4519  0.8167
 3899TIP3   OH235891   0.963   1.458  13.344 -0.1649 -0.0994  0.1175
 3899TIP3    H135892   1.012   1.497  13.272 -2.0294  0.3943 -0.9621
 3899TIP3    H235893   0.939   1.371  13.314 -2.5082  0.7526 -0.7132
 3900TIP3   OH235894   6.312   7.591  13.267 -0.3184 -0.2539 -0.1667
 3900TIP3    H135895   6.334   7.601  13.174 -1.8080  0.2479 -0.4940
 3900TIP3    H235896   6.397   7.588  13.311  0.4241 -0.7690 -1.5597
 3901TIP3   OH235897   4.672   6.178  13.442 -0.0624 -0.1696 -0.0254
 3901TIP3    H135898   4.618   6.255  13.426  0.6430  0.5074  0.7471
 3901TIP3    H235899   4.724   6.168  13.362  0.2164  0.4768  0.0668
 3902TIP3   OH235900   0.980   5.872  11.886  0.0095 -0.1675 -0.6244
 3902TIP3    H135901   1.067   5.853  11.849  0.6237 -1.7250  1.3851
 3902TIP3    H235902   0.994   5.949  11.940  0.4112 -0.9313  0.4006
 3903TIP3   OH235903   2.042   3.515  11.691  0.4940 -0.0566 -0.2700
 3903TIP3    H135904   1.975   3.582  11.675  1.0278  0.0677 -2.3140
 3903TIP3    H235905   2.125   3.559  11.672  0.9656 -0.8951 -0.2147
 3904TIP3   OH235906   6.373   2.006  12.933 -0.4790 -0.4262  0.7153
 3904TIP3    H135907   6.452   2.038  12.890 -1.3918  1.1359  0.1348
 3904TIP3    H235908   6.387   2.026  13.026 -0.2087 -0.0887  0.6051
 3905TIP3   OH235909   4.420   7.156  12.825  0.0076  0.2983 -0.0075
 3905TIP3    H135910   4.400   7.249  12.837  0.3469  0.5410 -1.2070
 3905TIP3    H235911   4.463   7.151  12.740 -1.7329 -1.1898 -0.8960
 3906TIP3   OH235912   5.709   4.291  13.389  0.1005 -0.3468  0.2089
 3906TIP3    H135913   5.721   4.344  13.468 -0.8122 -0.3329  0.3492
 3906TIP3    H235914   5.629   4.241  13.405  0.6413 -1.3759 -0.1479
 3907TIP3   OH235915   1.549   1.376  11.143 -0.0644  0.6709  0.2506
 3907TIP3    H135916   1.511   1.349  11.059 -0.0870  3.2036 -0.6471
 3907TIP3    H235917   1.474   1.409  11.193 -0.4455 -2.7769  2.2702
 3908TIP3   OH235918   4.853   5.741  13.044 -0.5432  0.1812 -0.0186
 3908TIP3    H135919   4.853   5.678  12.972 -2.9611 -0.4666  0.4635
 3908TIP3    H235920   4.762   5.742  13.076  0.1101  1.5900  2.0295
 3909TIP3   OH235921   7.141   2.613  13.509 -0.4616  0.1459  0.3568
 3909TIP3    H135922   7.074   2.642  13.447  0.6992  0.6471 -0.6960
 3909TIP3    H235923   7.194   2.691  13.526 -0.1519 -0.2327  1.2145
 3910TIP3   OH235924   3.008   3.871  12.078 -0.0817 -0.0084 -0.3203
 3910TIP3    H135925   3.047   3.783  12.075 -0.4061 -0.1442 -0.5580
 3910TIP3    H235926   2.914   3.855  12.085 -0.1993  0.3242 -1.1451
 3911TIP3   OH235927   1.078   6.784  11.450 -0.0311  0.4052 -0.0674
 3911TIP3    H135928   1.023   6.840  11.394 -1.0438  0.1353  0.6231
 3911TIP3    H235929   1.081   6.700  11.403 -0.8470  0.1906  0.2348
 3912TIP3   OH235930   2.438   3.368  11.629 -0.1698  0.0557 -0.0371
 3912TIP3    H135931   2.494   3.370  11.551  1.0775 -3.6285  0.5441
 3912TIP3    H235932   2.354   3.404  11.599  0.2583 -1.1654 -3.1605
 3913TIP3   OH235933   7.242   3.963  11.524  0.0215 -0.2727 -0.5995
 3913TIP3    H135934   7.155   4.002  11.521 -0.3007 -0.9786 -0.5740
 3913TIP3    H235935   7.287   4.010  11.594 -0.5115 -0.2534 -0.2654
 3914TIP3   OH235936   6.629   1.207  12.854 -0.3637 -0.3941  0.3760
 3914TIP3    H135937   6.572   1.157  12.911 -0.4433 -0.1035  0.5529
 3914TIP3    H235938   6.644   1.290  12.900  2.3891 -1.4591  1.6289
 3915TIP3   OH235939   2.213   3.784  12.781 -0.1852 -0.0481 -0.2138
 3915TIP3    H135940   2.225   3.702  12.733  0.9863  0.2916 -0.5193
 3915TIP3    H235941   2.120   3.784  12.804 -0.7640 -0.3381 -2.2905
 3916TIP3   OH235942   5.183   1.321  12.565  0.6961 -0.4982  0.1931
 3916TIP3    H135943   5.181   1.328  12.470  0.3500  0.2200  0.2438
 3916TIP3    H235944   5.173   1.411  12.596 -1.0273 -0.8979  0.9227
 3917TIP3   OH235945   3.657   7.068  12.755  0.5370 -0.2101 -0.3536
 3917TIP3    H135946   3.681   7.031  12.670 -1.2820 -2.1104 -0.1237
 3917TIP3    H235947   3.562   7.078  12.751  0.6756  2.1781  0.5538
 3918TIP3   OH235948   2.236   6.697  11.506  0.0448  0.1702 -0.1350
 3918TIP3    H135949   2.323   6.737  11.514 -1.0334  2.7169 -0.1636
 3918TIP3    H235950   2.237   6.625  11.570  1.8642  0.7055  0.5154
 3919TIP3   OH235951   7.598   6.640  12.950 -0.1392  0.2904  0.4495
 3919TIP3    H135952   7.558   6.554  12.962  0.6797 -0.3163 -0.9170
 3919TIP3    H235953   7.592   6.656  12.856  0.6824  1.2373  0.5460
 3920TIP3   OH235954   2.905   2.010  10.923  0.8199  0.3215  0.5768
 3920TIP3    H135955   2.865   2.090  10.890 -0.1010 -0.0796  0.6727
 3920TIP3    H235956   2.916   2.025  11.017 -0.1094  0.0500  0.7425
 3921TIP3   OH235957   4.445   4.269  13.409 -0.0322 -0.6096 -0.0491
 3921TIP3    H135958   4.463   4.287  13.317 -1.6158  0.6602 -0.1605
 3921TIP3    H235959   4.436   4.356  13.449 -1.9055 -1.1245  0.7385
 3922TIP3   OH235960   4.442   5.487  13.131 -0.0298  0.1826  0.3181
 3922TIP3    H135961   4.411   5.429  13.061  0.4121  0.1176  0.1758
 3922TIP3    H235962   4.480   5.427  13.196  1.6995  0.3712 -0.4529
 3923TIP3   OH235963   6.425   4.680  13.496  0.1291  0.1673 -0.1893
 3923TIP3    H135964   6.476   4.739  13.552  1.1838 -0.7462 -0.1475
 3923TIP3    H235965   6.336   4.688  13.529  0.3518  1.2651  0.2184
 3924TIP3   OH235966   6.561   0.943  11.650 -0.1294 -0.4055  0.3029
 3924TIP3    H135967   6.519   0.967  11.567 -1.3558  0.2112  1.0583
 3924TIP3    H235968   6.630   1.007  11.662  1.5207 -1.7972 -1.2650
 3925TIP3   OH235969   5.661   5.863  10.973  0.0091 -0.4263  0.4999
 3925TIP3    H135970   5.680   5.914  10.895  0.7722  1.0110  1.5647
 3925TIP3    H235971   5.736   5.804  10.983 -0.7145 -1.5500 -0.5508
 3926TIP3   OH235972   3.845   4.729  11.433  0.8581 -0.7875 -0.5893
 3926TIP3    H135973   3.755   4.756  11.455  1.2681 -1.9596  3.2203
 3926TIP3    H235974   3.846   4.635  11.449  2.5890 -0.9729 -1.5816
 3927TIP3   OH235975   0.344   2.294  12.705 -0.0374 -0.3789 -0.2664
 3927TIP3    H135976   0.253   2.268  12.690  0.0967 -0.2422 -1.4134
 3927TIP3    H235977   0.338   2.383  12.740 -0.3301 -0.0505 -1.1241
 3928TIP3   OH235978   0.253   3.217  13.571 -0.3150 -0.5981 -0.3852
 3928TIP3    H135979   0.314   3.257  13.510 -1.5262  0.9847 -0.6311
 3928TIP3    H235980   0.265   3.123  13.559  3.2647 -0.4392  0.8460
 3929TIP3   OH235981   1.830   2.259  12.499  0.1979  0.1044  0.1120
 3929TIP3    H135982   1.848   2.336  12.554  0.3342 -0.1799  0.4687
 3929TIP3    H235983   1.799   2.296  12.416 -0.9713  0.5222  0.7143
 3930TIP3   OH235984   6.684   5.760  12.776 -0.0709  0.1823 -0.2482
 3930TIP3    H135985   6.754   5.817  12.745 -0.5920  1.3047  0.5581
 3930TIP3    H235986   6.729   5.689  12.820  0.5846  0.8816  0.2426
 3931TIP3   OH235987   2.057   6.199  13.712  0.4337  0.2995 -0.4856
 3931TIP3    H135988   2.019   6.212  13.625  1.4099  0.7825 -0.8527
 3931TIP3    H235989   2.135   6.146  13.696  0.3647 -0.0046  0.1607
 3932TIP3   OH235990   1.357   3.651  12.330 -0.0158 -0.2371  0.3622
 3932TIP3    H135991   1.414   3.720  12.366 -1.2920  0.7472  0.5720
 3932TIP3    H235992   1.374   3.654  12.236  1.4786 -1.1009  0.5664
 3933TIP3   OH235993   4.301   5.685  11.778  0.2423  0.6880  0.2059
 3933TIP3    H135994   4.300   5.742  11.701 -0.1649 -0.7936 -0.9279
 3933TIP3    H235995   4.375   5.716  11.830 -0.8483  3.1983  0.3996
 3934TIP3   OH235996   1.144   7.625  11.743  0.1255 -0.1339 -0.2957
 3934TIP3    H135997   1.190   7.669  11.671  0.5303  0.5561  0.3720
 3934TIP3    H235998   1.060   7.669  11.748 -0.0008 -0.3471 -0.4977
 3935TIP3   OH235999   2.395   0.542  13.106  0.2147 -0.6960 -0.2891
 3935TIP3    H136000   2.394   0.605  13.178  0.3866 -1.1390  0.1027
 3935TIP3    H236001   2.365   0.592  13.030  2.0350  0.3174 -0.3749
 3936TIP3   OH236002   0.143   7.294  11.304  0.3125  0.0697 -0.2358
 3936TIP3    H136003   0.088   7.369  11.325  0.7177  0.5202 -0.7557
 3936TIP3    H236004   0.088   7.218  11.320 -0.4051  0.5061 -0.6025
 3937TIP3   OH236005   4.925   3.153  12.446 -0.4970 -0.3246 -0.0359
 3937TIP3    H136006   5.014   3.120  12.433 -0.4516 -0.5579  0.8030
 3937TIP3    H236007   4.868   3.078  12.429 -0.3716 -1.0623  2.3634
 3938TIP3   OH236008   3.609   6.400  11.533 -0.0182  0.3176  0.0503
 3938TIP3    H136009   3.650   6.326  11.579 -1.8738 -0.3269  0.7548
 3938TIP3    H236010   3.672   6.423  11.465  1.1897 -1.0719  0.6372
 3939TIP3   OH236011   6.607   5.877  13.452 -0.3118  0.2065 -0.2682
 3939TIP3    H136012   6.568   5.863  13.366 -0.2602 -0.5105 -0.1882
 3939TIP3    H236013   6.646   5.964  13.448  0.0351  0.0192 -1.1084
 3940TIP3   OH236014   3.699   0.463  12.673  0.2085  0.0933 -0.0130
 3940TIP3    H136015   3.709   0.558  12.670  0.7299  0.0671  0.5448
 3940TIP3    H236016   3.789   0.430  12.676  0.0287 -0.3438  1.4073
 3941TIP3   OH236017   4.596   4.990  13.584  0.3665 -0.6534 -1.0637
 3941TIP3    H136018   4.576   5.008  13.492 -1.5013 -0.1731 -0.6010
 3941TIP3    H236019   4.539   5.049  13.633  0.8420 -1.3858  0.4289
 3942TIP3   OH236020   5.853   5.923  10.781  0.4284 -0.0257  0.5976
 3942TIP3    H136021   5.787   5.989  10.761 -0.0041 -0.4773  0.5219
 3942TIP3    H236022   5.937   5.967  10.763  0.1287 -0.7461 -3.5590
 3943TIP3   OH236023   4.824   5.528  12.876  0.2282 -0.1227 -0.5233
 3943TIP3    H136024   4.854   5.476  12.800  1.3552 -0.4507  0.1201
 3943TIP3    H236025   4.786   5.463  12.935 -0.9227  0.1720 -0.9160
 3944TIP3   OH236026   4.895   0.350  11.617  0.1477  0.4533 -0.0088
 3944TIP3    H136027   4.823   0.401  11.654  0.5279  2.1833 -1.5220
 3944TIP3    H236028   4.894   0.372  11.524  2.3003  0.0927 -0.1588
 3945TIP3   OH236029   6.633   2.759  11.348 -0.3312  0.0864  0.0517
 3945TIP3    H136030   6.577   2.683  11.366 -0.8590  0.5330  0.2940
 3945TIP3    H236031   6.602   2.791  11.263 -0.1328  0.0594 -0.0320
 3946TIP3   OH236032   3.890   7.465  12.878  0.4007  0.0754 -0.4383
 3946TIP3    H136033   3.829   7.534  12.852 -0.5447 -0.5019  0.1557
 3946TIP3    H236034   3.834   7.392  12.904  1.3523 -0.5118  0.0491
 3947TIP3   OH236035   0.180   3.489  11.993  0.3418 -0.4678  0.1797
 3947TIP3    H136036   0.215   3.402  11.975  0.6767 -0.6315  1.5043
 3947TIP3    H236037   0.257   3.547  11.988  0.2611 -0.3681  0.0900
 3948TIP3   OH236038   3.625   7.641  11.442  0.1910  0.3073 -0.0165
 3948TIP3    H136039   3.671   7.714  11.484  1.1925  0.0277 -0.5820
 3948TIP3    H236040   3.654   7.645  11.350 -0.9241  0.1127 -0.3894
 3949TIP3   OH236041   7.569   3.907  11.456  0.3308 -0.1899  0.2610
 3949TIP3    H136042   7.529   3.994  11.451 -0.8152 -0.7470 -2.0611
 3949TIP3    H236043   7.615   3.898  11.372 -1.3286 -2.5466 -0.5061
 3950TIP3   OH236044   1.653   5.447  12.566  0.7817 -0.1909 -0.0656
 3950TIP3    H136045   1.727   5.457  12.506  1.7287 -1.0293  0.9079
 3950TIP3    H236046   1.581   5.492  12.523  1.7207  0.2074 -1.2926
 3951TIP3   OH236047   0.927   1.194  12.591  0.4603 -0.5246  0.0032
 3951TIP3    H136048   0.946   1.286  12.612 -1.3790 -0.3601  1.1516
 3951TIP3    H236049   0.886   1.197  12.504 -0.4678 -0.1385  0.4469
 3952TIP3   OH236050   7.600   6.817  11.462  0.3607  0.1384 -0.7136
 3952TIP3    H136051   7.507   6.813  11.439  0.4167 -0.2621 -0.8610
 3952TIP3    H236052   7.600   6.828  11.558  0.1723 -2.2113 -0.3794
 3953TIP3   OH236053   4.154   6.754  10.799  0.0634 -0.4434 -0.1039
 3953TIP3    H136054   4.147   6.659  10.793  1.9744 -0.9739  3.3880
 3953TIP3    H236055   4.092   6.779  10.868  1.9424  0.2977  1.4009
 3954TIP3   OH236056   5.443   1.935  11.390 -0.1787 -0.1779  0.4062
 3954TIP3    H136057   5.537   1.926  11.405 -0.5018 -2.0679  1.4765
 3954TIP3    H236058   5.426   1.885  11.310  0.0013  1.9364 -1.0533
 3955TIP3   OH236059   3.134   7.536  12.074 -0.1055 -0.3897 -0.3546
 3955TIP3    H136060   3.103   7.461  12.023  1.2392 -1.1324 -0.1390
 3955TIP3    H236061   3.182   7.589  12.011  0.9513 -0.9433 -0.0375
 3956TIP3   OH236062   0.255   2.040  13.444 -0.4276 -0.0487 -0.5948
 3956TIP3    H136063   0.328   1.989  13.478  0.0721  1.8885  1.5550
 3956TIP3    H236064   0.287   2.079  13.363  0.5694 -0.0457 -0.2054
 3957TIP3   OH236065   5.470   2.370  11.759 -0.0884  0.1667 -0.2590
 3957TIP3    H136066   5.550   2.322  11.780  0.0867  0.0951 -1.0385
 3957TIP3    H236067   5.467   2.369  11.663  0.2044  2.1814 -0.3223
 3958TIP3   OH236068   1.720   6.793  11.630  0.7311 -0.2296 -0.0673
 3958TIP3    H136069   1.751   6.858  11.693 -0.5741  1.2106 -0.8374
 3958TIP3    H236070   1.770   6.811  11.551 -0.7816  0.9860 -0.7910
 3959TIP3   OH236071   1.300   5.881  13.061 -0.4210  0.5105 -0.0147
 3959TIP3    H136072   1.284   5.968  13.024  0.6369  0.6106 -0.2694
 3959TIP3    H236073   1.390   5.861  13.037 -0.1282  0.0264  1.4291
 3960TIP3   OH236074   2.760   1.283  13.117  0.0814 -0.6149 -0.0707
 3960TIP3    H136075   2.788   1.224  13.047 -0.6714 -0.5764 -0.4132
 3960TIP3    H236076   2.762   1.370  13.077  1.2541 -0.3722  0.4515
 3961TIP3   OH236077   4.002   2.660  13.227 -0.0093  0.0987  0.2816
 3961TIP3    H136078   4.033   2.657  13.136  0.6489 -2.0439  0.5249
 3961TIP3    H236079   3.913   2.625  13.223  0.9524 -2.6900  0.7178
 3962TIP3   OH236080   5.771   1.485  11.608 -0.1586  0.1206 -0.1599
 3962TIP3    H136081   5.863   1.482  11.633 -0.3696 -0.4629  0.5644
 3962TIP3    H236082   5.768   1.441  11.523  0.4985  1.7789 -1.1073
 3963TIP3   OH236083   7.327   7.674  13.451  0.1061 -0.0576  0.2230
 3963TIP3    H136084   7.283   7.742  13.502 -0.6147 -0.7131  0.5016
 3963TIP3    H236085   7.362   7.613  13.517 -2.6159 -2.0295 -0.0041
 3964TIP3   OH236086   4.470   0.082  12.170  0.0316  0.1094 -0.1598
 3964TIP3    H136087   4.382   0.044  12.168  1.1307 -2.6814 -0.3838
 3964TIP3    H236088   4.480   0.125  12.085 -0.5953 -0.9868 -0.8216
 3965TIP3   OH236089   0.970   1.922  11.478  0.4508  0.0145 -0.2246
 3965TIP3    H136090   0.916   1.937  11.401  0.6625  1.5349 -0.0926
 3965TIP3    H236091   1.027   1.849  11.452 -0.0893 -0.0928 -1.1766
 3966TIP3   OH236092   7.195   5.338  11.869 -0.4789  0.0055 -0.7216
 3966TIP3    H136093   7.238   5.350  11.954 -0.1741 -0.3232 -0.8242
 3966TIP3    H236094   7.266   5.310  11.811 -0.9514 -1.2157 -0.7376
 3967TIP3   OH236095   0.284   0.048  12.186  0.1951 -0.0363  0.0317
 3967TIP3    H136096   0.225  -0.025  12.207 -0.7169  0.8822  0.7789
 3967TIP3    H236097   0.326   0.069  12.270  1.3730 -0.4649 -0.4262
 3968TIP3   OH236098   0.270   6.124  11.267  0.0346 -0.1989  0.6525
 3968TIP3    H136099   0.183   6.086  11.279  0.3334 -0.9053  0.6208
 3968TIP3    H236100   0.259   6.191  11.199 -0.8552  1.0196  1.9401
 3969TIP3   OH236101   2.730   2.626  12.325  0.0070 -0.0758  0.0381
 3969TIP3    H136102   2.694   2.694  12.382 -1.5695 -0.6000 -0.2874
 3969TIP3    H236103   2.809   2.597  12.370 -0.4063  0.5472  1.2229
 3970TIP3   OH236104   0.237   7.137  13.654 -0.1802  0.5582 -0.3105
 3970TIP3    H136105   0.317   7.093  13.625 -0.7932 -0.6560 -0.1897
 3970TIP3    H236106   0.225   7.209  13.592 -0.1809 -0.5728 -1.6497
 3971TIP3   OH236107   6.874   3.394  11.979 -0.1469 -0.1493  0.5848
 3971TIP3    H136108   6.809   3.330  12.007 -0.0792 -0.1014  0.8541
 3971TIP3    H236109   6.838   3.432  11.899 -0.7456  0.3239  1.0731
 3972TIP3   OH236110   0.918   6.556  13.039 -0.0174 -0.7265 -0.4748
 3972TIP3    H136111   0.873   6.483  13.082 -1.4839  0.0176 -0.6705
 3972TIP3    H236112   0.975   6.514  12.975  0.1266 -1.7436  0.2819
 3973TIP3   OH236113   1.449   0.403  11.068  0.3352  0.2496 -0.0861
 3973TIP3    H136114   1.401   0.323  11.088  1.0247 -0.1788 -0.1055
 3973TIP3    H236115   1.474   0.393  10.976  2.3244 -0.5629  0.4797
 3974TIP3   OH236116   7.159   4.276  12.635 -0.1517 -0.0108  0.0182
 3974TIP3    H136117   7.230   4.217  12.611  0.2400  0.5242 -0.1508
 3974TIP3    H236118   7.080   4.234  12.601  0.2794  0.2365 -1.3279
 3975TIP3   OH236119   0.053   7.048  11.357  0.3475 -0.1433  0.3043
 3975TIP3    H136120   0.053   7.053  11.261 -0.5726 -0.8228  0.2504
 3975TIP3    H236121   0.002   6.969  11.376 -0.3607  0.5470  1.3715
 3976TIP3   OH236122   7.164   3.734  11.848 -0.5890  0.4573 -0.5579
 3976TIP3    H136123   7.090   3.786  11.815 -2.0505 -0.4192  1.1781
 3976TIP3    H236124   7.134   3.700  11.932  1.0126 -1.6999 -0.7767
 3977TIP3   OH236125   5.466   6.178  11.242 -0.1318  0.1041  0.3982
 3977TIP3    H136126   5.440   6.098  11.199 -1.3938  0.1515  1.0280
 3977TIP3    H236127   5.385   6.229  11.252  0.0187  0.0198  2.9103
 3978TIP3   OH236128   4.285   0.963  12.236  0.2637  0.3311 -0.3007
 3978TIP3    H136129   4.378   0.956  12.257  0.1018  1.4028  0.8509
 3978TIP3    H236130   4.281   1.026  12.164  0.4101  0.4091 -0.2395
 3979TIP3   OH236131   4.140   2.395  12.172 -0.6655  0.2987 -0.3288
 3979TIP3    H136132   4.121   2.302  12.181 -3.0939  0.8533  1.2322
 3979TIP3    H236133   4.184   2.402  12.087  1.3579 -2.4465  0.3513
 3980TIP3   OH236134   5.634   1.781  13.570 -0.5789  0.1891 -0.1221
 3980TIP3    H136135   5.695   1.707  13.574  0.8413  1.3402  0.3092
 3980TIP3    H236136   5.551   1.742  13.544  0.6441 -1.2696 -2.1375
 3981TIP3   OH236137   0.239   7.083  12.793 -0.8425  0.7500 -0.4301
 3981TIP3    H136138   0.248   7.017  12.725 -1.4909 -0.3839  0.5449
 3981TIP3    H236139   0.209   7.161  12.746  0.4003  0.5245 -1.6645
 3982TIP3   OH236140   1.264   3.075  13.090 -0.3695  0.7551  0.1116
 3982TIP3    H136141   1.236   2.989  13.119 -0.5201  1.6002  2.7131
 3982TIP3    H236142   1.184   3.128  13.091 -0.2859  0.9527 -1.4854
 3983TIP3   OH236143   1.672   3.713  10.796  0.0781  0.4578  0.0123
 3983TIP3    H136144   1.693   3.798  10.834  0.1734  0.0582  0.8705
 3983TIP3    H236145   1.595   3.683  10.844 -0.5180  0.4503 -0.9040
 3984TIP3   OH236146   1.279   1.400  13.480 -0.2089 -0.0685  0.2142
 3984TIP3    H136147   1.242   1.445  13.404 -0.9018  0.6708  0.9638
 3984TIP3    H236148   1.276   1.308  13.457 -0.2120  0.1631 -0.7418
 3985TIP3   OH236149   1.870   4.018  12.043  0.2254  0.2057 -0.4064
 3985TIP3    H136150   1.793   3.988  12.092  0.2345  0.2891 -0.3393
 3985TIP3    H236151   1.888   4.105  12.079  0.1080  0.3531 -0.7034
 3986TIP3   OH236152   5.499   3.749  11.232 -0.1404 -0.4666  0.8625
 3986TIP3    H136153   5.432   3.682  11.219  0.2760 -1.1390  1.9663
 3986TIP3    H236154   5.546   3.754  11.149 -0.5851 -1.0946  0.5682
 3987TIP3   OH236155   2.481   1.183  12.412 -0.4826 -0.3133  0.7911
 3987TIP3    H136156   2.572   1.210  12.425 -1.0803  1.7136  1.1288
 3987TIP3    H236157   2.473   1.170  12.318 -0.0026  0.2198  0.6687
 3988TIP3   OH236158   4.199   2.863  13.363  0.1027 -0.0713  0.4244
 3988TIP3    H136159   4.117   2.815  13.354  1.2950 -1.8695 -1.7632
 3988TIP3    H236160   4.225   2.849  13.454 -1.7598  0.1692  1.0324
 3989TIP3   OH236161   6.258   6.649  13.301 -0.2131 -0.5305  0.5479
 3989TIP3    H136162   6.274   6.710  13.229  1.9618 -0.5521  0.9391
 3989TIP3    H236163   6.239   6.704  13.376 -0.4244 -0.4305  0.4215
 3990TIP3   OH236164   3.285   0.524  12.269 -0.3348  0.2121 -0.3824
 3990TIP3    H136165   3.345   0.567  12.208 -0.2998  0.5576 -0.1099
 3990TIP3    H236166   3.198   0.552  12.240 -0.4035 -0.7044 -1.0968
 3991TIP3   OH236167   0.745   2.920  11.523 -0.0712 -0.0960  0.2600
 3991TIP3    H136168   0.702   2.973  11.455 -0.5827 -0.3805  0.3616
 3991TIP3    H236169   0.817   2.877  11.477 -1.2143 -1.3303 -0.4243
 3992TIP3   OH236170   1.731   0.512  11.607  0.0764  0.2974 -0.5017
 3992TIP3    H136171   1.738   0.525  11.512  3.1799 -1.1394 -0.5953
 3992TIP3    H236172   1.808   0.557  11.643 -0.6409  0.1955  1.2715
 3993TIP3   OH236173   3.586   3.354  13.263 -0.0149 -0.1248 -0.4087
 3993TIP3    H136174   3.494   3.369  13.284  0.0321 -0.3376 -0.0356
 3993TIP3    H236175   3.619   3.440  13.236 -0.3590 -0.0799 -0.6865
 3994TIP3   OH236176   7.428   6.759  12.308 -0.0491  0.5395  0.7367
 3994TIP3    H136177   7.405   6.828  12.370 -2.1703  1.0395 -0.5217
 3994TIP3    H236178   7.363   6.766  12.238  0.2467 -2.1173  0.0825
 3995TIP3   OH236179   3.438   4.511  12.123 -0.2289 -0.2515  0.4249
 3995TIP3    H136180   3.422   4.417  12.111  0.5719 -0.0797 -3.4908
 3995TIP3    H236181   3.487   4.516  12.205 -2.8691 -2.8136  2.3928
 3996TIP3   OH236182   3.259   1.959  12.769 -0.4646  0.5669  0.2434
 3996TIP3    H136183   3.264   1.870  12.805  2.5443  1.5147  2.6739
 3996TIP3    H236184   3.345   1.973  12.729 -1.3214  2.0039 -1.1914
 3997TIP3   OH236185   6.640   1.876  11.692  0.0940 -0.3044  1.1691
 3997TIP3    H136186   6.572   1.942  11.679  1.3944  1.0076  0.7251
 3997TIP3    H236187   6.595   1.792  11.685 -1.1799  0.4897 -0.8379
 3998TIP3   OH236188   7.064   5.083  12.561 -0.4832 -0.2086  0.5623
 3998TIP3    H136189   7.074   5.110  12.653  0.7200 -1.8814  0.9732
 3998TIP3    H236190   7.135   5.128  12.515 -1.2315  0.8178  0.3872
 3999TIP3   OH236191   1.112   2.269  13.770  0.4427 -0.1849  0.1166
 3999TIP3    H136192   1.206   2.259  13.760  0.3016 -0.5250 -1.0453
 3999TIP3    H236193   1.087   2.204  13.836  1.1090  0.4241  0.9877
 4000TIP3   OH236194   3.108   2.623  11.221 -0.0857  0.1396  0.4347
 4000TIP3    H136195   3.025   2.607  11.264 -0.2529 -0.0570  0.0403
 4000TIP3    H236196   3.164   2.549  11.247  0.3447  0.8610  1.6316
 4001TIP3   OH236197   5.502   5.198  12.017 -0.0674  0.3025 -0.5812
 4001TIP3    H136198   5.438   5.150  12.069 -0.4648  2.1540  0.7753
 4001TIP3    H236199   5.586   5.181  12.060  0.1187 -0.7979 -1.3563
 4002TIP3   OH236200   6.565   4.733  11.837 -0.4128  0.5638 -0.5936
 4002TIP3    H136201   6.562   4.781  11.920 -1.8494 -1.4134  0.5939
 4002TIP3    H236202   6.555   4.641  11.862  1.2436 -0.3247 -2.8224
 4003TIP3   OH236203   2.514   2.148  10.679  0.5655  0.5295  0.6705
 4003TIP3    H136204   2.517   2.194  10.763 -1.4293 -0.4506  1.3706
 4003TIP3    H236205   2.509   2.055  10.703 -1.5895  0.2937 -0.4076
 4004TIP3   OH236206   0.469   1.117  12.543  0.4216  0.8119  0.0154
 4004TIP3    H136207   0.507   1.179  12.605 -1.1208  1.3024  0.5294
 4004TIP3    H236208   0.442   1.172  12.468 -2.1683  1.0711  1.0332
 4005TIP3   OH236209   3.768   1.911  12.300 -0.0645  0.2290 -0.5831
 4005TIP3    H136210   3.846   1.857  12.314 -1.1829 -1.3123 -0.1222
 4005TIP3    H236211   3.789   1.963  12.222  1.2094 -0.5382 -0.7778
 4006TIP3   OH236212   0.534   2.408  13.046  0.3567 -0.7247 -0.2644
 4006TIP3    H136213   0.503   2.479  12.989 -0.2745  0.1937  1.1828
 4006TIP3    H236214   0.457   2.380  13.094  1.6407  2.3153  4.2177
 4007TIP3   OH236215   5.301   6.128  12.638  0.8188  0.6053  0.6595
 4007TIP3    H136216   5.206   6.122  12.650  0.6241 -1.2578 -1.2146
 4007TIP3    H236217   5.336   6.067  12.703  0.6113  0.0161  0.2256
 4008TIP3   OH236218   5.807   2.899  11.988  0.1026 -0.1978  0.2006
 4008TIP3    H136219   5.861   2.888  12.066 -0.4154 -0.2933  0.5525
 4008TIP3    H236220   5.792   2.994  11.982  0.8298 -0.0982 -0.2671
 4009TIP3   OH236221   0.363   4.723  11.582 -1.0523 -0.1614 -0.1047
 4009TIP3    H136222   0.334   4.633  11.599 -1.2731 -0.4035 -1.6161
 4009TIP3    H236223   0.314   4.775  11.646  0.5361 -1.2570  2.1312
 4010TIP3   OH236224   3.430   6.915  12.187 -0.0070 -0.7906 -0.2201
 4010TIP3    H136225   3.397   6.975  12.120  1.1785 -0.0462 -0.1600
 4010TIP3    H236226   3.450   6.835  12.140  1.0614 -0.1843 -0.8241
 4011TIP3   OH236227   5.314   3.949  13.490  0.0932  0.0456  0.2703
 4011TIP3    H136228   5.260   3.999  13.429 -0.3962  1.2794  1.6544
 4011TIP3    H236229   5.268   3.866  13.500 -1.5495  1.0419  1.3677
 4012TIP3   OH236230   5.649   0.299  11.409 -0.2257 -0.1002  0.9006
 4012TIP3    H136231   5.576   0.240  11.425 -0.2618 -0.5063 -0.6528
 4012TIP3    H236232   5.645   0.318  11.315  2.2918 -1.0158  0.5277
 4013TIP3   OH236233   7.455   5.789  13.214 -0.9876 -0.2881  0.0072
 4013TIP3    H136234   7.397   5.748  13.149 -0.1175 -0.6205 -0.5748
 4013TIP3    H236235   7.537   5.741  13.206 -0.6518  0.1332  0.8781
 4014TIP3   OH236236   2.389   6.526  11.044 -0.1489  0.3006  0.0836
 4014TIP3    H136237   2.474   6.482  11.051  0.0955  0.0889 -2.8670
 4014TIP3    H236238   2.325   6.455  11.048  0.0152  0.0956 -0.8030
 4015TIP3   OH236239   1.175   6.392  11.491 -0.2274  0.0243  0.8253
 4015TIP3    H136240   1.147   6.441  11.413 -1.3460 -0.6437  0.7825
 4015TIP3    H236241   1.143   6.444  11.565 -0.5235 -0.1166  0.7990
 4016TIP3   OH236242   2.936   7.417  11.499  0.4705 -0.2284  0.1653
 4016TIP3    H136243   2.842   7.430  11.488  0.6342 -0.2126 -1.3551
 4016TIP3    H236244   2.946   7.397  11.592 -1.0577 -0.4389  0.3110
 4017TIP3   OH236245   5.757   6.694  13.170 -0.0506  0.7512 -0.1535
 4017TIP3    H136246   5.793   6.776  13.136  0.1057  1.3336  1.3670
 4017TIP3    H236247   5.831   6.651  13.213 -0.8716  1.5376  2.2074
 4018TIP3   OH236248   0.896   2.566  13.828 -0.3205 -0.1646 -0.0719
 4018TIP3    H136249   0.890   2.638  13.765 -1.0420  0.4372  0.6592
 4018TIP3    H236250   0.897   2.609  13.914  1.5035 -0.9223  0.3315
 4019TIP3   OH236251   1.508   3.959  13.608  0.5694  0.3368  0.1088
 4019TIP3    H136252   1.534   3.876  13.647  1.4268  1.0261  1.0625
 4019TIP3    H236253   1.438   3.936  13.547 -0.2669 -0.8836  1.4592
 4020TIP3   OH236254   6.364   6.702  10.698  0.4681 -0.0801  0.2205
 4020TIP3    H136255   6.403   6.615  10.709  1.3375  0.0684 -1.3715
 4020TIP3    H236256   6.309   6.693  10.620  0.5680  0.7931  0.0436
 4021TIP3   OH236257   3.510   3.921  11.794  0.2556  0.5269  0.3754
 4021TIP3    H136258   3.546   3.972  11.722  0.9111 -1.8699 -1.1313
 4021TIP3    H236259   3.586   3.886  11.840 -0.1724  0.5797  1.1479
 4022TIP3   OH236260   2.434   0.902  13.592 -0.3365  0.3667  0.1246
 4022TIP3    H136261   2.344   0.900  13.561  0.4086 -2.1607 -2.3049
 4022TIP3    H236262   2.468   0.987  13.565 -1.2126  0.2051 -1.5681
 4023TIP3   OH236263   1.656   7.193  13.061 -0.3144  0.2761  0.0795
 4023TIP3    H136264   1.599   7.223  13.131  1.5167 -0.3189  1.9187
 4023TIP3    H236265   1.617   7.230  12.981 -1.2333  2.8721  1.5944
 4024TIP3   OH236266   3.933   2.884  11.257 -0.2960 -0.0022 -0.6591
 4024TIP3    H136267   4.021   2.919  11.274 -1.2560  2.8421 -0.9451
 4024TIP3    H236268   3.927   2.880  11.162 -0.4328 -0.2691 -0.6390
 4025TIP3   OH236269   3.351   4.222  12.030 -0.0092 -0.3916 -0.3578
 4025TIP3    H136270   3.285   4.175  12.082  1.1551 -1.7468 -0.0326
 4025TIP3    H236271   3.341   4.187  11.942  0.6934 -1.1072 -0.1676
 4026TIP3   OH236272   3.663   1.005  11.850 -0.7780 -0.0352  0.0720
 4026TIP3    H136273   3.664   0.975  11.759 -2.1004 -2.0123  0.6354
 4026TIP3    H236274   3.571   1.025  11.868 -0.1438  3.5547  0.0900
 4027TIP3   OH236275   6.332   6.364  12.566  0.0966 -0.1948 -0.0271
 4027TIP3    H136276   6.364   6.370  12.476 -1.2321 -0.3800 -0.5288
 4027TIP3    H236277   6.323   6.270  12.582  1.9007 -0.2642  0.9078
 4028TIP3   OH236278   1.370   5.372  13.386 -0.0171  0.3034 -0.6827
 4028TIP3    H136279   1.339   5.446  13.333  1.7684  0.7847 -1.1300
 4028TIP3    H236280   1.381   5.301  13.322  2.5325  1.0028 -1.1312
 4029TIP3   OH236281   7.515   6.040  13.492  0.6491 -0.2899 -0.3618
 4029TIP3    H136282   7.514   6.083  13.407  0.5390 -0.4399 -0.4369
 4029TIP3    H236283   7.592   6.076  13.536  1.9201 -1.7343 -1.3072
 4030TIP3   OH236284   5.022   6.785  11.700 -0.7244  0.2487 -0.0572
 4030TIP3    H136285   4.938   6.782  11.655  0.4457  0.1595 -2.4071
 4030TIP3    H236286   5.032   6.698  11.738 -0.8370 -0.4116 -1.4835
 4031TIP3   OH236287   2.146   0.713  12.132 -0.3052  0.1481  0.4182
 4031TIP3    H136288   2.070   0.660  12.158 -1.6242  1.2054 -1.0878
 4031TIP3    H236289   2.111   0.773  12.066  1.8223  0.8010 -0.1697
 4032TIP3   OH236290   1.957   2.880  12.713 -0.5973  0.3132  0.6031
 4032TIP3    H136291   1.869   2.871  12.676 -0.6353  1.9541  0.2385
 4032TIP3    H236292   2.004   2.802  12.681 -1.2532  0.5769 -1.1233
 4033TIP3   OH236293   3.272   7.242  13.719  0.3038 -0.1262 -0.2297
 4033TIP3    H136294   3.339   7.217  13.656 -0.7170 -1.2118 -0.9173
 4033TIP3    H236295   3.263   7.337  13.707  1.8400  0.0881  0.0391
 4034TIP3   OH236296   2.411   2.753  13.020  0.0997  0.1557 -0.1202
 4034TIP3    H136297   2.428   2.846  13.033  0.9575  0.2774 -1.8344
 4034TIP3    H236298   2.401   2.743  12.926  0.9839 -1.6424 -0.0697
 4035TIP3   OH236299   1.608   0.213  12.065  0.0972 -0.3988 -0.0765
 4035TIP3    H136300   1.560   0.295  12.068 -0.4794 -0.7370 -0.0509
 4035TIP3    H236301   1.622   0.189  12.157  0.4089 -0.2508 -0.0831
 4036TIP3   OH236302   3.086   1.491  12.029 -0.2255  0.1612  0.1712
 4036TIP3    H136303   3.054   1.493  11.939 -0.1113 -1.3519  0.0745
 4036TIP3    H236304   3.125   1.404  12.039  2.6264  1.3740  0.7116
 4037TIP3   OH236305   3.407   2.956  13.506 -0.3030  0.0743  0.3902
 4037TIP3    H136306   3.480   3.005  13.544 -0.2976 -0.5722  1.2483
 4037TIP3    H236307   3.332   2.979  13.562 -0.3446 -0.7285  0.6675
 4038TIP3   OH236308   2.975   7.122  11.404  0.3796 -0.4051 -0.1354
 4038TIP3    H136309   3.017   7.188  11.460  0.0341  1.7474 -2.2070
 4038TIP3    H236310   3.043   7.100  11.340  0.4241 -1.9894  0.4277
 4039TIP3   OH236311   2.653   0.409  12.717  0.0451 -0.1488  0.3435
 4039TIP3    H136312   2.606   0.479  12.672  2.1510  0.4167 -1.1028
 4039TIP3    H236313   2.649   0.433  12.810 -0.7228  0.9486  0.0385
 4040TIP3   OH236314   4.810   7.489  13.188 -0.8223  1.0333  0.8140
 4040TIP3    H136315   4.867   7.424  13.148 -1.9984 -0.9674  2.2057
 4040TIP3    H236316   4.850   7.573  13.166  1.3759 -0.1796 -0.1145
 4041TIP3   OH236317   5.907   0.027  12.409  0.2761  0.1230  0.3018
 4041TIP3    H136318   5.866   0.098  12.458  2.0618  0.6221  1.1794
 4041TIP3    H236319   5.977   0.070  12.360 -0.1603 -0.6993 -1.0866
 4042TIP3   OH236320   1.675   6.063  12.997 -0.4196 -0.0734  0.2864
 4042TIP3    H136321   1.609   6.130  13.014 -0.3677 -0.0198  0.2761
 4042TIP3    H236322   1.757   6.111  12.988 -0.4864 -0.0753 -0.3704
 4043TIP3   OH236323   6.289   6.734  12.445 -0.7263 -0.7039  0.0258
 4043TIP3    H136324   6.237   6.809  12.415  0.9388  1.5926  2.3674
 4043TIP3    H236325   6.225   6.674  12.484 -2.0041 -0.0488 -0.9788
 4044TIP3   OH236326   0.086   0.125  13.564  0.0023 -0.0391  0.4405
 4044TIP3    H136327   0.135   0.106  13.644 -1.0545  1.3971  1.5036
 4044TIP3    H236328   0.014   0.182  13.594  1.0414  2.7448 -1.8642
 4045TIP3   OH236329   7.057   5.275  13.023  0.0124 -0.2845 -0.0733
 4045TIP3    H136330   6.967   5.243  13.033  0.2739 -0.9726  0.1149
 4045TIP3    H236331   7.105   5.234  13.095  0.6292 -0.4857 -0.5909
 4046TIP3   OH236332   2.152   7.469  13.123 -0.1343  0.5606 -0.1238
 4046TIP3    H136333   2.221   7.420  13.079 -1.4826  0.6266 -2.5104
 4046TIP3    H236334   2.196   7.542  13.165  1.1884  1.0724 -2.2726
 4047TIP3   OH236335   1.681   6.927  13.236  0.6297 -0.0720 -0.1615
 4047TIP3    H136336   1.604   6.870  13.231 -1.0700  2.1979 -1.0273
 4047TIP3    H236337   1.693   6.960  13.148  2.5856 -0.2648 -0.0180
 4048TIP3   OH236338   7.564   1.389  10.380  0.2553 -0.2071 -0.0436
 4048TIP3    H136339   7.660   1.385  10.379  0.3048  0.2542  0.9729
 4048TIP3    H236340   7.537   1.344  10.300  1.4004  1.7963 -1.6873
 4049TIP3   OH236341   4.019   2.425  11.857 -0.5417  0.0302  0.7411
 4049TIP3    H136342   4.003   2.349  11.802 -0.6360 -0.4634  1.4314
 4049TIP3    H236343   3.942   2.429  11.915 -0.0295  0.0044  1.4300
 4050TIP3   OH236344   0.919   6.625  11.889  0.1941 -0.7098  0.1743
 4050TIP3    H136345   0.971   6.695  11.849  0.6696 -0.6333  0.9331
 4050TIP3    H236346   0.833   6.665  11.903  0.8751  0.1967  1.9446
 4051TIP3   OH236347   5.374   2.390  12.455 -0.0431 -0.2288  0.4995
 4051TIP3    H136348   5.365   2.407  12.549 -0.5664 -0.0117  0.4147
 4051TIP3    H236349   5.362   2.296  12.446 -0.7118 -0.1594  0.5763
 4052TIP3   OH236350   7.350   1.873  12.451 -0.4270  0.1870 -0.6242
 4052TIP3    H136351   7.370   1.850  12.541 -0.6418  1.3318 -0.2717
 4052TIP3    H236352   7.270   1.824  12.430 -1.3221  1.1853  0.3661
 4053TIP3   OH236353   4.983   2.328  12.317 -0.0442  0.1580  0.0050
 4053TIP3    H136354   4.934   2.359  12.394  0.7512 -0.1564  0.6530
 4053TIP3    H236355   5.007   2.408  12.271 -2.0051  0.2897 -0.8847
 4054TIP3   OH236356   1.767   5.716  13.689 -0.5300  0.0738 -0.0912
 4054TIP3    H136357   1.838   5.710  13.752 -2.2520  1.5045  2.1360
 4054TIP3    H236358   1.796   5.781  13.626 -0.5377  2.1006  1.8847
 4055TIP3   OH236359   5.222   4.978  11.737 -0.1435 -0.6785  0.2205
 4055TIP3    H136360   5.145   4.928  11.712 -0.1490 -0.7952  0.4693
 4055TIP3    H236361   5.279   4.915  11.780 -0.2567 -0.4212  0.7598
 4056TIP3   OH236362   5.671   6.416  12.551 -0.4435 -0.1294 -0.2686
 4056TIP3    H136363   5.640   6.373  12.631  0.5929 -0.4489 -0.0264
 4056TIP3    H236364   5.631   6.366  12.480  0.4768 -1.3060  0.0142
 4057TIP3   OH236365   6.933   1.806  13.165 -0.3305  0.0678 -0.2826
 4057TIP3    H136366   6.845   1.841  13.151  0.6433  1.8419 -2.6294
 4057TIP3    H236367   6.953   1.826  13.257 -2.2387 -0.1765  0.2263
 4058TIP3   OH236368   6.619   4.763  11.215 -0.3524 -0.1756  0.4599
 4058TIP3    H136369   6.705   4.775  11.173  0.9825 -1.5580  2.6467
 4058TIP3    H236370   6.637   4.768  11.308 -3.1019  1.9262  0.9971
 4059TIP3   OH236371   0.022   3.838  12.928  0.6025  0.4603 -0.3690
 4059TIP3    H136372  -0.020   3.793  13.002 -0.1372  0.9467 -0.4789
 4059TIP3    H236373   0.113   3.847  12.954  0.9367 -1.6608 -0.6053
 4060TIP3   OH236374   1.091   2.959  12.745  0.1174 -0.0660 -0.2585
 4060TIP3    H136375   1.179   2.973  12.711  0.2452 -0.3694 -0.0587
 4060TIP3    H236376   1.052   3.047  12.747  0.0856 -0.0488 -1.2167
 4061TIP3   OH236377   4.616   5.734  12.804  0.9805  0.0228 -0.0733
 4061TIP3    H136378   4.579   5.685  12.730 -0.8506  0.7275  0.3075
 4061TIP3    H236379   4.683   5.677  12.840  0.3779 -1.2838 -0.9356
 4062TIP3   OH236380   7.152   1.599  11.454  0.3613  0.3150 -0.4983
 4062TIP3    H136381   7.165   1.687  11.416  0.4475  0.7689  0.5476
 4062TIP3    H236382   7.159   1.540  11.379  0.7391  1.1692 -1.1639
 4063TIP3   OH236383   4.800   6.460  11.628  0.0442 -0.7271 -0.3883
 4063TIP3    H136384   4.818   6.522  11.699  0.9988 -0.9230 -0.4400
 4063TIP3    H236385   4.705   6.459  11.621 -0.0267  0.0571  0.2133
 4064TIP3   OH236386   0.568   0.714  12.988 -0.4325  0.5766 -0.5412
 4064TIP3    H136387   0.478   0.714  13.021  0.0738  1.6243  0.9501
 4064TIP3    H236388   0.566   0.654  12.913 -2.1228 -0.2502  0.1075
 4065TIP3   OH236389   0.882   6.083  10.936  0.0370 -0.3336 -0.2132
 4065TIP3    H136390   0.904   6.060  10.845 -3.3274  1.5846 -1.6735
 4065TIP3    H236391   0.857   6.175  10.932 -1.2536 -0.4780  2.4622
 4066TIP3   OH236392   3.263   7.225  12.714 -0.6486 -0.1397  0.0273
 4066TIP3    H136393   3.245   7.319  12.712 -1.0385 -0.2206 -1.4812
 4066TIP3    H236394   3.258   7.202  12.807 -0.3759  1.3463  0.4421
 4067TIP3   OH236395   4.839   1.672  11.759 -0.2123  0.1374  0.2792
 4067TIP3    H136396   4.791   1.613  11.817  0.8905 -0.8266  0.2593
 4067TIP3    H236397   4.811   1.649  11.671  1.0602 -1.2120  0.1882
 4068TIP3   OH236398   6.158   6.955  12.345 -0.1033  0.0614 -0.0297
 4068TIP3    H136399   6.122   7.036  12.311 -1.2748 -1.1021 -1.7221
 4068TIP3    H236400   6.112   6.941  12.428 -2.3386 -0.4440 -1.2595
 4069TIP3   OH236401   3.939   4.876  11.681  0.3962  0.7728  1.0049
 4069TIP3    H136402   4.000   4.810  11.648 -2.1372 -2.2038  1.8593
 4069TIP3    H236403   3.893   4.907  11.603 -1.3947 -1.8057  0.9164
 4070TIP3   OH236404   4.038   1.866  12.203  0.1424 -0.3330 -1.0010
 4070TIP3    H136405   4.054   1.855  12.109 -0.7639 -1.1052 -1.0855
 4070TIP3    H236406   4.005   1.781  12.231  1.5666 -0.4978  0.2897
 4071TIP3   OH236407   5.304   3.910  11.012 -0.1147 -0.0099  0.1211
 4071TIP3    H136408   5.214   3.901  11.044 -0.3879  0.6561 -0.4416
 4071TIP3    H236409   5.303   3.989  10.958  1.5678  1.9599  2.6965
 4072TIP3   OH236410   5.712   1.076  11.986 -0.6568  0.5530  0.6535
 4072TIP3    H136411   5.698   1.136  11.913 -2.0233 -0.7211 -0.1859
 4072TIP3    H236412   5.807   1.065  11.991 -0.5638 -0.4687 -1.9167
 4073TIP3   OH236413   1.818   1.956  12.326  0.1029 -0.4176  0.3283
 4073TIP3    H136414   1.782   2.017  12.261  0.0792 -0.3269  0.4250
 4073TIP3    H236415   1.755   1.884  12.330 -0.6763  0.2731  1.3193
 4074TIP3   OH236416   5.808   5.062  12.007 -0.4306  0.4264 -0.1542
 4074TIP3    H136417   5.893   5.019  12.020 -0.3032  1.0339  1.1841
 4074TIP3    H236418   5.759   5.000  11.953 -0.5442 -1.8901  2.3520
 4075TIP3   OH236419   6.414   2.057  13.869 -0.4800  0.1684  0.3995
 4075TIP3    H136420   6.393   1.993  13.801  1.0492 -1.2755  1.2223
 4075TIP3    H236421   6.410   2.008  13.951 -0.8550  1.5303  1.2373
 4076TIP3   OH236422   4.714   0.404  12.265  0.1557 -0.3812 -1.0837
 4076TIP3    H136423   4.729   0.317  12.302 -0.4490  0.2055  0.5966
 4076TIP3    H236424   4.801   0.443  12.259  0.3415 -0.7913 -1.0568
 4077TIP3   OH236425   6.535   6.525  11.837  0.2513 -0.0872  0.0091
 4077TIP3    H136426   6.569   6.455  11.893 -0.1715 -1.5448 -1.4485
 4077TIP3    H236427   6.569   6.504  11.750  1.9296  2.8068 -0.1559
 4078TIP3   OH236428   3.327   0.718  11.522  0.4153  0.3947  0.6329
 4078TIP3    H136429   3.391   0.673  11.578  0.9719  1.4301  0.8555
 4078TIP3    H236430   3.351   0.691  11.433  1.2757  0.8821  0.7015
 4079TIP3   OH236431   0.296   5.519  13.579 -0.5863  0.0789  0.4553
 4079TIP3    H136432   0.239   5.443  13.583 -1.8653  0.8209 -1.8375
 4079TIP3    H236433   0.288   5.560  13.665 -1.9439 -0.9343  0.8394
 4080TIP3   OH236434   6.374   4.541  11.953 -0.0416 -0.3131  0.1720
 4080TIP3    H136435   6.355   4.580  11.868 -1.4311  0.2197  0.7154
 4080TIP3    H236436   6.447   4.481  11.935 -0.0350  0.0950 -1.3031
 4081TIP3   OH236437   6.493   1.311  11.180  0.0564  0.1484  0.1328
 4081TIP3    H136438   6.493   1.288  11.087  1.4977  2.2089 -0.4529
 4081TIP3    H236439   6.403   1.297  11.209 -0.3161 -0.9669 -1.4228
 4082TIP3   OH236440   6.239   2.163  13.375  0.1383  0.5909 -0.1312
 4082TIP3    H136441   6.208   2.147  13.464  0.9316  0.8801  0.2091
 4082TIP3    H236442   6.162   2.152  13.320 -0.3125  0.1869  0.5692
 4083TIP3   OH236443   3.597   4.826  11.474 -0.1639  0.4015 -0.1488
 4083TIP3    H136444   3.584   4.892  11.542 -1.2415  1.3988 -1.2675
 4083TIP3    H236445   3.508   4.807  11.442  0.1415 -1.4425 -0.0082
 4084TIP3   OH236446   0.125   0.639  11.835  0.0976 -0.4101  0.4108
 4084TIP3    H136447   0.148   0.561  11.886  0.1644  0.3395  1.5632
 4084TIP3    H236448   0.165   0.712  11.883  0.0501  0.3333 -0.6553
 4085TIP3   OH236449   2.538   6.684  13.024  0.2379 -0.2356  0.4234
 4085TIP3    H136450   2.482   6.644  13.090 -1.1270 -0.4732 -0.8380
 4085TIP3    H236451   2.479   6.706  12.952  1.7527 -0.4503 -0.9359
 4086TIP3   OH236452   5.795   2.797  13.390  0.4838  0.2160 -0.7852
 4086TIP3    H136453   5.709   2.768  13.361  0.9721 -0.8813 -1.2060
 4086TIP3    H236454   5.832   2.843  13.314  0.3813  0.4424 -0.6991
 4087TIP3   OH236455   4.382   7.509  13.420 -0.6911  0.3490  0.2695
 4087TIP3    H136456   4.311   7.565  13.451 -0.5312 -0.1471  1.6033
 4087TIP3    H236457   4.456   7.568  13.409 -0.5514  0.4453  1.5676
 4088TIP3   OH236458   1.246   3.712  12.778 -0.4094 -0.3815  0.0858
 4088TIP3    H136459   1.216   3.630  12.738 -0.6382 -0.2777  0.0399
 4088TIP3    H236460   1.166   3.751  12.813 -0.2689 -0.2799  0.2937
 4089TIP3   OH236461   4.787   2.409  13.354  0.2194 -0.2930 -0.1171
 4089TIP3    H136462   4.769   2.470  13.283 -0.1095 -0.9573 -0.6104
 4089TIP3    H236463   4.705   2.404  13.403  1.1548  2.1936  1.9331
 4090TIP3   OH236464   7.294   2.773  10.686 -0.0981  0.7700  0.1123
 4090TIP3    H136465   7.241   2.818  10.620  0.1007 -0.5735 -0.9996
 4090TIP3    H236466   7.273   2.819  10.768 -3.3599  0.0212 -0.1574
 4091TIP3   OH236467   0.693   3.698  12.306  0.4300 -0.2246  0.0729
 4091TIP3    H136468   0.609   3.657  12.325  0.2816 -0.2067 -0.5136
 4091TIP3    H236469   0.744   3.630  12.261  1.0532 -0.5130  1.1829
 4092TIP3   OH236470   6.049   7.529  13.196 -0.3398  0.0498  0.1362
 4092TIP3    H136471   6.066   7.455  13.254 -0.1482 -1.3585 -1.6404
 4092TIP3    H236472   6.134   7.570  13.184 -0.0731 -0.6411 -0.4080
 4093TIP3   OH236473   2.320   1.284  13.561  0.3117  0.2136  0.2844
 4093TIP3    H136474   2.270   1.357  13.600 -1.6683 -1.8528  1.8944
 4093TIP3    H236475   2.292   1.283  13.470 -1.2932  0.2299  0.7355
 4094TIP3   OH236476   5.642   6.115  13.126  0.6254  0.1696  0.3024
 4094TIP3    H136477   5.597   6.146  13.204  1.2293  0.0094  0.7214
 4094TIP3    H236478   5.715   6.175  13.115 -0.2278  1.0167 -0.9390
 4095TIP3   OH236479   2.997   0.827  13.225 -0.0453  0.2243  0.1863
 4095TIP3    H136480   3.014   0.917  13.252 -0.8486  0.3210  0.4035
 4095TIP3    H236481   2.945   0.835  13.145 -0.2467 -0.0420  0.2887
 4096TIP3   OH236482   1.421   5.289  11.752 -0.2122  0.6229 -0.3983
 4096TIP3    H136483   1.333   5.326  11.746 -0.4025  0.9508  2.7091
 4096TIP3    H236484   1.467   5.346  11.814  1.2558 -1.1699  0.2655
 4097TIP3   OH236485   2.325   2.330  11.958  0.0673  0.6553  0.7774
 4097TIP3    H136486   2.332   2.237  11.934 -0.6654  0.2018  2.1890
 4097TIP3    H236487   2.297   2.373  11.877 -2.7393 -0.8653  0.7980
 4098TIP3   OH236488   6.569   2.916  13.107  0.3919 -0.0247  0.2536
 4098TIP3    H136489   6.635   2.921  13.175 -0.7912 -0.0215  1.4437
 4098TIP3    H236490   6.598   2.843  13.051  1.7562  0.4405  0.3167
 4099TIP3   OH236491   0.222   3.483  12.966 -0.0125  0.2437 -0.2430
 4099TIP3    H136492   0.178   3.555  12.921 -0.0435  0.5059  0.2015
 4099TIP3    H236493   0.175   3.405  12.938  0.3704  0.3326 -1.1614
 4100TIP3   OH236494   5.423   5.095  13.106  0.1819 -0.5059 -0.1705
 4100TIP3    H136495   5.508   5.140  13.116 -1.1332  2.1361  0.0458
 4100TIP3    H236496   5.438   5.031  13.037  2.2705  0.1191 -0.3868
 4101TIP3   OH236497   5.708   1.997  11.218  0.1028  0.1488 -0.1082
 4101TIP3    H136498   5.672   2.084  11.201  2.2013  0.9140 -1.0357
 4101TIP3    H236499   5.661   1.940  11.158 -1.2801  0.6256  0.4849
 4102TIP3   OH236500   3.921   3.003  12.469 -0.1884  0.0350  0.0103
 4102TIP3    H136501   3.966   2.978  12.389 -1.4753 -0.1334 -0.6804
 4102TIP3    H236502   3.988   3.049  12.521  1.3025 -1.8762 -0.1214
 4103TIP3   OH236503   2.287   1.628  11.366 -0.3316  0.0165 -0.0276
 4103TIP3    H136504   2.354   1.643  11.433  0.1951 -1.0601 -0.2821
 4103TIP3    H236505   2.313   1.545  11.325 -0.5773  0.6941 -1.6299
 4104TIP3   OH236506   6.008   6.538  13.208  0.3930 -0.2933 -0.4970
 4104TIP3    H136507   6.067   6.581  13.270  0.7196  0.3016 -1.2084
 4104TIP3    H236508   6.057   6.535  13.126 -0.3879 -0.2156 -0.9760
 4105TIP3   OH236509   1.874   1.758  12.959  0.0472 -0.4923 -0.5490
 4105TIP3    H136510   1.917   1.753  13.044 -1.0820 -1.4487 -0.0103
 4105TIP3    H236511   1.915   1.833  12.916  2.1155 -1.2467 -0.0085
 4106TIP3   OH236512   7.208   5.577  11.642  0.2259 -0.2369  0.0303
 4106TIP3    H136513   7.214   5.668  11.669  0.7508  0.2006 -1.4861
 4106TIP3    H236514   7.178   5.581  11.551  2.2586 -1.4748 -0.7473
 4107TIP3   OH236515   6.601   2.071  12.724 -0.1524 -0.3489 -0.5095
 4107TIP3    H136516   6.681   2.094  12.771  0.8438 -0.7278 -1.9832
 4107TIP3    H236517   6.556   2.154  12.712  1.4591  0.3331 -2.2344
 4108TIP3   OH236518   3.981   4.573  12.877  0.3239  0.2355  0.5042
 4108TIP3    H136519   3.963   4.488  12.917 -1.1867 -0.2110 -1.0235
 4108TIP3    H236520   3.912   4.631  12.910 -0.9902 -0.1595 -1.3944
 4109TIP3   OH236521   6.756   1.315  12.635 -0.4631 -0.1403 -0.0875
 4109TIP3    H136522   6.704   1.261  12.694 -0.2296  1.0928  1.2774
 4109TIP3    H236523   6.753   1.403  12.672  1.2297  0.2986 -0.8751
 4110TIP3   OH236524   0.011   2.869  13.172  0.1463 -0.2727 -0.2757
 4110TIP3    H136525   0.015   2.774  13.169 -0.9536 -0.3155 -0.5269
 4110TIP3    H236526   0.025   2.891  13.264 -1.1093 -0.7664  0.0497
 4111TIP3   OH236527   3.060   3.210  13.258  0.2220 -1.0241 -0.2201
 4111TIP3    H136528   3.126   3.210  13.189 -0.5161 -0.5642 -0.9400
 4111TIP3    H236529   2.981   3.177  13.216 -0.1012 -1.2331  0.5396
 4112TIP3   OH236530   2.660   4.092  12.035 -0.4056  0.6406  0.2539
 4112TIP3    H136531   2.593   4.082  12.103 -0.0577 -0.0123  0.5042
 4112TIP3    H236532   2.610   4.113  11.956 -0.8160  1.4045  0.6945
 4113TIP3   OH236533   4.688   6.002  10.760 -0.6997  0.0145 -0.0718
 4113TIP3    H136534   4.728   5.915  10.765  0.7045  0.6879  2.0992
 4113TIP3    H236535   4.612   5.997  10.818  0.0109  0.4894  0.9322
 4114TIP3   OH236536   5.917   2.776  12.741  0.1563  0.5901  0.4319
 4114TIP3    H136537   5.908   2.828  12.661 -1.9351 -0.4631 -0.0887
 4114TIP3    H236538   5.832   2.783  12.784 -0.0535 -1.9159  0.5926
 4115TIP3   OH236539   4.958   6.763  10.758  0.0377  0.4667 -0.4870
 4115TIP3    H136540   4.988   6.673  10.767 -1.8478 -0.3475 -1.5478
 4115TIP3    H236541   4.871   6.762  10.798 -0.1480  1.7276 -0.8439
 4116TIP3   OH236542   5.801   6.892  11.542  0.0222 -0.6705 -0.4332
 4116TIP3    H136543   5.770   6.958  11.605  0.3567 -0.0713 -0.8847
 4116TIP3    H236544   5.826   6.943  11.465  0.2930 -1.3338 -0.7886
 4117TIP3   OH236545   0.469   2.631  11.549 -0.6633  0.4696  0.5477
 4117TIP3    H136546   0.406   2.574  11.593 -1.4590  0.8412 -0.0873
 4117TIP3    H236547   0.474   2.709  11.604 -0.3520  0.2325  0.8680
 4118TIP3   OH236548   4.347   2.780  11.874  0.2201  0.4214 -0.0563
 4118TIP3    H136549   4.351   2.690  11.907  3.0175  0.1291 -0.8722
 4118TIP3    H236550   4.347   2.835  11.952  1.6446 -0.2975  0.4779
 4119TIP3   OH236551   0.245   7.365  11.643  0.3399  0.4592 -0.1299
 4119TIP3    H136552   0.276   7.302  11.578  1.2560  0.4058  0.3444
 4119TIP3    H236553   0.182   7.419  11.596  0.2538 -0.1995 -0.7958
 4120TIP3   OH236554   3.228   0.428  10.983 -0.2957  0.1441  0.3274
 4120TIP3    H136555   3.189   0.482  11.052 -3.0881 -2.9480  1.4245
 4120TIP3    H236556   3.209   0.476  10.902 -0.0250  2.1547  1.3789
 4121TIP3   OH236557   2.116   4.577  11.622  0.1497 -0.1170 -0.0606
 4121TIP3    H136558   2.145   4.567  11.532 -0.8506 -0.6664 -0.3386
 4121TIP3    H236559   2.031   4.533  11.625  0.3563 -0.4628  1.2582
 4122TIP3   OH236560   5.131   2.977  12.443 -0.2863  0.3125 -0.1129
 4122TIP3    H136561   5.094   2.899  12.404 -0.8329  0.9739 -0.9549
 4122TIP3    H236562   5.222   2.955  12.461  0.8408  0.7660 -4.2811
 4123TIP3   OH236563   2.108   4.431  12.892  0.3712  0.5382 -0.2732
 4123TIP3    H136564   2.029   4.453  12.941 -0.2610  0.2016 -1.1231
 4123TIP3    H236565   2.091   4.344  12.856  0.8718  0.7241 -0.9909
 4124TIP3   OH236566   5.057   0.993  12.412  0.2446 -0.1724  0.3238
 4124TIP3    H136567   5.128   1.043  12.454 -0.5819  0.6351  0.8204
 4124TIP3    H236568   5.011   0.952  12.485  0.2768 -0.8101 -0.0078
 4125TIP3   OH236569   6.849   5.262  13.613  0.4121  0.8512 -0.3030
 4125TIP3    H136570   6.919   5.265  13.679 -0.5179  1.6433  0.6824
 4125TIP3    H236571   6.839   5.169  13.593  0.5667  0.5727  0.8462
 4126TIP3   OH236572   0.519   4.850  12.481 -0.0752  0.5566 -0.1575
 4126TIP3    H136573   0.493   4.837  12.390 -0.5904 -0.6178  0.1408
 4126TIP3    H236574   0.601   4.900  12.475 -0.6736  1.4672 -1.2146
 4127TIP3   OH236575   1.573   6.188  12.706  0.1351  0.4164  0.2614
 4127TIP3    H136576   1.633   6.120  12.676  0.7640  1.2449 -0.4334
 4127TIP3    H236577   1.491   6.170  12.660 -0.3692 -1.0713  1.6656
 4128TIP3   OH236578   1.392   2.792  11.796 -0.1196 -0.2368  0.4879
 4128TIP3    H136579   1.303   2.796  11.763 -0.0771 -0.8638  0.3003
 4128TIP3    H236580   1.428   2.879  11.777 -0.4628 -0.2164 -0.0705
 4129TIP3   OH236581   1.421   5.033  12.297  0.3156  0.0881 -0.1482
 4129TIP3    H136582   1.432   5.113  12.245  1.0219 -0.3075 -0.6307
 4129TIP3    H236583   1.502   4.984  12.282  0.2700 -0.3174  0.8457
 4130TIP3   OH236584   1.552   3.318  13.290  0.2097 -0.4705  0.2357
 4130TIP3    H136585   1.579   3.292  13.201  1.0515  0.0612  0.3278
 4130TIP3    H236586   1.568   3.240  13.343 -0.2180 -0.7637 -0.0545
 4131TIP3   OH236587   0.701   2.722  13.693 -0.1954 -0.1648  0.3984
 4131TIP3    H136588   0.720   2.798  13.637 -0.9151 -0.7479 -0.6911
 4131TIP3    H236589   0.666   2.656  13.632 -2.7885 -0.1960  1.7865
 4132TIP3   OH236590   3.509   6.007  11.308  0.1307  0.1728 -0.0399
 4132TIP3    H136591   3.581   6.031  11.249  0.3347 -0.4155 -0.0326
 4132TIP3    H236592   3.462   5.938  11.261  0.3250 -0.3358  0.5137
 4133TIP3   OH236593   1.434   4.543  13.117 -0.4569 -0.3065  0.1221
 4133TIP3    H136594   1.404   4.513  13.203  1.3363 -0.9966  0.5455
 4133TIP3    H236595   1.401   4.632  13.110 -0.3306 -0.1064  1.6915
 4134TIP3   OH236596   6.946   0.301  11.292 -0.3889  0.4929 -0.1170
 4134TIP3    H136597   6.966   0.276  11.201 -1.5230  0.3285 -0.3287
 4134TIP3    H236598   6.867   0.251  11.314 -0.4701  0.9952  0.7619
 4135TIP3   OH236599   0.345   4.844  11.324  0.1740  0.6357  0.0609
 4135TIP3    H136600   0.390   4.929  11.319 -0.1087  0.8608  1.0710
 4135TIP3    H236601   0.337   4.826  11.418  1.4517 -1.1806 -0.1328
 4136TIP3   OH236602   0.688   5.046  12.483 -0.8005  0.3773  0.4284
 4136TIP3    H136603   0.679   5.138  12.461  1.4004  0.1041 -2.1816
 4136TIP3    H236604   0.767   5.042  12.538  0.3100 -0.0733 -1.1267
 4137TIP3   OH236605   1.274   4.713  12.145 -0.1990 -0.2243 -0.2953
 4137TIP3    H136606   1.357   4.724  12.191  0.4536  0.8225 -1.6807
 4137TIP3    H236607   1.251   4.800  12.114 -2.0256 -0.4202  0.3569
 4138TIP3   OH236608   1.522   0.777  13.193  0.0233 -0.5618 -0.3805
 4138TIP3    H136609   1.490   0.735  13.114  1.8899 -1.5250 -0.6818
 4138TIP3    H236610   1.611   0.743  13.204  0.1102  0.1870  1.6676
 4139TIP3   OH236611   3.020   4.910  12.280  0.6262 -0.1175 -0.2460
 4139TIP3    H136612   3.071   4.991  12.273 -1.7408  1.5758  0.9211
 4139TIP3    H236613   3.042   4.875  12.366  1.7792 -0.8687 -0.8181
 4140TIP3   OH236614   0.711   4.183  12.764 -0.0453  0.2254 -0.2677
 4140TIP3    H136615   0.635   4.235  12.736 -0.7346 -0.5801  0.0378
 4140TIP3    H236616   0.712   4.108  12.705  0.1358 -0.0877  0.1290
 4141TIP3   OH236617   5.145   3.673  11.757 -0.1420 -0.1541  0.1930
 4141TIP3    H136618   5.193   3.613  11.701  0.5189 -0.4624  1.0599
 4141TIP3    H236619   5.182   3.759  11.738  1.5051 -0.5083  1.5623
 4142TIP3   OH236620   4.562   4.200  13.143 -0.1573 -0.1963 -0.0412
 4142TIP3    H136621   4.481   4.152  13.155  0.0091 -1.1931 -2.3970
 4142TIP3    H236622   4.631   4.137  13.163  0.0536  0.1712  0.4056
 4143TIP3   OH236623   6.920   3.074  11.849  0.3425  0.1908 -0.1701
 4143TIP3    H136624   6.960   3.097  11.933  0.9317 -0.1715 -0.3490
 4143TIP3    H236625   6.952   3.140  11.788 -0.2906  0.6074 -0.0663
 4144TIP3   OH236626   2.814   5.459  12.207  0.2206  0.1086  0.2562
 4144TIP3    H136627   2.836   5.551  12.197 -0.7393  0.2218 -1.0600
 4144TIP3    H236628   2.765   5.454  12.289  0.2166  0.7745  0.2928
 4145TIP3   OH236629   4.727   2.565  11.910  0.2972 -0.7228 -0.3407
 4145TIP3    H136630   4.675   2.494  11.873 -0.5168  0.2868 -1.1653
 4145TIP3    H236631   4.726   2.548  12.004 -0.5926 -1.3430 -0.4474
 4146TIP3   OH236632   5.337   6.857  13.325 -0.0671 -0.3328  0.5351
 4146TIP3    H136633   5.260   6.853  13.269 -1.6986 -0.6848  2.6984
 4146TIP3    H236634   5.394   6.787  13.292 -1.4802 -1.2870  0.0311
 4147TIP3   OH236635   2.851   4.037  13.056  0.3224  0.1277  0.3425
 4147TIP3    H136636   2.758   4.023  13.072  0.1223 -0.0090 -0.8135
 4147TIP3    H236637   2.854   4.086  12.974  1.2885 -1.7605 -0.8320
 4148TIP3   OH236638   7.494   5.354  12.371  0.1079  0.3872 -0.0362
 4148TIP3    H136639   7.538   5.427  12.414 -0.0236  0.9096 -0.7688
 4148TIP3    H236640   7.564   5.306  12.327  0.2075  0.0074  0.5271
 4149TIP3   OH236641   0.671   4.643  13.344  0.2905 -0.3261 -0.0513
 4149TIP3    H136642   0.760   4.616  13.364  0.6320  1.9008  1.8790
 4149TIP3    H236643   0.679   4.696  13.265  0.3410 -1.7590 -1.0299
 4150TIP3   OH236644   6.764   4.685  12.320  0.1846 -0.0336  0.2428
 4150TIP3    H136645   6.830   4.753  12.310  1.7210 -1.1517  2.0210
 4150TIP3    H236646   6.814   4.603  12.321 -1.1623 -0.9148  1.8420
 4151TIP3   OH236647   4.298   4.430  12.566 -0.2330  0.3502 -0.1560
 4151TIP3    H136648   4.347   4.358  12.607 -0.7608  0.4467  0.6645
 4151TIP3    H236649   4.216   4.391  12.538 -0.1553  0.4404 -0.5179
 4152TIP3   OH236650   7.552   3.503  12.145 -0.2377 -0.3660  0.5623
 4152TIP3    H136651   7.470   3.543  12.172  0.9433  3.2825 -0.7007
 4152TIP3    H236652   7.558   3.423  12.197 -3.6630  0.1777  2.0323
 4153TIP3   OH236653   2.590   2.130  11.867  0.0572 -0.4266 -0.0909
 4153TIP3    H136654   2.590   2.053  11.810 -0.8313  0.5717 -1.5152
 4153TIP3    H236655   2.629   2.200  11.813  1.3250  0.0355  1.3398
 4154TIP3   OH236656   4.943   0.503  13.158  0.4801  0.1764 -0.9377
 4154TIP3    H136657   4.930   0.589  13.118  2.9700  0.6208 -0.9834
 4154TIP3    H236658   4.885   0.445  13.109 -0.3574  1.6127 -1.7233
 4155TIP3   OH236659   4.645   3.741  11.988  0.3238 -0.3415  0.1213
 4155TIP3    H136660   4.648   3.837  11.986  0.9905 -0.3315  0.8869
 4155TIP3    H236661   4.730   3.716  12.026 -0.3770 -1.1822  1.1663
 4156TIP3   OH236662   0.859   0.838  12.206  0.7716 -0.1412 -0.3836
 4156TIP3    H136663   0.873   0.799  12.293  1.4274  1.3078  0.1907
 4156TIP3    H236664   0.767   0.821  12.187 -0.0021  1.3762  1.6006
 4157TIP3   OH236665   2.375   3.136  11.991 -0.0547  0.2848  0.4943
 4157TIP3    H136666   2.408   3.219  11.958  1.3335  0.2410  1.6885
 4157TIP3    H236667   2.327   3.098  11.917  0.9946  1.2190 -0.6999
 4158TIP3   OH236668   0.898   0.167  12.749  0.0315  0.0868  0.1107
 4158TIP3    H136669   0.982   0.210  12.732  1.4267 -3.1153 -2.2094
 4158TIP3    H236670   0.850   0.177  12.667 -1.1811  0.4071  0.8369
 4159TIP3   OH236671   2.056   1.498  13.131 -0.1224 -0.0573 -0.0934
 4159TIP3    H136672   2.070   1.478  13.039  1.6979 -2.1826  0.5335
 4159TIP3    H236673   2.144   1.497  13.169 -0.6192  2.7386  1.3724
 4160TIP3   OH236674   1.984   1.614  12.379  0.2185 -0.4056 -0.2138
 4160TIP3    H136675   2.030   1.532  12.358  0.2248 -0.4281 -0.1113
 4160TIP3    H236676   2.053   1.680  12.384  0.1298 -0.2103 -1.1949
 4161TIP3   OH236677   3.925   5.317  12.563  0.8432 -0.5508 -0.1900
 4161TIP3    H136678   4.013   5.313  12.527  0.7518  2.7351 -1.1569
 4161TIP3    H236679   3.872   5.355  12.493 -1.2688 -1.9563  0.5533
 4162TIP3   OH236680   5.241   0.926  11.866  0.1499  0.0280  0.5129
 4162TIP3    H136681   5.334   0.900  11.872  0.1527 -0.3747 -0.9245
 4162TIP3    H236682   5.231   0.958  11.777 -0.8135  1.3041  1.0525
 4163TIP3   OH236683   6.495   1.743  13.066 -0.2314  0.1425 -0.2927
 4163TIP3    H136684   6.555   1.773  13.134  0.7245 -0.2991 -0.9140
 4163TIP3    H236685   6.442   1.820  13.045  0.3056  0.6194  0.0697
 4164TIP3   OH236686   4.511   2.649  11.591  0.0912 -0.1150  0.1750
 4164TIP3    H136687   4.504   2.708  11.666 -0.4902  2.0884 -1.5023
 4164TIP3    H236688   4.421   2.639  11.560  0.2515 -1.4729  0.0923
 4165TIP3   OH236689   1.187   2.547  11.339  0.6240 -0.2866  0.1521
 4165TIP3    H136690   1.175   2.641  11.353  1.9077 -0.1357  0.3556
 4165TIP3    H236691   1.158   2.532  11.249  1.6817  0.5674 -0.3588
 4166TIP3   OH236692   6.833   3.673  11.587 -0.0319  0.5735  0.1537
 4166TIP3    H136693   6.878   3.734  11.646  1.6103  1.1653 -1.5842
 4166TIP3    H236694   6.804   3.727  11.514 -1.2265 -0.2728 -0.0251
 4167TIP3   OH236695   7.282   1.470  13.358  0.1249 -0.2759 -0.2917
 4167TIP3    H136696   7.360   1.520  13.383 -0.4042  1.0200 -1.2099
 4167TIP3    H236697   7.209   1.516  13.399 -0.1273 -2.2902  1.8050
 4168TIP3   OH236698   2.062   2.435  12.347 -0.5598 -0.4520  0.2957
 4168TIP3    H136699   1.981   2.385  12.355  0.7632 -2.4756  2.1839
 4168TIP3    H236700   2.117   2.383  12.288  0.3512 -0.5913  1.2290
 4169TIP3   OH236701   0.936   3.186  12.836  0.0309  0.1690 -0.6735
 4169TIP3    H136702   0.977   3.273  12.832  1.5342 -0.3975  1.2034
 4169TIP3    H236703   0.914   3.174  12.928 -0.3483 -1.3572 -0.9418
 4170TIP3   OH236704   1.346   2.416  12.514  0.0721 -0.6561 -0.4539
 4170TIP3    H136705   1.357   2.368  12.432  0.0236 -2.2388  0.4439
 4170TIP3    H236706   1.360   2.351  12.583  1.2211  0.8731  0.8361
 4171TIP3   OH236707   1.903   4.510  13.038 -0.5028 -0.1678 -0.1709
 4171TIP3    H136708   1.821   4.462  13.049 -0.9447  0.8691  1.4993
 4171TIP3    H236709   1.886   4.596  13.077  1.2827  0.1779 -0.0471
 4172TIP3   OH236710   1.599   0.177  12.664  0.1352 -0.1517  0.1524
 4172TIP3    H136711   1.627   0.248  12.607 -1.9461  1.1896  0.7015
 4172TIP3    H236712   1.600   0.215  12.752 -1.6874 -0.5345  0.3753
 4173TIP3   OH236713   3.671   7.655  12.834 -0.1609  0.7230 -0.3676
 4173TIP3    H136714   3.614   7.683  12.905  0.1723  0.5711 -0.0416
 4173TIP3    H236715   3.616   7.598  12.780 -0.2396  0.3556  0.0936
 4174TIP3   OH236716   1.152   6.551  13.218  0.8866 -0.1956  0.7335
 4174TIP3    H136717   1.100   6.586  13.147  2.0831  1.0298  0.4286
 4174TIP3    H236718   1.091   6.497  13.269 -0.9666  2.1002  1.0743
 4175TIP3   OH236719   5.788   5.602  12.199  0.4221 -0.1979 -0.2527
 4175TIP3    H136720   5.797   5.616  12.293 -1.9128 -0.8609  0.1395
 4175TIP3    H236721   5.793   5.507  12.189 -1.0015 -0.2588 -0.5437
 4176TIP3   OH236722   4.210   7.069  12.530  0.0048 -0.3950  0.4040
 4176TIP3    H136723   4.178   7.108  12.612 -1.1178 -0.3749 -0.0313
 4176TIP3    H236724   4.236   6.980  12.555  2.2800  0.4551  1.3320
 4177TIP3   OH236725   3.456   6.753  13.426 -0.0228 -0.5910 -0.3091
 4177TIP3    H136726   3.388   6.691  13.451 -0.0052 -1.2021 -1.6729
 4177TIP3    H236727   3.538   6.709  13.447 -0.0252 -0.5926 -0.3029
 4178TIP3   OH236728   6.745   1.495  11.822  0.8952 -0.3618 -0.9160
 4178TIP3    H136729   6.680   1.459  11.762  0.3887  0.0083 -0.6015
 4178TIP3    H236730   6.801   1.550  11.767  1.2219 -1.0335 -1.2647
 4179TIP3   OH236731   1.544   7.307  12.836 -0.4882  0.6102 -0.2627
 4179TIP3    H136732   1.586   7.389  12.864 -1.8194  0.8562  1.1042
 4179TIP3    H236733   1.465   7.335  12.791 -2.2051  0.1166  2.2533
 4180TIP3   OH236734   5.962   1.315  11.946 -0.5323 -0.2127 -0.1525
 4180TIP3    H136735   6.018   1.239  11.961 -2.6569 -1.6485  0.9222
 4180TIP3    H236736   6.023   1.387  11.927  1.6319 -1.6741  0.9843
 4181TIP3   OH236737   1.813   6.502  11.872 -0.4816 -0.4696  0.0416
 4181TIP3    H136738   1.803   6.595  11.850  1.0698 -0.3424 -0.2420
 4181TIP3    H236739   1.759   6.490  11.950 -1.2955  0.4920 -0.3536
 4182TIP3   OH236740   1.605   1.741  12.645  0.2909 -0.5243  0.4481
 4182TIP3    H136741   1.639   1.756  12.557 -0.1436 -0.6267  0.2554
 4182TIP3    H236742   1.626   1.820  12.694  0.5089 -0.4563  0.2428
 4183TIP3   OH236743   0.908   6.559  13.385  0.0895 -0.4523 -0.0148
 4183TIP3    H136744   0.889   6.651  13.402  0.6968  0.1307 -2.1114
 4183TIP3    H236745   0.828   6.525  13.344  0.6691 -0.1501 -1.4799
 4184TIP3   OH236746   1.567   3.332  12.339  0.2159  0.1631  1.0971
 4184TIP3    H136747   1.632   3.397  12.367 -1.5687  2.2038  0.8002
 4184TIP3    H236748   1.558   3.347  12.244 -1.8116  1.1199  1.3716
 4185TIP3   OH236749   6.548   5.165  13.151  0.0393 -0.0156  0.0136
 4185TIP3    H136750   6.624   5.156  13.209 -1.0079  0.6609  1.5563
 4185TIP3    H236751   6.515   5.253  13.168 -0.7966 -0.1115 -1.0141
 4186TIP3   OH236752   0.187   7.368  11.930 -0.3479 -0.1457 -0.4226
 4186TIP3    H136753   0.209   7.278  11.951  0.7471  0.0142 -0.8414
 4186TIP3    H236754   0.211   7.378  11.838 -0.7738  0.4813 -0.4734
 4187TIP3   OH236755   5.354   0.310  11.213  0.0354  0.2423 -0.2094
 4187TIP3    H136756   5.444   0.342  11.202 -0.4355  1.8251  0.3914
 4187TIP3    H236757   5.360   0.248  11.285  0.6907  0.1428 -0.3434
 4188TIP3   OH236758   7.611   1.099  12.528  0.2416  0.5212  0.0525
 4188TIP3    H136759   7.525   1.075  12.495  0.6456  0.6163 -1.1208
 4188TIP3    H236760   7.598   1.112  12.622 -1.4429  2.4842 -0.3833
 4189TIP3   OH236761   3.733   5.165  11.955  0.8593 -0.1208  0.2096
 4189TIP3    H136762   3.815   5.115  11.953 -0.0819 -1.7011 -1.0011
 4189TIP3    H236763   3.730   5.209  11.869  2.1469  2.9883  1.5822
 4190TIP3   OH236764   2.244   1.922  11.323 -0.0424 -0.1145 -0.6792
 4190TIP3    H136765   2.282   1.834  11.323  1.6767  0.5738 -0.1093
 4190TIP3    H236766   2.151   1.908  11.338  0.3141 -1.7972  0.2545
 4191TIP3   OH236767   6.800   6.162  10.973  0.6036 -0.0133 -0.4770
 4191TIP3    H136768   6.777   6.210  10.893 -1.6275 -1.2191 -0.6387
 4191TIP3    H236769   6.884   6.120  10.953  0.8191  0.9148 -1.6170
 4192TIP3   OH236770   2.304   1.675  11.990  0.1279  0.2616  0.3848
 4192TIP3    H136771   2.293   1.694  11.897  1.5742 -1.4283 -0.1947
 4192TIP3    H236772   2.262   1.590  12.003  0.1408  0.3736  1.2253
 4193TIP3   OH236773   2.425   0.118  11.828 -0.3609  0.4099 -0.3547
 4193TIP3    H136774   2.375   0.169  11.892  0.5091  2.5297 -1.2712
 4193TIP3    H236775   2.505   0.093  11.875 -1.2694 -1.1276  0.4408
 4194TIP3   OH236776   7.162   6.801  10.722 -0.2209  0.3879 -0.1833
 4194TIP3    H136777   7.210   6.726  10.758  1.3191  0.6021 -1.7102
 4194TIP3    H236778   7.090   6.814  10.785  0.5845 -1.1353  1.1558
 4195TIP3   OH236779   1.087   1.325  12.135  0.1160 -0.0341  0.2993
 4195TIP3    H136780   1.012   1.311  12.076 -0.5759 -1.1899  1.4029
 4195TIP3    H236781   1.128   1.239  12.141  0.0773  0.0204  1.6171
 4196TIP3   OH236782   2.840   2.773  12.103  0.5647 -0.2918  0.0452
 4196TIP3    H136783   2.895   2.716  12.049  0.1232 -2.4138  1.6810
 4196TIP3    H236784   2.802   2.714  12.169 -0.9976  1.6943  1.0386
 4197TIP3   OH236785   2.956   4.592  13.394 -0.2002  0.1503 -0.5277
 4197TIP3    H136786   2.925   4.504  13.416  1.5976 -0.1830  0.8913
 4197TIP3    H236787   2.968   4.589  13.299 -1.7207 -0.5825 -0.7310
 4198TIP3   OH236788   2.239   1.019  12.986  0.3553  0.8030 -0.5630
 4198TIP3    H136789   2.312   1.078  12.969  0.5121  1.6181  2.3560
 4198TIP3    H236790   2.259   0.981  13.072 -2.2792  0.5041 -0.0053
 4199TIP3   OH236791   2.339   5.147  11.382 -0.0367 -1.2621  0.0678
 4199TIP3    H136792   2.414   5.199  11.353  0.1919 -0.8508  1.3302
 4199TIP3    H236793   2.307   5.106  11.302  0.0761  0.4234 -0.9101
 4200TIP3   OH236794   2.568   3.714  12.503 -0.8401  0.2132  0.2748
 4200TIP3    H136795   2.580   3.764  12.584 -0.0462  0.5525 -0.0390
 4200TIP3    H236796   2.657   3.692  12.476 -0.7546  3.2178 -2.4488
 4201TIP3   OH236797   3.363   2.438  13.095  0.4888  0.0087 -0.1494
 4201TIP3    H136798   3.443   2.388  13.113  0.2477 -0.2032  0.3507
 4201TIP3    H236799   3.321   2.446  13.180 -0.4073 -0.5462 -0.5306
 4202TIP3   OH236800   5.998   4.139  12.176 -0.1219  0.0405 -0.5276
 4202TIP3    H136801   6.066   4.203  12.154 -0.1159 -0.3936 -1.8301
 4202TIP3    H236802   5.959   4.173  12.257  1.5342  0.3665  0.1885
 4203TIP3   OH236803   4.114   2.332  13.097  0.6693 -0.3407 -0.1458
 4203TIP3    H136804   4.058   2.407  13.077 -1.4071 -1.6287  0.4931
 4203TIP3    H236805   4.181   2.366  13.155 -0.8959  0.8329  1.0381
 4204TIP3   OH236806   4.131   7.499  12.049 -0.5518 -0.6260  0.0967
 4204TIP3    H136807   4.097   7.482  11.961 -2.1674  0.0555  0.5434
 4204TIP3    H236808   4.142   7.594  12.053  0.9204 -0.7817  0.1684
 4205TIP3   OH236809   3.383   1.651  11.446  0.4074 -0.3014  0.0968
 4205TIP3    H136810   3.412   1.741  11.428  0.3499 -0.2969  0.0238
 4205TIP3    H236811   3.399   1.604  11.364 -3.0770  0.5106 -1.2579
 4206TIP3   OH236812   3.623   2.281  12.278 -0.8400  0.1407 -0.0709
 4206TIP3    H136813   3.711   2.301  12.310 -0.2873 -1.3759 -0.5482
 4206TIP3    H236814   3.570   2.355  12.306  0.3228  0.4901  1.3575
 4207TIP3   OH236815   2.165   3.721  12.163  0.4781 -0.2916 -0.2619
 4207TIP3    H136816   2.197   3.810  12.154 -2.0141  0.6855 -0.3613
 4207TIP3    H236817   2.207   3.688  12.242  0.8062  1.2888  0.2538
 4208TIP3   OH236818   1.191   2.542  13.718  0.0116 -0.5865  0.0856
 4208TIP3    H136819   1.126   2.481  13.753  1.9201 -1.7725  1.7910
 4208TIP3    H236820   1.248   2.487  13.665  0.3706  0.1897 -0.3439
 4209TIP3   OH236821   1.652   3.911  11.382 -0.2556 -0.3169 -1.0699
 4209TIP3    H136822   1.704   3.983  11.345 -0.7328  0.0909 -0.9463
 4209TIP3    H236823   1.600   3.879  11.309 -0.2434 -0.3599 -1.0596
 4210TIP3   OH236824   1.839   5.108  13.803  0.0784  0.0536  0.3523
 4210TIP3    H136825   1.820   5.129  13.712 -1.4050 -2.8607 -0.1596
 4210TIP3    H236826   1.780   5.164  13.854 -3.0454 -1.8384 -0.8452
 4211TIP3   OH236827   7.226   3.559  13.012 -0.5818  0.4142  0.5755
 4211TIP3    H136828   7.261   3.640  12.976  0.6595 -0.7383 -0.9486
 4211TIP3    H236829   7.131   3.569  13.006 -0.4466  0.9074 -1.6920
 4212TIP3   OH236830   4.448   6.177  13.906  0.3470  0.1383  0.2497
 4212TIP3    H136831   4.507   6.245  13.874  0.9150 -1.5664 -2.7166
 4212TIP3    H236832   4.364   6.197  13.866  1.0243 -1.9280 -2.5129
 4213TIP3   OH236833   5.801   6.892  13.384  0.2375 -0.3182 -0.3614
 4213TIP3    H136834   5.734   6.834  13.349 -0.8112  0.2935  0.5731
 4213TIP3    H236835   5.826   6.948  13.310 -0.0901 -0.7259 -0.7798
 4214TIP3   OH236836   3.075   6.155  11.755 -0.0177 -0.1293 -0.5748
 4214TIP3    H136837   3.004   6.102  11.792 -0.5732  1.2327  0.3615
 4214TIP3    H236838   3.155   6.108  11.781 -0.3139  1.1251  3.1396
 4215TIP3   OH236839   1.762   1.986  13.207 -0.5889  0.3105  0.3441
 4215TIP3    H136840   1.708   2.031  13.143  0.2062 -0.0758 -0.6253
 4215TIP3    H236841   1.838   1.956  13.158  0.0889  0.0716  1.4846
 4216TIP3   OH236842   5.761   3.428  12.416 -0.3333  0.3671  0.3564
 4216TIP3    H136843   5.700   3.485  12.369  1.6239  1.0617 -1.5308
 4216TIP3    H236844   5.724   3.340  12.407 -0.5245  0.6180 -1.7508
 4217TIP3   OH236845   5.533   7.059  13.431 -0.1778  0.5496 -0.5758
 4217TIP3    H136846   5.463   7.002  13.400 -2.0560  2.0637  0.6589
 4217TIP3    H236847   5.605   6.999  13.452 -1.0935 -1.0688 -1.7871
 4218TIP3   OH236848   5.937   4.359  11.235 -0.0044  0.2008 -0.1447
 4218TIP3    H136849   5.935   4.293  11.166  1.0224  1.8427 -1.8138
 4218TIP3    H236850   5.862   4.415  11.217  0.8870  1.2724 -0.6202
 4219TIP3   OH236851   6.156   1.471  12.527  0.2072 -0.1398 -0.2879
 4219TIP3    H136852   6.192   1.399  12.476  1.1463  1.0267 -1.3294
 4219TIP3    H236853   6.219   1.543  12.515  1.0953 -0.0798  3.3672
 4220TIP3   OH236854   3.546   2.705  12.040 -0.1757 -0.1253  0.3862
 4220TIP3    H136855   3.512   2.771  11.980  1.0665  0.4771  0.3074
 4220TIP3    H236856   3.525   2.622  11.998  0.3034  0.2784 -0.7106
 4221TIP3   OH236857   2.767   0.177  12.750 -0.9794 -0.0024 -0.5509
 4221TIP3    H136858   2.691   0.126  12.779 -0.2678 -0.9688 -0.3289
 4221TIP3    H236859   2.730   0.254  12.709 -2.0707  0.2365  0.8138
 4222TIP3   OH236860   5.811   7.106  11.714 -0.0224  0.1397  0.1934
 4222TIP3    H136861   5.832   7.199  11.727  0.3230  0.0931 -0.0457
 4222TIP3    H236862   5.804   7.071  11.803  0.7126  0.1961  0.2787
 4223TIP3   OH236863   0.398   3.379  12.722 -0.3986  0.4543 -0.4525
 4223TIP3    H136864   0.360   3.429  12.794 -0.3729 -0.0177 -0.1025
 4223TIP3    H236865   0.323   3.357  12.666 -0.8628 -1.4149  0.8091
 4224TIP3   OH236866   5.961   3.939  13.051  0.1990  0.2325 -0.4422
 4224TIP3    H136867   5.959   3.986  13.134  0.2180  1.5818 -1.1791
 4224TIP3    H236868   5.869   3.933  13.024  0.1496 -0.6225 -0.1058
 4225TIP3   OH236869   6.505   1.509  13.382  0.2124  0.2164 -0.0345
 4225TIP3    H136870   6.485   1.439  13.445 -1.2127 -1.1616 -1.9121
 4225TIP3    H236871   6.419   1.548  13.362  0.8776  1.9469  0.2934
 4226TIP3   OH236872   5.460   4.005  13.155 -0.1330 -0.2847  0.4306
 4226TIP3    H136873   5.408   3.928  13.178 -1.4250  0.3758 -0.1777
 4226TIP3    H236874   5.474   4.051  13.238  0.8174 -1.2452  0.8300
 4227TIP3   OH236875   6.134   4.804  11.420  0.2603  1.0223 -0.0719
 4227TIP3    H136876   6.075   4.809  11.345 -0.1792  0.2445  0.2058
 4227TIP3    H236877   6.204   4.745  11.392  0.4332  1.2321 -0.0862
 4228TIP3   OH236878   2.020   7.043  13.520  0.2377  0.0550  0.1713
 4228TIP3    H136879   2.061   6.995  13.593 -0.5633  1.1509  1.3743
 4228TIP3    H236880   2.092   7.059  13.459  0.6339 -2.2262 -0.0676
 4229TIP3   OH236881   2.296   3.258  13.414  0.1041  0.0850 -0.5890
 4229TIP3    H136882   2.262   3.330  13.467 -1.4349 -2.4723  2.2483
 4229TIP3    H236883   2.233   3.248  13.343 -1.7335 -0.6214  1.0467
 4230TIP3   OH236884   0.884   6.023  11.500 -0.9466  0.5040  0.1371
 4230TIP3    H136885   0.840   6.099  11.462 -0.2606  0.8397 -0.0020
 4230TIP3    H236886   0.842   6.011  11.585  0.3996  2.4002  1.1314
 4231TIP3   OH236887   3.251   3.228  12.255 -0.0696 -0.5282 -0.5623
 4231TIP3    H136888   3.308   3.302  12.273 -0.2140 -0.2881 -1.0887
 4231TIP3    H236889   3.310   3.157  12.230 -0.0196 -0.1704 -1.4807
 4232TIP3   OH236890   3.936   6.388  12.201  0.1063  0.0981  0.2101
 4232TIP3    H136891   4.017   6.411  12.247  0.3678  0.1172 -0.2534
 4232TIP3    H236892   3.919   6.297  12.226  0.6216 -0.1118 -0.1982
 4233TIP3   OH236893   0.695   6.287  11.859 -0.6202 -0.0508 -0.0134
 4233TIP3    H136894   0.736   6.341  11.792 -1.0187  0.7476  0.3834
 4233TIP3    H236895   0.603   6.311  11.857 -1.0281 -1.5384 -0.6176
 4234TIP3   OH236896   7.191   4.986  11.427 -0.1197  0.3988  0.3569
 4234TIP3    H136897   7.206   5.063  11.372  2.4589 -0.6835 -0.6263
 4234TIP3    H236898   7.100   4.963  11.412 -0.3743  2.0419 -0.9124
 4235TIP3   OH236899   5.836   2.800  13.073  0.2205  0.0041  0.0363
 4235TIP3    H136900   5.819   2.706  13.087 -0.9052  0.2706  0.5656
 4235TIP3    H236901   5.779   2.824  13.001 -0.1752  0.4848  0.5050
 4236TIP3   OH236902   5.421   7.460  13.554 -0.4147  0.7216 -0.0765
 4236TIP3    H136903   5.375   7.399  13.496 -1.3019 -1.3750  2.6755
 4236TIP3    H236904   5.496   7.410  13.587 -0.9655  1.1869  1.9742
 4237TIP3   OH236905   7.637   4.223  12.826 -0.4864  0.3637  0.1476
 4237TIP3    H136906   7.552   4.179  12.831 -0.5699  0.4783 -0.2465
 4237TIP3    H236907   7.620   4.304  12.778 -0.0451  0.1076 -0.4592
 4238TIP3   OH236908   1.303   0.365  12.160 -0.1811  0.9310  0.3392
 4238TIP3    H136909   1.282   0.296  12.097  1.1087  2.5383 -2.0209
 4238TIP3    H236910   1.279   0.329  12.245 -3.3076 -0.8612 -1.1500
 4239TIP3   OH236911   4.307   6.323  13.520 -0.2167 -0.2697  0.0522
 4239TIP3    H136912   4.250   6.374  13.462 -0.2353 -1.9793 -1.5115
 4239TIP3    H236913   4.396   6.349  13.497 -0.2520 -0.3672 -0.1940
 4240TIP3   OH236914   6.913   1.982  13.710  0.4225  0.2468  0.8042
 4240TIP3    H136915   6.961   2.064  13.705 -0.1660  0.5475 -0.3763
 4240TIP3    H236916   6.822   2.007  13.724  0.1087 -0.1268 -0.3723
 4241TIP3   OH236917   3.573   1.931  11.908 -0.0642 -0.0594 -0.2697
 4241TIP3    H136918   3.543   2.009  11.956  0.7864  0.6966 -0.9318
 4241TIP3    H236919   3.515   1.861  11.938  0.5064  0.3431  1.9425
 4242TIP3   OH236920   7.062   5.174  13.816  0.5697  0.6116  0.3834
 4242TIP3    H136921   7.073   5.144  13.726  0.5502 -0.3399  0.6837
 4242TIP3    H236922   7.130   5.128  13.865  0.8825  1.4859  0.7785
 4243TIP3   OH236923   0.563   4.998  13.452  0.3486  1.2428  0.0953
 4243TIP3    H136924   0.498   4.999  13.382 -1.5744  0.4883  1.7822
 4243TIP3    H236925   0.566   5.088  13.484  1.1489  1.5641 -0.8193
 4244TIP3   OH236926   5.155   1.273  12.295  0.2337  0.2808 -0.1358
 4244TIP3    H136927   5.231   1.294  12.240 -0.0875  0.7140 -0.4211
 4244TIP3    H236928   5.127   1.187  12.264 -1.0802  1.2957 -1.9757
 4245TIP3   OH236929   4.230   0.755  12.617  0.7478 -1.1822 -0.7885
 4245TIP3    H136930   4.308   0.743  12.563  1.0423 -1.9852 -0.2036
 4245TIP3    H236931   4.237   0.687  12.684  1.5067  1.1081  1.5890
 4246TIP3   OH236932   3.535   3.482  12.933  0.4385 -0.7141  0.6308
 4246TIP3    H136933   3.534   3.559  12.876 -0.6247  0.2508  1.8706
 4246TIP3    H236934   3.541   3.408  12.873  1.0810  0.3139 -0.6252
 4247TIP3   OH236935   5.299   5.263  10.834  0.5413 -0.7705  0.2262
 4247TIP3    H136936   5.394   5.263  10.847  1.0686 -0.3722 -2.7882
 4247TIP3    H236937   5.282   5.343  10.783 -1.6501 -0.1557  1.7610
 4248TIP3   OH236938   5.521   4.258  10.980 -0.1081  0.5939  0.4876
 4248TIP3    H136939   5.574   4.337  10.966  1.0559 -0.3814 -0.9608
 4248TIP3    H236940   5.584   4.186  10.977 -1.3898 -0.5471 -0.2674
 4249TIP3   OH236941   5.976   0.619  11.332 -0.1241  0.3095  0.0142
 4249TIP3    H136942   6.023   0.537  11.321 -1.5269 -0.4143 -0.8283
 4249TIP3    H236943   5.888   0.601  11.299 -2.1794  0.5251  4.6992
 4250TIP3   OH236944   6.350   2.558  11.852 -0.1113 -0.6285 -0.0481
 4250TIP3    H136945   6.412   2.542  11.781 -0.6154  0.7685 -0.8369
 4250TIP3    H236946   6.329   2.651  11.846 -2.2369 -1.0303  0.2213
 4251TIP3   OH236947   2.245   5.986  10.866 -0.0875 -0.0151 -0.4228
 4251TIP3    H136948   2.291   6.070  10.861  1.0066 -0.3093  2.6471
 4251TIP3    H236949   2.180   5.998  10.935 -1.0579 -1.2303 -1.0831
 4252TIP3   OH236950   7.377   1.820  12.715  0.0191  0.1135 -0.5223
 4252TIP3    H136951   7.309   1.814  12.783  0.7604 -1.6121  0.1059
 4252TIP3    H236952   7.458   1.794  12.759  0.9639  1.2921 -1.4856
 4253TIP3   OH236953   2.272   2.354  12.221 -0.7632 -0.2772 -0.1671
 4253TIP3    H136954   2.339   2.420  12.235 -1.7394  1.1144 -1.7068
 4253TIP3    H236955   2.264   2.347  12.126 -0.0496 -3.3451 -0.1083
 4254TIP3   OH236956   1.817   0.295  13.708 -0.3902  0.6401 -0.4622
 4254TIP3    H136957   1.798   0.358  13.638 -0.7665  0.6242 -0.3756
 4254TIP3    H236958   1.912   0.296  13.716 -0.3773  0.9940 -0.6519
 4255TIP3   OH236959   5.814   4.487  11.686 -0.1440  0.1842 -0.7411
 4255TIP3    H136960   5.864   4.479  11.605  1.4732 -0.3861  0.2770
 4255TIP3    H236961   5.879   4.487  11.756 -1.5083  0.3771  0.6017
 4256TIP3   OH236962   5.506   1.018  13.220 -0.5522 -0.0576  0.0883
 4256TIP3    H136963   5.543   1.007  13.308  2.7162  1.4517 -0.9019
 4256TIP3    H236964   5.499   1.113  13.209 -1.5910 -0.2440 -1.0221
 4257TIP3   OH236965   7.390   6.129  11.753 -0.5099 -0.4535  0.3915
 4257TIP3    H136966   7.412   6.115  11.661 -0.3593  1.1441  0.1726
 4257TIP3    H236967   7.294   6.139  11.754 -0.2508  3.4944 -0.2236
 4258TIP3   OH236968   2.528   7.299  12.628 -0.2311  0.1365 -0.0905
 4258TIP3    H136969   2.534   7.360  12.701  1.1463 -0.4742  0.3578
 4258TIP3    H236970   2.612   7.253  12.629 -0.9093 -1.1829 -0.9186
 4259TIP3   OH236971   5.928   5.403  13.122 -0.1199  0.3103  0.4287
 4259TIP3    H136972   5.978   5.472  13.078 -0.3265  1.3062  1.6945
 4259TIP3    H236973   5.848   5.394  13.070 -0.5893  1.8282  0.8252
 4260TIP3   OH236974   2.449   5.401  12.461 -0.0609  0.3937 -0.0693
 4260TIP3    H136975   2.527   5.345  12.454 -0.5861 -0.3275 -0.2936
 4260TIP3    H236976   2.473   5.481  12.415  0.6014  0.2360 -0.0130
 4261TIP3   OH236977   3.850   3.221  12.207  0.0617 -0.3607 -0.3934
 4261TIP3    H136978   3.893   3.298  12.169 -0.5173  0.1430 -0.0492
 4261TIP3    H236979   3.877   3.221  12.299 -0.8002  0.0659 -0.1291
 4262TIP3   OH236980   5.314   6.395  12.575  0.3159  0.0343  0.3644
 4262TIP3    H136981   5.255   6.417  12.647  0.9958  1.1795  0.6038
 4262TIP3    H236982   5.355   6.313  12.601 -0.4891 -0.3058  0.6054
 4263TIP3   OH236983   3.203   4.762  11.780 -0.1998 -0.3201 -0.3056
 4263TIP3    H136984   3.275   4.754  11.843 -1.0606  1.4527  0.9900
 4263TIP3    H236985   3.124   4.758  11.833 -0.9839  0.3996 -1.3848
 4264TIP3   OH236986   3.623   3.331  12.119 -0.0299 -0.0637  0.5239
 4264TIP3    H136987   3.707   3.292  12.143 -0.8321 -0.6851  2.4362
 4264TIP3    H236988   3.583   3.356  12.202 -0.5214  2.8897 -0.4910
 4265TIP3   OH236989   6.645   1.431  11.361 -0.2038 -0.0308 -0.0680
 4265TIP3    H136990   6.707   1.366  11.393 -1.5574 -0.5941  1.5113
 4265TIP3    H236991   6.602   1.389  11.286  0.1272 -0.2719 -0.1249
 4266TIP3   OH236992   3.348   5.871  12.671 -0.3701  0.5272 -0.1195
 4266TIP3    H136993   3.264   5.825  12.669 -1.2527  2.0969 -0.9607
 4266TIP3    H236994   3.390   5.841  12.751 -1.7903 -0.1729  0.3952
 4267TIP3   OH236995   4.436   1.434  12.688  0.0253 -0.0914 -0.4721
 4267TIP3    H136996   4.369   1.463  12.750  0.7160  0.3275  0.0896
 4267TIP3    H236997   4.465   1.350  12.722  1.3563  0.7440  0.5642
 4268TIP3   OH236998   1.639   4.382  13.039 -0.4223  0.4381 -0.0189
 4268TIP3    H136999   1.592   4.453  13.083 -2.7034  0.4299 -2.2184
 4268TIP3    H237000   1.664   4.322  13.109 -0.1513  2.4279  1.6877
 4269TIP3   OH237001   0.750   0.628  12.443  0.2603  0.1688  0.2997
 4269TIP3    H137002   0.722   0.704  12.495  0.7017  0.4874  0.0795
 4269TIP3    H237003   0.668   0.589  12.411  0.0277  0.5066  0.4796
 4270TIP3   OH237004   1.430   6.420  12.908 -0.0741 -0.0669 -0.0830
 4270TIP3    H137005   1.519   6.385  12.911  0.2874  0.3302 -2.9008
 4270TIP3    H237006   1.437   6.497  12.851 -1.9380  0.9715  1.0025
 4271TIP3   OH237007   4.415   6.007  13.572  0.1376 -0.1208  0.2205
 4271TIP3    H137008   4.343   6.054  13.614  1.0873  0.3740  1.3343
 4271TIP3    H237009   4.438   6.061  13.496 -0.9457 -0.5273 -0.4316
 4272TIP3   OH237010   0.301   5.402  12.089 -0.6600  0.0632  0.1430
 4272TIP3    H137011   0.216   5.373  12.055 -0.6707 -0.5191  0.6400
 4272TIP3    H237012   0.362   5.334  12.060 -0.8515 -1.0562  2.1919
 4273TIP3   OH237013   4.694   2.658  13.184  0.4008  0.1943  0.6286
 4273TIP3    H137014   4.669   2.745  13.216  1.5669 -0.0942  2.5323
 4273TIP3    H237015   4.771   2.674  13.129 -0.0769  0.4639  0.0313
 4274TIP3   OH237016   3.851   4.737  13.579 -0.6701 -0.0496  0.2270
 4274TIP3    H137017   3.803   4.739  13.496 -0.4573  2.5593  0.0920
 4274TIP3    H237018   3.943   4.749  13.555 -0.5507  0.2751  0.8139
 4275TIP3   OH237019   6.267   6.559  12.786 -0.3864 -0.6165  0.2164
 4275TIP3    H137020   6.311   6.525  12.864  1.1147  0.1117 -0.2711
 4275TIP3    H237021   6.300   6.505  12.714 -0.7419 -0.4330 -0.0897
 4276TIP3   OH237022   0.801   4.172  13.022  0.0458 -0.3516 -0.5447
 4276TIP3    H137023   0.864   4.241  13.046 -1.7536  1.0387  0.5007
 4276TIP3    H237024   0.717   4.217  13.019 -1.3536 -2.6272  0.9590
 4277TIP3   OH237025   2.927   1.585  11.762  0.3425 -0.2802 -0.0243
 4277TIP3    H137026   2.854   1.566  11.703  0.2283  0.2985 -0.0665
 4277TIP3    H237027   3.006   1.565  11.711  0.3279  2.0670 -1.0761
 4278TIP3   OH237028   2.427   3.515  12.719 -0.0654  0.0494 -0.4739
 4278TIP3    H137029   2.478   3.533  12.798 -1.7705  1.7087  0.3043
 4278TIP3    H237030   2.462   3.577  12.654  0.2977 -0.2659 -0.5874
 4279TIP3   OH237031   2.065   0.168  11.746 -0.0115  0.5803  0.1608
 4279TIP3    H137032   2.112   0.251  11.739 -2.5048  2.3208  2.4692
 4279TIP3    H237033   2.133   0.104  11.768  2.3231  1.4217 -3.6503
 4280TIP3   OH237034   0.353   4.779  13.061  0.0702 -0.3747 -0.2086
 4280TIP3    H137035   0.267   4.800  13.024  0.4868  2.3710  0.1774
 4280TIP3    H237036   0.339   4.784  13.156  0.5562 -0.3904 -0.1371
 4281TIP3   OH237037   6.397   6.962  11.815 -0.1411 -0.4865  0.0827
 4281TIP3    H137038   6.475   6.909  11.830  0.7018  0.3154 -1.2553
 4281TIP3    H237039   6.407   7.037  11.874 -0.6707 -1.1321  1.0079
 4282TIP3   OH237040   5.179   1.094  13.198  0.3738 -0.1055  0.0503
 4282TIP3    H137041   5.177   1.067  13.106  0.2024 -0.1788  0.0752
 4282TIP3    H237042   5.253   1.046  13.235 -1.3476 -2.4964  0.6769
 4283TIP3   OH237043   6.303   3.625  10.943  0.1815 -0.2308  0.4432
 4283TIP3    H137044   6.247   3.578  10.881  1.3666  2.4888 -3.0742
 4283TIP3    H237045   6.379   3.567  10.954 -0.8782 -1.5894  0.9279
 4284TIP3   OH237046   7.424   1.252  10.685 -0.5741  0.1165  0.2694
 4284TIP3    H137047   7.516   1.237  10.707 -0.3742  0.2442 -0.4610
 4284TIP3    H237048   7.375   1.209  10.756  0.0431  0.5877  1.0016
 4285TIP3   OH237049   6.283   5.397  11.882  0.0048  0.0112 -0.1766
 4285TIP3    H137050   6.293   5.303  11.872 -1.3687 -0.0581 -1.3480
 4285TIP3    H237051   6.257   5.409  11.973  0.0472 -0.7603 -0.0569
 4286TIP3   OH237052   4.058   0.370  11.407  0.1573 -0.4217 -0.3723
 4286TIP3    H137053   3.980   0.369  11.462 -0.4791  0.7102 -1.2341
 4286TIP3    H237054   4.119   0.312  11.453  0.0670  1.2827  2.1601
 4287TIP3   OH237055   6.716   5.923  11.817 -0.0429 -0.6271 -0.4863
 4287TIP3    H137056   6.764   5.990  11.865 -0.8004  0.5591 -1.3047
 4287TIP3    H237057   6.659   5.882  11.882 -0.4863  0.4155 -0.1987
 4288TIP3   OH237058   2.186   0.964  13.472  0.0915  0.0242 -0.0554
 4288TIP3    H137059   2.173   1.059  13.473 -0.9789 -0.1110 -0.3182
 4288TIP3    H237060   2.098   0.927  13.481  0.3730 -0.9421 -1.0819
 4289TIP3   OH237061   3.325   1.731  11.808 -0.2132 -0.2190 -0.1639
 4289TIP3    H137062   3.392   1.692  11.865 -0.1669  1.4818  1.0158
 4289TIP3    H237063   3.248   1.740  11.864 -0.1522  1.5440 -0.3116
 4290TIP3   OH237064   1.876   2.953  12.215 -0.6131  0.4311  0.3275
 4290TIP3    H137065   1.815   2.927  12.284 -0.2692  1.9387  1.2497
 4290TIP3    H237066   1.860   3.047  12.203 -1.2302  0.0891 -2.2567
 4291TIP3   OH237067   0.586   3.752  12.697  0.4288 -0.0860  0.1567
 4291TIP3    H137068   0.611   3.775  12.786 -0.1980  0.7418  0.1223
 4291TIP3    H237069   0.646   3.801  12.641  2.7522 -2.7429  0.0797
 4292TIP3   OH237070   1.733   6.168  13.748  0.1429  0.2342  0.5245
 4292TIP3    H137071   1.709   6.110  13.676 -0.2371  1.7540 -0.6375
 4292TIP3    H237072   1.829   6.166  13.748  0.1510  0.2334 -0.0670
 4293TIP3   OH237073   3.732   3.367  11.059  0.4988 -0.0174  0.0114
 4293TIP3    H137074   3.726   3.274  11.079  0.6224 -0.1437 -0.5222
 4293TIP3    H237075   3.671   3.381  10.986 -0.0112  0.4505  0.5135
 4294TIP3   OH237076   1.021   2.945  13.164 -0.3101 -0.1604 -0.5252
 4294TIP3    H137077   0.941   2.902  13.196 -0.9407  1.3147 -0.0029
 4294TIP3    H237078   1.088   2.877  13.166 -1.3624 -1.2111 -0.1451
 4295TIP3   OH237079   0.277   2.193  11.972  0.2368  0.3186 -0.3083
 4295TIP3    H137080   0.297   2.114  12.022 -0.2168 -0.1749 -0.8910
 4295TIP3    H237081   0.217   2.163  11.904  1.0407  0.9288 -1.3085
 4296TIP3   OH237082   3.264   6.883  14.046 -0.0231 -0.2670 -0.0405
 4296TIP3    H137083   3.225   6.801  14.016  0.3578 -0.0052 -1.3548
 4296TIP3    H237084   3.310   6.916  13.969 -0.5939  1.4337  0.3039
 4297TIP3   OH237085   6.114   4.892  12.680 -0.5950  0.2293 -0.3724
 4297TIP3    H137086   6.122   4.900  12.775 -1.8169  2.9132 -0.4024
 4297TIP3    H237087   6.023   4.916  12.661 -0.4299 -0.4220 -2.2150
 4298TIP3   OH237088   2.725   6.982  13.155 -0.0891  0.5068  0.4858
 4298TIP3    H137089   2.743   7.074  13.136  0.5520  0.4251  0.6608
 4298TIP3    H237090   2.632   6.980  13.180 -0.3916  0.9342 -0.5529
 4299TIP3   OH237091   6.605   5.080  12.318  0.3287  0.1633  0.3289
 4299TIP3    H137092   6.529   5.114  12.272 -0.1641  1.3637  1.9395
 4299TIP3    H237093   6.674   5.144  12.300  0.1390  0.6274  1.1933
 4300TIP3   OH237094   0.904   6.873  12.646  0.2433  0.6789 -0.0305
 4300TIP3    H137095   0.924   6.802  12.585 -3.0096  0.6743 -1.3159
 4300TIP3    H237096   0.920   6.953  12.596 -0.5514  0.7125 -0.2474
 4301TIP3   OH237097   0.993   5.399  13.529  0.0716  0.0645  0.3774
 4301TIP3    H137098   1.008   5.305  13.536 -0.6323 -0.0032  1.1606
 4301TIP3    H237099   1.070   5.440  13.568 -0.1052 -0.2109  1.0286
 4302TIP3   OH237100   1.425   0.305  11.560  0.2397  0.1770 -0.2794
 4302TIP3    H137101   1.391   0.385  11.520  0.6247  0.3471 -0.2769
 4302TIP3    H237102   1.514   0.297  11.525 -0.1274 -0.7879 -1.0543
 4303TIP3   OH237103   0.225   3.402  13.230  0.1907 -0.6290 -0.1073
 4303TIP3    H137104   0.164   3.463  13.272 -0.1175 -0.5033 -0.7340
 4303TIP3    H237105   0.223   3.426  13.138 -0.6076 -2.1415 -0.5198
 4304TIP3   OH237106   1.537   0.980  13.494  0.1333  0.3025  0.0821
 4304TIP3    H137107   1.472   1.033  13.539  0.7947  0.8649  0.3895
 4304TIP3    H237108   1.489   0.904  13.463 -0.6872  0.7583  0.2222
 4305TIP3   OH237109   6.991   7.406  11.983 -0.9915 -0.3268  0.0719
 4305TIP3    H137110   6.968   7.494  12.015 -1.0050  0.1892 -1.2709
 4305TIP3    H237111   6.923   7.387  11.918 -1.2187 -1.5170  0.6376
 4306TIP3   OH237112   2.744   7.143  13.457 -0.4783 -0.1586  0.3058
 4306TIP3    H137113   2.752   7.147  13.362  1.1922  0.2099  0.4308
 4306TIP3    H237114   2.664   7.192  13.476 -0.8855 -0.3224 -0.9148
 4307TIP3   OH237115   1.560   6.388  13.626 -0.0729  0.2231 -0.3927
 4307TIP3    H137116   1.545   6.456  13.692 -0.6202 -1.3143  1.1338
 4307TIP3    H237117   1.643   6.348  13.651 -0.7127 -0.9511 -0.0676
 4308TIP3   OH237118   6.590   5.173  11.051  0.8163  0.2744  0.0173
 4308TIP3    H137119   6.670   5.218  11.021  1.7994 -0.6151  1.1959
 4308TIP3    H237120   6.586   5.191  11.145  0.2909 -0.6778  0.1876
 4309TIP3   OH237121   6.599   1.006  13.136 -0.1082 -0.0483  0.1593
 4309TIP3    H137122   6.593   0.940  13.067 -1.3516  0.0412  0.1546
 4309TIP3    H237123   6.533   0.978  13.201 -0.5953  1.1290  0.1897
 4310TIP3   OH237124   6.220   3.938  12.408 -0.2522  0.3320  0.3562
 4310TIP3    H137125   6.256   4.020  12.443  0.5911  0.3084 -0.4229
 4310TIP3    H237126   6.168   3.902  12.480 -1.8956  2.2898  0.2402
 4311TIP3   OH237127   5.890   1.770  11.730  0.0720  0.3891  0.0267
 4311TIP3    H137128   5.805   1.729  11.719 -0.6881  1.5828  1.1578
 4311TIP3    H237129   5.918   1.793  11.641 -0.7645 -0.0429 -0.3528
 4312TIP3   OH237130   3.708   3.192  11.712  0.0474 -0.3955  0.1221
 4312TIP3    H137131   3.735   3.100  11.710 -0.0996 -0.5270  1.9098
 4312TIP3    H237132   3.780   3.237  11.758 -0.9703 -0.0695  1.4623
 4313TIP3   OH237133   5.481   7.294  12.800 -0.1743  0.1078 -0.3965
 4313TIP3    H137134   5.556   7.310  12.743 -1.4363  0.4962 -2.0205
 4313TIP3    H237135   5.463   7.379  12.839  0.3249 -0.0259  0.1367
 4314TIP3   OH237136   4.490   4.262  11.287 -0.1114 -0.1714 -0.1697
 4314TIP3    H137137   4.527   4.343  11.322  0.5891 -0.5878  0.0593
 4314TIP3    H237138   4.528   4.254  11.199  1.0906 -1.0697  0.4047
 4315TIP3   OH237139   6.180   2.115  13.707 -0.2004  0.3348 -0.2929
 4315TIP3    H137140   6.151   2.206  13.698  2.3497  1.1705 -0.8476
 4315TIP3    H237141   6.246   2.117  13.777 -0.1727 -1.1040 -0.2465
 4316TIP3   OH237142   6.738   2.130  11.769 -0.1292  0.3199  0.2454
 4316TIP3    H137143   6.812   2.126  11.829  0.3693  1.0357 -0.2905
 4316TIP3    H237144   6.709   2.040  11.759  1.4125 -0.1293 -0.4267
 4317TIP3   OH237145   2.066   2.898  13.337  0.1541 -0.2694  0.2811
 4317TIP3    H137146   2.038   2.920  13.248  0.1266  1.5857  0.7199
 4317TIP3    H237147   2.160   2.913  13.337  0.4172 -1.7781  0.1637
 4318TIP3   OH237148   6.686   1.657  13.543  0.3974 -0.2906 -0.1695
 4318TIP3    H137149   6.640   1.611  13.472 -1.7606  0.4486  0.6763
 4318TIP3    H237150   6.628   1.647  13.619  1.6160  0.7911  0.9307
 4319TIP3   OH237151   3.345   1.330  11.705 -0.2946 -0.5259  0.6435
 4319TIP3    H137152   3.388   1.414  11.719  0.0803 -0.5703 -0.2116
 4319TIP3    H237153   3.283   1.346  11.634 -0.0866 -1.0146  0.3491
 4320TIP3   OH237154   4.531   6.998  13.558 -0.0171  0.0673 -0.2221
 4320TIP3    H137155   4.479   7.069  13.518  1.8195  1.2792 -0.6020
 4320TIP3    H237156   4.532   7.019  13.651  1.4202  1.2294 -0.4597
 4321TIP3   OH237157   7.562   7.052  12.193 -0.0970 -0.6041 -0.1549
 4321TIP3    H137158   7.512   7.023  12.269  0.5349 -0.7775  0.1942
 4321TIP3    H237159   7.567   7.147  12.202 -0.5952 -0.5579 -0.3363
 4322TIP3   OH237160   7.491   1.329  11.753 -0.5632  0.2167  0.7977
 4322TIP3    H137161   7.475   1.245  11.709 -2.4596  0.1908  1.4548
 4322TIP3    H237162   7.419   1.385  11.724  0.4089  1.4834  0.7539
 4323TIP3   OH237163   6.178   2.711  12.342  0.2979  0.2257 -0.7093
 4323TIP3    H137164   6.169   2.779  12.408  0.5848 -0.0141 -0.4202
 4323TIP3    H237165   6.140   2.749  12.263 -0.6999  0.2467 -0.2323
 4324TIP3   OH237166   3.838   0.214  11.939 -0.3233  0.0669 -0.8373
 4324TIP3    H137167   3.847   0.161  11.860  0.1724  0.5373 -1.0995
 4324TIP3    H237168   3.833   0.150  12.010 -0.2640 -0.3458 -1.2005
 4325TIP3   OH237169   6.705   5.656  11.720  0.1855  0.2639 -0.3750
 4325TIP3    H137170   6.700   5.750  11.735  1.4962  0.0549  1.7156
 4325TIP3    H237171   6.790   5.630  11.754 -0.6010 -1.8641  0.1532
 4326TIP3   OH237172   2.220   3.896  12.530  0.8314  0.0060 -0.5650
 4326TIP3    H137173   2.187   3.984  12.550 -0.5032  0.0296 -2.6129
 4326TIP3    H237174   2.235   3.857  12.616 -1.8167  1.0651  0.4929
 4327TIP3   OH237175   4.287   5.112  10.888  0.0211  0.4987  0.6104
 4327TIP3    H137176   4.216   5.175  10.872 -0.8176 -0.5749 -0.0546
 4327TIP3    H237177   4.367   5.166  10.888 -0.7954  1.7625  1.6207
 4328TIP3   OH237178   7.640   3.452  13.338  0.0187 -0.2908 -0.2463
 4328TIP3    H137179   7.631   3.447  13.433 -1.3985  0.9619 -0.2983
 4328TIP3    H237180   7.553   3.435  13.304  0.4450 -0.4175 -1.3270
 4329TIP3   OH237181   6.349   5.031  11.397  0.2928 -0.0032  0.3105
 4329TIP3    H137182   6.274   4.976  11.373  0.1994  0.1380  0.2739
 4329TIP3    H237183   6.340   5.043  11.492 -0.6041  1.2725  0.0914
 4330TIP3   OH237184   0.022   4.536  12.713  0.3682  0.1493 -0.0653
 4330TIP3    H137185   0.107   4.497  12.694  0.5266  0.0394  0.7981
 4330TIP3    H237186  -0.007   4.574  12.630  1.3582  0.3882 -0.3107
 4331TIP3   OH237187   4.335   5.400  12.212  0.1054 -0.2974 -0.0907
 4331TIP3    H137188   4.331   5.403  12.117  0.9489  2.3061 -0.1183
 4331TIP3    H237189   4.401   5.334  12.232 -1.0394 -1.8681 -1.2045
 4332TIP3   OH237190   5.684   0.052  12.658 -0.0331  0.3939 -0.2967
 4332TIP3    H137191   5.774   0.074  12.682  0.3814 -2.9448  1.8953
 4332TIP3    H237192   5.640   0.037  12.742 -0.9284 -3.6817 -1.2852
 4333TIP3   OH237193   0.569   5.694  11.954  0.5243  0.0231  0.2900
 4333TIP3    H137194   0.474   5.696  11.944  0.6384  1.1506 -0.9117
 4333TIP3    H237195   0.588   5.770  12.009  0.6856 -0.5704  1.0605
 4334TIP3   OH237196   4.177   6.479  12.821 -0.1583  0.0038 -0.1216
 4334TIP3    H137197   4.237   6.476  12.895 -0.5914 -1.4381  0.2074
 4334TIP3    H237198   4.143   6.569  12.820  0.0064  0.0901  1.3048
 4335TIP3   OH237199   3.354   0.557  13.132 -0.0973 -0.2693 -0.4403
 4335TIP3    H137200   3.305   0.638  13.118 -0.0590 -0.2612 -0.5264
 4335TIP3    H237201   3.290   0.488  13.115 -0.0592 -0.2591 -0.6210
 4336TIP3   OH237202   0.750   5.891  13.041  0.1853 -0.4354 -0.6969
 4336TIP3    H137203   0.657   5.882  13.060  0.2028  0.1677 -0.3106
 4336TIP3    H237204   0.753   5.952  12.967  0.3610  1.1573  0.5815
 4337TIP3   OH237205   6.319   2.054  12.540 -0.0142 -0.2364 -0.2328
 4337TIP3    H137206   6.359   2.123  12.592 -0.4559 -0.9840  1.1468
 4337TIP3    H237207   6.371   2.051  12.460  0.3094  1.3520 -0.1239
 4338TIP3   OH237208   1.421   6.765  13.361  0.6543 -0.0195  0.5451
 4338TIP3    H137209   1.358   6.767  13.434  2.1246  1.0323  1.8421
 4338TIP3    H237210   1.484   6.698  13.387  0.7738 -0.1754 -0.1434
 4339TIP3   OH237211   6.415   6.950  11.534  0.0033  0.2037 -0.1286
 4339TIP3    H137212   6.325   6.951  11.501 -0.0170  1.2544 -0.0688
 4339TIP3    H237213   6.406   6.965  11.628  0.2019 -0.4816  0.0057
 4340TIP3   OH237214   0.384   6.517  11.675  0.1275 -0.2521  0.0150
 4340TIP3    H137215   0.302   6.556  11.704  0.1998 -0.0998  0.0162
 4340TIP3    H237216   0.387   6.431  11.718  1.1349  0.7263  2.0132
 4341TIP3   OH237217   5.670   0.082  12.960 -0.1132  0.2761 -0.2842
 4341TIP3    H137218   5.710   0.014  13.015  0.3554  1.7334  1.2724
 4341TIP3    H237219   5.739   0.148  12.949 -1.1745  1.4783  0.0319
 4342TIP3   OH237220   0.776   7.285  11.900 -0.0524 -0.1560  0.2461
 4342TIP3    H137221   0.780   7.377  11.926  0.6448 -0.4804  1.3630
 4342TIP3    H237222   0.863   7.251  11.919  0.1003 -0.7608 -1.3542
 4343TIP3   OH237223   1.830   3.713  11.668 -0.1005  0.1519  0.2107
 4343TIP3    H137224   1.773   3.648  11.628  0.1528 -1.4668  2.2860
 4343TIP3    H237225   1.770   3.780  11.701 -0.3665  1.0376 -1.9020
 4344TIP3   OH237226   6.580   4.819  13.680 -0.6001 -0.1529 -0.1140
 4344TIP3    H137227   6.641   4.786  13.746 -0.1122 -0.4522 -0.7035
 4344TIP3    H237228   6.613   4.906  13.659  0.4003 -0.7856 -1.3419
 4345TIP3   OH237229   5.522   7.110  11.676 -0.1123 -0.0878 -0.7136
 4345TIP3    H137230   5.512   7.179  11.610  0.1499  0.4114 -0.2378
 4345TIP3    H237231   5.612   7.079  11.665 -0.6016 -1.2597 -1.7794
 4346TIP3   OH237232   5.075   2.112  12.490  1.1254 -0.1470 -0.1526
 4346TIP3    H137233   5.091   2.154  12.406  3.1325  0.2131  0.3764
 4346TIP3    H237234   5.020   2.174  12.538  3.0167  1.3708  0.1507
 4347TIP3   OH237235   2.194   5.951  12.590 -0.2154  0.3721  0.4942
 4347TIP3    H137236   2.262   5.996  12.540  0.0492 -2.4728 -2.0206
 4347TIP3    H237237   2.237   5.873  12.624 -1.9200 -0.9361 -0.2168
 4348TIP3   OH237238   0.029   1.909  12.149 -0.3643 -0.1275 -0.2213
 4348TIP3    H137239   0.077   1.838  12.190  1.3793  0.5298 -1.0384
 4348TIP3    H237240   0.038   1.983  12.209  1.5000  0.6007 -1.3223
 4349TIP3   OH237241   3.072   7.594  11.352  0.3327 -0.2494  0.5088
 4349TIP3    H137242   3.004   7.541  11.394  1.1600 -0.0020  2.2163
 4349TIP3    H237243   3.123   7.630  11.424  1.0142  1.2738 -0.6749
 4350TIP3   OH237244   1.818   5.092  12.762 -0.4661  0.1854 -0.3080
 4350TIP3    H137245   1.856   5.136  12.686  1.1020 -1.7830 -0.7341
 4350TIP3    H237246   1.768   5.160  12.807 -1.1909  1.4824 -2.9104
 4351TIP3   OH237247   4.447   3.718  12.165 -0.1681 -0.2561 -0.1042
 4351TIP3    H137248   4.524   3.736  12.111 -0.5062  1.7490  0.0023
 4351TIP3    H237249   4.483   3.680  12.245  0.7565  0.7149 -0.0285
 4352TIP3   OH237250   0.940   2.020  13.860 -0.0256 -0.7514 -0.7309
 4352TIP3    H137251   0.874   2.089  13.851  0.2808 -0.2444  0.6107
 4352TIP3    H237252   0.961   1.995  13.771 -0.8909  0.1860 -1.2219
 4353TIP3   OH237253   6.481   6.528  11.338  0.3957 -0.2745  0.3381
 4353TIP3    H137254   6.394   6.541  11.377  0.2913 -1.2338  0.4346
 4353TIP3    H237255   6.515   6.449  11.379  1.5220  0.3371  0.6282
 4354TIP3   OH237256   3.644   5.048  12.189  0.0456 -0.1765 -0.0384
 4354TIP3    H137257   3.668   5.099  12.112 -1.4559 -0.3134 -0.6360
 4354TIP3    H237258   3.706   4.975  12.190  0.5225  0.2085 -0.7062
 4355TIP3   OH237259   4.576   0.961  11.961  0.5721  0.0312  0.1417
 4355TIP3    H137260   4.525   0.880  11.953  0.8554 -0.1990  0.6671
 4355TIP3    H237261   4.633   0.960  11.884  1.2342 -0.7438  0.6214
 4356TIP3   OH237262   4.810   2.497  12.466 -0.2245  0.0496 -0.0090
 4356TIP3    H137263   4.729   2.485  12.514  0.5104  0.6689  1.4533
 4356TIP3    H237264   4.839   2.585  12.489  1.3582 -0.5110  0.3250
 4357TIP3   OH237265   1.828   1.310  12.128 -0.7276  0.1617  0.1401
 4357TIP3    H137266   1.832   1.300  12.224  1.0545  1.2032  0.2054
 4357TIP3    H237267   1.891   1.378  12.108  1.1633 -2.0480 -2.0686
 4358TIP3   OH237268   4.489   1.507  11.891 -0.5194 -0.5829  0.1494
 4358TIP3    H137269   4.566   1.461  11.925 -0.8068 -1.9447 -0.9111
 4358TIP3    H237270   4.521   1.552  11.813  0.3459  3.2520  2.4487
 4359TIP3   OH237271   0.538   3.142  12.174 -0.2189  0.0322  0.9795
 4359TIP3    H137272   0.611   3.147  12.236  0.4060 -0.8986  0.3279
 4359TIP3    H237273   0.549   3.059  12.129 -0.6971  0.6626 -0.3619
 4360TIP3   OH237274   1.823   7.392  11.008 -0.0474 -0.4948 -0.0517
 4360TIP3    H137275   1.821   7.398  11.104 -2.9969  0.4999 -0.0857
 4360TIP3    H237276   1.888   7.457  10.981  1.2861 -1.2308  1.2416
 4361TIP3   OH237277   4.527   2.294  12.300  0.2535 -0.1137  0.2000
 4361TIP3    H137278   4.469   2.248  12.239 -1.7702  0.2968  1.7000
 4361TIP3    H237279   4.519   2.246  12.382  0.4133  1.1640  0.9958
 4362TIP3   OH237280   0.039   6.059  12.374  0.1111  0.2968  0.2636
 4362TIP3    H137281  -0.006   6.124  12.320 -0.8820  0.1810  0.9156
 4362TIP3    H237282   0.132   6.070  12.353 -0.1786  0.8688 -0.7702
 4363TIP3   OH237283   1.495   1.272  11.801  0.3031  0.1520 -0.3675
 4363TIP3    H137284   1.497   1.182  11.770 -0.3230 -0.3460  0.9804
 4363TIP3    H237285   1.582   1.307  11.780  1.1315 -1.2694  0.5329
 4364TIP3   OH237286   2.719   5.419  11.696  0.0477 -0.5300  0.1674
 4364TIP3    H137287   2.719   5.389  11.787 -0.9218 -1.3715 -0.0910
 4364TIP3    H237288   2.721   5.514  11.702 -2.0912 -0.4869  1.1352
 4365TIP3   OH237289   1.169   2.880  11.644  0.3390  0.2917  0.0716
 4365TIP3    H137290   1.231   2.943  11.608 -0.7492  0.9528 -0.6705
 4365TIP3    H237291   1.123   2.927  11.713  0.0951  0.0502  0.0756
 4366TIP3   OH237292   5.510   0.926  11.919  0.1366 -0.1049  0.0862
 4366TIP3    H137293   5.585   0.983  11.936  1.4900 -1.9249  0.5332
 4366TIP3    H237294   5.494   0.881  12.003 -2.2617  1.0918  0.3584
 4367TIP3   OH237295   6.703   3.440  11.768 -0.1747 -0.4746  0.2888
 4367TIP3    H137296   6.658   3.501  11.710  0.4795 -0.0789  0.1811
 4367TIP3    H237297   6.658   3.448  11.852 -0.8842 -0.7690 -0.0615
 4368TIP3   OH237298   7.163   3.855  13.125  0.0827  0.1014 -0.2574
 4368TIP3    H137299   7.121   3.938  13.101  0.0715  0.3338  0.5279
 4368TIP3    H237300   7.254   3.867  13.101 -0.0938 -0.0066 -0.9945
 4369TIP3   OH237301   0.445   3.997  13.195 -0.2843 -0.0820  0.0907
 4369TIP3    H137302   0.507   3.924  13.203  0.3537  0.2582 -1.3983
 4369TIP3    H237303   0.457   4.048  13.275  0.9103 -0.3788  0.1159
 4370TIP3   OH237304   6.680   2.982  12.276  0.4672 -0.1894 -0.1574
 4370TIP3    H137305   6.678   2.935  12.192 -2.0289 -1.4045  0.4935
 4370TIP3    H237306   6.599   3.033  12.276 -0.4101 -1.4644  2.1633
 4371TIP3   OH237307   4.900   2.340  11.683  0.0343  0.7896  0.4734
 4371TIP3    H137308   4.816   2.386  11.688  0.1775  0.9507  1.6323
 4371TIP3    H237309   4.904   2.289  11.764  0.2779 -0.5953 -0.3758
 4372TIP3   OH237310   3.860   1.330  12.381  0.5556 -0.2942 -0.3505
 4372TIP3    H137311   3.815   1.256  12.339  0.2912 -1.0477  1.1715
 4372TIP3    H237312   3.953   1.313  12.365  0.4609 -0.5559 -0.6492
 4373TIP3   OH237313   0.590   3.377  11.791 -0.3702 -0.2750 -0.2343
 4373TIP3    H137314   0.629   3.290  11.807  1.5270  1.0255  3.4484
 4373TIP3    H237315   0.503   3.371  11.830 -0.5742 -0.7485 -0.7512
 4374TIP3   OH237316   4.853   4.211  11.642  0.4417  0.2458  0.2855
 4374TIP3    H137317   4.802   4.187  11.564  0.5977 -0.6600  0.4578
 4374TIP3    H237318   4.922   4.268  11.608 -0.2891  0.9524 -0.0438
 4375TIP3   OH237319   4.246   3.818  13.044  0.2058 -0.0481  0.4063
 4375TIP3    H137320   4.295   3.805  12.963 -0.7965 -1.3976 -0.0177
 4375TIP3    H237321   4.268   3.907  13.071  1.8931 -0.1700 -0.4199
 4376TIP3   OH237322   6.069   1.884  13.601  0.2346 -0.2348  0.2241
 4376TIP3    H137323   6.053   1.821  13.671 -0.0056 -1.9991 -1.3033
 4376TIP3    H237324   6.113   1.957  13.643 -0.1789 -1.0759  2.2430
 4377TIP3   OH237325   2.963   7.219  12.263 -0.2130 -0.5345 -0.2393
 4377TIP3    H137326   3.016   7.200  12.341  0.0240 -1.0842 -0.5251
 4377TIP3    H237327   2.960   7.314  12.259 -1.1302 -0.4945  1.0412
 4378TIP3   OH237328   1.207   5.914  10.813  0.5457  0.9834 -0.0801
 4378TIP3    H137329   1.215   5.821  10.795 -1.2997  0.7243  0.2222
 4378TIP3    H237330   1.297   5.946  10.817  1.1965 -0.6938 -0.5870
 4379TIP3   OH237331   1.408   1.404  13.212 -0.0765  0.0140  0.2728
 4379TIP3    H137332   1.482   1.396  13.153  1.9738  0.4522  2.6326
 4379TIP3    H237333   1.447   1.417  13.299 -2.9124  0.1699  1.6492
 4380TIP3   OH237334   6.576   7.563  13.194  0.0797  0.1766  0.1680
 4380TIP3    H137335   6.570   7.645  13.145 -2.1295 -0.4456 -0.6997
 4380TIP3    H237336   6.670   7.541  13.192  0.4087  1.4997 -1.5516
 4381TIP3   OH237337   4.487   7.248  11.258  0.5734  0.1900 -0.2993
 4381TIP3    H137338   4.457   7.317  11.318  0.9362  0.4991 -0.4691
 4381TIP3    H237339   4.454   7.167  11.296  0.6153  0.4047  0.2033
 4382TIP3   OH237340   7.627   1.974  11.517  0.4106  0.1682  0.0173
 4382TIP3    H137341   7.549   1.923  11.541  1.0700 -0.8532  0.0405
 4382TIP3    H237342   7.601   2.065  11.531 -0.9081 -0.1292 -0.3373
 4383TIP3   OH237343   0.680   5.629  12.433  0.4477 -1.1787 -0.1355
 4383TIP3    H137344   0.675   5.723  12.413 -0.1683 -1.4983 -1.5852
 4383TIP3    H237345   0.599   5.593  12.399  0.8364 -2.3016  0.1000
 4384TIP3   OH237346   6.672   6.137  12.680  0.1259  0.2073  0.0238
 4384TIP3    H137347   6.759   6.100  12.697 -0.1077 -0.0883  0.5817
 4384TIP3    H237348   6.672   6.155  12.586  1.5211  2.1184  0.3368
 4385TIP3   OH237349   2.687   5.117  12.719  0.2517 -0.1123  0.1136
 4385TIP3    H137350   2.607   5.066  12.731  0.3420  0.1831  2.4769
 4385TIP3    H237351   2.670   5.200  12.764  1.4088  0.5284 -0.5525
 4386TIP3   OH237352   1.029   6.023  12.606 -0.3325 -0.3024  0.1367
 4386TIP3    H137353   1.054   6.060  12.521 -2.0884  0.2229 -0.1938
 4386TIP3    H237354   1.071   6.080  12.670  3.0445 -2.0967 -0.2539
 4387TIP3   OH237355   0.544   0.215  13.572  0.2575  0.4501 -0.4432
 4387TIP3    H137356   0.589   0.144  13.616  0.4446  0.8288 -0.0155
 4387TIP3    H237357   0.607   0.287  13.572 -0.8191  1.4700  1.4628
 4388TIP3   OH237358   2.346   7.086  12.645  0.0261  0.1542  0.0684
 4388TIP3    H137359   2.263   7.101  12.599 -0.0087  2.1988  0.6825
 4388TIP3    H237360   2.390   7.171  12.642  1.4832 -0.5328  0.9772
 4389TIP3   OH237361   5.805   5.687  12.892  0.3561 -0.0712  0.0759
 4389TIP3    H137362   5.773   5.771  12.859 -1.4467 -0.8105 -0.1928
 4389TIP3    H237363   5.873   5.662  12.829  0.5316  0.9230 -0.1512
 4390TIP3   OH237364   6.873   2.654  11.467 -1.0338 -0.7197  0.0432
 4390TIP3    H137365   6.959   2.694  11.460 -0.4605 -1.6948  1.1245
 4390TIP3    H237366   6.813   2.717  11.426  0.1502  0.0787 -0.4935
 4391TIP3   OH237367   4.110   7.215  12.774  0.0790 -0.6520 -0.8957
 4391TIP3    H137368   4.065   7.241  12.854  1.5809 -2.0255  0.4852
 4391TIP3    H237369   4.120   7.296  12.724 -0.2563  0.3834  0.6460
 4392TIP3   OH237370   6.386   1.848  13.717 -0.5518 -0.1435 -0.1267
 4392TIP3    H137371   6.390   1.879  13.626 -0.5300  1.3860  0.3713
 4392TIP3    H237372   6.427   1.761  13.714  0.5846  0.3966 -1.3617
 4393TIP3   OH237373   6.645   4.940  10.919  0.1276  0.2711  0.4292
 4393TIP3    H137374   6.719   4.991  10.886  1.0116  0.3808  2.4509
 4393TIP3    H237375   6.599   4.999  10.979 -0.8882 -0.2101  0.1615
 4394TIP3   OH237376   2.223   3.548  12.431  0.3816 -0.1167 -0.2684
 4394TIP3    H137377   2.299   3.543  12.489  1.0684  1.3598 -0.9748
 4394TIP3    H237378   2.200   3.457  12.413  0.7720 -0.5980  1.4900
 4395TIP3   OH237379   5.982   0.873  11.446 -0.3712 -0.0889  0.0327
 4395TIP3    H137380   5.995   0.783  11.417  0.6999 -0.1328  0.6075
 4395TIP3    H237381   6.066   0.899  11.484 -0.4679  1.3632 -0.6641
 4396TIP3   OH237382   6.771   1.148  11.779  0.1835  0.2178  0.0939
 4396TIP3    H137383   6.834   1.151  11.851  1.6799  1.4778 -1.1962
 4396TIP3    H237384   6.813   1.197  11.709 -1.7002 -0.0472 -1.2798
 4397TIP3   OH237385   6.214   1.336  11.211  0.0057 -0.5279  0.5654
 4397TIP3    H137386   6.129   1.330  11.255  0.2475  1.7833  1.5100
 4397TIP3    H237387   6.194   1.373  11.125 -0.1611 -2.4493 -0.2822
 4398TIP3   OH237388   3.139   1.047  12.262 -0.1955 -0.2916  0.2994
 4398TIP3    H137389   3.044   1.037  12.271 -0.1383  0.2421  1.8034
 4398TIP3    H237390   3.175   0.969  12.305  0.0622 -0.8397 -0.8684
 4399TIP3   OH237391   1.188   2.757  12.200 -0.3445 -0.0960  0.0407
 4399TIP3    H137392   1.124   2.694  12.169  0.1763 -0.8337  0.4513
 4399TIP3    H237393   1.268   2.735  12.153  0.9981 -2.4431  3.1614
 4400TIP3   OH237394   1.575   4.299  11.477 -0.0403  0.4602  0.4158
 4400TIP3    H137395   1.567   4.381  11.428 -1.4107 -0.2145 -0.5408
 4400TIP3    H237396   1.597   4.234  11.410 -1.5833 -0.4156  0.7420
 4401TIP3   OH237397   3.356   4.539  13.134  0.1297  0.0025 -0.6833
 4401TIP3    H137398   3.343   4.595  13.211 -0.2647 -0.0501 -0.7133
 4401TIP3    H237399   3.268   4.524  13.099  0.2620 -0.3773 -0.8607
 4402TIP3   OH237400   6.038   6.355  12.900 -0.0774 -0.3249  0.1429
 4402TIP3    H137401   6.122   6.395  12.876  0.2194  0.2090  1.9212
 4402TIP3    H237402   6.015   6.300  12.825  2.0984 -0.8480 -0.1947
 4403TIP3   OH237403   6.721   1.584  12.707 -0.1647 -0.0151  0.2062
 4403TIP3    H137404   6.639   1.627  12.683  0.3340  0.1293 -1.3360
 4403TIP3    H237405   6.760   1.642  12.773  1.5766  3.3406 -3.3788
 4404TIP3   OH237406   4.661   3.108  12.171 -0.2191 -0.1664  0.1557
 4404TIP3    H137407   4.692   3.197  12.187  0.0968  0.3517 -2.6935
 4404TIP3    H237408   4.621   3.080  12.253  0.1656  2.3970  1.2851
 4405TIP3   OH237409   1.269   0.062  11.535 -0.2081  0.1558 -0.3852
 4405TIP3    H137410   1.298   0.015  11.457 -0.0050 -1.6056  0.6982
 4405TIP3    H237411   1.327   0.138  11.541  0.0409  0.0874 -1.7052
 4406TIP3   OH237412   0.001   2.828  13.475  0.0472  0.2113 -0.5971
 4406TIP3    H137413  -0.039   2.742  13.488  2.0607 -0.7972 -0.7481
 4406TIP3    H237414   0.048   2.845  13.557  1.4674  0.1430 -1.3757
 4407TIP3   OH237415   4.575   0.201  11.704  0.1611 -0.0742 -0.3753
 4407TIP3    H137416   4.554   0.206  11.611 -0.1826 -1.4249 -0.3874
 4407TIP3    H237417   4.576   0.292  11.733  1.0819  0.4188 -1.8647
 4408TIP3   OH237418   1.172   6.875  12.348  0.0496 -0.4125  0.1441
 4408TIP3    H137419   1.106   6.934  12.384  0.8319  0.7814 -0.3090
 4408TIP3    H237420   1.123   6.815  12.292 -0.6134  0.7445 -0.5646
 4409TIP3   OH237421   4.528   1.233  12.857 -0.1398 -0.7025  0.1684
 4409TIP3    H137422   4.579   1.247  12.937 -0.7262  1.2083  0.2573
 4409TIP3    H237423   4.437   1.233  12.887 -0.3446 -0.3370 -0.4456
 4410TIP3   OH237424   5.482   4.164  13.415 -0.3705 -0.2109 -0.6828
 4410TIP3    H137425   5.442   4.246  13.443 -1.9537 -0.9143 -0.7731
 4410TIP3    H237426   5.431   4.096  13.459  1.5836 -1.1606  0.2543
 4411TIP3   OH237427   3.504   7.611  13.078  0.4321  0.2889 -0.1730
 4411TIP3    H137428   3.487   7.535  13.023 -1.2426 -0.0261  0.6981
 4411TIP3    H237429   3.433   7.610  13.143 -0.1165  3.0313 -0.6116
 4412TIP3   OH237430   0.211   4.441  11.243 -0.3035 -0.4549 -0.2130
 4412TIP3    H137431   0.273   4.506  11.209 -0.3636 -0.7831 -0.9688
 4412TIP3    H237432   0.174   4.400  11.165  0.2560 -1.9096  0.2463
 4413TIP3   OH237433   2.983   2.894  13.016 -0.1044  0.1930 -0.1787
 4413TIP3    H137434   3.065   2.872  13.060  0.8426  1.8344 -1.0633
 4413TIP3    H237435   2.940   2.810  13.001  1.5251 -0.7072  0.0779
 4414TIP3   OH237436   7.303   3.370  12.780  0.0534  0.3864  0.0242
 4414TIP3    H137437   7.255   3.339  12.856  0.0780  1.3970  0.4611
 4414TIP3    H237438   7.384   3.406  12.816 -0.9977  3.1513 -0.1840
 4415TIP3   OH237439   7.257   2.095  12.885 -0.6896 -0.3316 -0.2168
 4415TIP3    H137440   7.209   2.122  12.807 -2.2068  0.0286  0.7920
 4415TIP3    H237441   7.223   2.008  12.906  0.9758 -1.1879 -0.9184
 4416TIP3   OH237442   5.135   6.993  11.834  0.4599 -0.1978  0.1677
 4416TIP3    H137443   5.096   6.908  11.812  1.2147 -0.4143 -0.3706
 4416TIP3    H237444   5.200   6.973  11.901 -0.4841  0.1966  1.2399
 4417TIP3   OH237445   4.534   3.548  11.816  0.1419 -0.2867 -0.3766
 4417TIP3    H137446   4.567   3.588  11.896  0.8481  0.0249 -0.8156
 4417TIP3    H237447   4.470   3.483  11.846  0.7513 -0.5204  0.4609
 4418TIP3   OH237448   6.476   7.268  11.176 -0.1741 -0.0157  0.0741
 4418TIP3    H137449   6.517   7.251  11.261  0.2891 -0.7544 -0.2826
 4418TIP3    H237450   6.532   7.222  11.113  1.0203  2.6697 -0.9551
 4419TIP3   OH237451   7.628   1.489  10.827  0.0140 -0.1339 -0.4718
 4419TIP3    H137452   7.638   1.435  10.905 -0.6953 -0.1215 -0.3698
 4419TIP3    H237453   7.718   1.513  10.803  0.2112  0.3944  0.7203
 4420TIP3   OH237454   2.095   6.472  13.776 -0.1231 -0.9347 -0.5017
 4420TIP3    H137455   2.090   6.381  13.804  1.3596 -0.4377  1.6063
 4420TIP3    H237456   2.181   6.480  13.736  0.4205 -0.1323  0.7623
 4421TIP3   OH237457   5.177   7.665  11.739  0.1254 -0.1342 -0.5292
 4421TIP3    H137458   5.267   7.634  11.733  0.0816 -0.4722  0.4487
 4421TIP3    H237459   5.184   7.761  11.735  0.6936 -0.0756  1.2717
 4422TIP3   OH237460   6.458   5.840  12.633 -0.0432  0.2440  0.0787
 4422TIP3    H137461   6.384   5.789  12.602  1.6152 -0.1266 -3.8338
 4422TIP3    H237462   6.494   5.789  12.706 -1.8659 -1.0782  0.1120
 4423TIP3   OH237463   6.011   4.560  11.867 -0.0177  0.2144 -0.3055
 4423TIP3    H137464   6.088   4.595  11.822  0.6975 -0.9369  0.0187
 4423TIP3    H237465   5.991   4.625  11.934  1.6892 -0.2641  0.7103
 4424TIP3   OH237466   7.091   6.432  13.342  0.1537 -0.7139 -0.7189
 4424TIP3    H137467   7.167   6.488  13.357 -0.5539  0.2778 -0.7818
 4424TIP3    H237468   7.089   6.419  13.247 -1.6903  2.0896 -1.1478
 4425TIP3   OH237469   0.855   1.770  13.132  0.0119  0.0448  0.3396
 4425TIP3    H137470   0.932   1.782  13.187 -0.1356  0.1389  0.5254
 4425TIP3    H237471   0.794   1.718  13.185  0.2542 -0.7109 -0.0924
 4426TIP3   OH237472   4.754   6.800  12.332 -0.0733  0.1327  0.3966
 4426TIP3    H137473   4.743   6.726  12.272 -0.6254 -0.2759  0.9883
 4426TIP3    H237474   4.796   6.762  12.409 -1.4321  0.1680  1.1939
 4427TIP3   OH237475   6.663   6.846  12.505  0.1449  0.0147 -0.7328
 4427TIP3    H137476   6.685   6.879  12.418  2.2985  1.4875  0.2986
 4427TIP3    H237477   6.599   6.909  12.539 -0.2556 -0.2384 -1.0069
 4428TIP3   OH237478   3.727   2.213  13.178 -0.0072  0.2057  0.0447
 4428TIP3    H137479   3.690   2.183  13.094  2.0154 -0.6644 -0.5852
 4428TIP3    H237480   3.763   2.133  13.218 -0.9188  0.6070  1.7775
 4429TIP3   OH237481   1.534   7.116  10.955 -0.2003  0.4770 -0.0676
 4429TIP3    H137482   1.630   7.112  10.954 -0.1052  1.4946 -2.4538
 4429TIP3    H237483   1.514   7.204  10.987 -0.2519  0.8106 -0.9796
 4430TIP3   OH237484   3.303   3.854  12.947  0.0257 -0.1152  0.2743
 4430TIP3    H137485   3.267   3.916  13.010 -0.3347  0.4416 -0.4593
 4430TIP3    H237486   3.290   3.768  12.986 -0.1064  0.2306  0.9940
 4431TIP3   OH237487   5.934   5.137  13.372  0.2022  0.3490  0.0975
 4431TIP3    H137488   5.997   5.193  13.419 -0.2156  1.8126 -1.0016
 4431TIP3    H237489   5.906   5.190  13.297 -0.5341 -1.2083 -0.7822
 4432TIP3   OH237490   3.521   1.283  12.916  0.1644 -0.2462 -0.2745
 4432TIP3    H137491   3.526   1.215  12.984  1.3160  0.0656 -0.0351
 4432TIP3    H237492   3.602   1.332  12.925 -0.7605  1.3423 -0.2699
 4433TIP3   OH237493   4.194   0.765  11.483  0.3236  0.0267 -0.4100
 4433TIP3    H137494   4.120   0.809  11.525  0.1128 -0.9167  0.2357
 4433TIP3    H237495   4.240   0.835  11.436 -0.5419  0.7569 -0.1979
 4434TIP3   OH237496   0.413   4.467  11.901 -0.3427 -0.2645 -0.6205
 4434TIP3    H137497   0.486   4.514  11.941 -0.6926 -0.1677 -0.0842
 4434TIP3    H237498   0.344   4.532  11.891 -0.6881 -0.5589 -0.2428
 4435TIP3   OH237499   1.681   2.924  13.095  0.7370  0.4145 -0.4559
 4435TIP3    H137500   1.681   2.838  13.136  1.7391  1.0640  0.9931
 4435TIP3    H237501   1.606   2.923  13.036 -0.3145 -0.8428  0.8514
 4436TIP3   OH237502   4.478   2.368  13.352 -0.1271 -0.4860  0.2068
 4436TIP3    H137503   4.452   2.276  13.351 -0.7533 -0.3187 -0.8902
 4436TIP3    H237504   4.399   2.415  13.325  0.3627  0.3285  0.1593
 4437TIP3   OH237505   4.569   4.046  13.499 -0.0995  0.1858 -0.3061
 4437TIP3    H137506   4.622   4.082  13.570 -0.4555  0.7257 -0.3073
 4437TIP3    H237507   4.513   4.119  13.472  0.6473  0.2617 -1.7502
 4438TIP3   OH237508   3.528   1.538  11.673  0.0585 -0.6285 -0.1814
 4438TIP3    H137509   3.476   1.580  11.605  0.2560 -0.0146  0.0414
 4438TIP3    H237510   3.518   1.594  11.750  0.5657 -0.8214  0.0330
 4439TIP3   OH237511   0.074   1.756  12.600  0.3546 -0.1177 -0.4316
 4439TIP3    H137512   0.025   1.776  12.681  2.1735 -0.9990  0.9491
 4439TIP3    H237513   0.036   1.673  12.570 -0.3132  0.1970 -0.4913
 4440TIP3   OH237514   5.254   4.169  12.711  0.3126  0.3982 -0.4085
 4440TIP3    H137515   5.255   4.077  12.735  2.5410  0.6778  0.9047
 4440TIP3    H237516   5.219   4.214  12.787 -0.5385  0.6697 -0.9498
 4441TIP3   OH237517   4.948   6.786  11.167 -0.2525 -0.3647  0.2336
 4441TIP3    H137518   5.005   6.735  11.110  0.3882  0.8371 -0.2485
 4441TIP3    H237519   4.882   6.724  11.198  0.4650 -1.4511 -0.3598
 4442TIP3   OH237520   1.370   7.586  13.259  0.0060  0.2053  0.9851
 4442TIP3    H137521   1.422   7.633  13.323 -0.2141  0.2760  1.1117
 4442TIP3    H237522   1.358   7.648  13.187 -0.2940  0.3465  1.1569
 4443TIP3   OH237523   0.713   3.141  12.657  0.8374 -0.2394  0.1308
 4443TIP3    H137524   0.631   3.171  12.696  0.2655 -2.0959  0.4310
 4443TIP3    H237525   0.777   3.151  12.728  0.1261 -2.0610  1.1048
 4444TIP3   OH237526   3.626   1.009  13.023 -0.3958 -0.1040 -0.0046
 4444TIP3    H137527   3.659   1.000  13.112  0.9840  0.0293 -0.4780
 4444TIP3    H237528   3.626   0.919  12.988  1.4594  0.1076 -0.6570
 4445TIP3   OH237529   1.812   2.609  13.432  0.2514 -0.2994  0.2456
 4445TIP3    H137530   1.845   2.698  13.425  2.4645 -1.0997 -0.1112
 4445TIP3    H237531   1.828   2.584  13.523 -0.8575 -0.1948  0.4922
 4446TIP3   OH237532   6.411   6.959  10.790  0.8399 -0.0876 -0.4974
 4446TIP3    H137533   6.506   6.952  10.786  0.6774 -2.7273 -1.7932
 4446TIP3    H237534   6.379   6.877  10.753 -1.9638  0.6283  0.0871
 4447TIP3   OH237535   6.271   2.764  13.369  0.0891 -0.0516  0.0590
 4447TIP3    H137536   6.238   2.853  13.352 -1.7797 -0.4429  1.4100
 4447TIP3    H237537   6.193   2.709  13.366  1.0881 -1.5090  0.2632
 4448TIP3   OH237538   6.037   7.382  12.744  0.4059  0.1804 -0.0564
 4448TIP3    H137539   5.980   7.418  12.811  0.7895 -0.2437  0.5021
 4448TIP3    H237540   6.019   7.436  12.666 -1.1613 -0.2940 -0.0620
 4449TIP3   OH237541   4.327   1.442  12.423 -0.2755 -0.1786 -0.0420
 4449TIP3    H137542   4.306   1.528  12.459  0.3887 -0.0187 -0.0162
 4449TIP3    H237543   4.391   1.406  12.485 -0.0486 -0.4101 -0.4110
 4450TIP3   OH237544   2.224   4.628  13.206 -0.2586  0.1411  0.6949
 4450TIP3    H137545   2.283   4.609  13.279  0.6670  1.1095  0.2230
 4450TIP3    H237546   2.233   4.553  13.148  0.6674  0.3710  0.5328
 4451TIP3   OH237547   5.741   3.832  11.546  0.2756 -0.0250  0.1599
 4451TIP3    H137548   5.763   3.750  11.502  2.6888  0.3469  0.5675
 4451TIP3    H237549   5.647   3.844  11.528  0.6217 -1.0395 -2.9204
 4452TIP3   OH237550   6.228   0.623  10.985  0.0193 -0.1762 -0.7160
 4452TIP3    H137551   6.194   0.535  10.971 -0.1656 -0.0830 -0.8628
 4452TIP3    H237552   6.208   0.670  10.904  0.9539 -0.2586 -1.0047
 4453TIP3   OH237553   4.756   4.420  12.609  0.0583  0.1938  0.3697
 4453TIP3    H137554   4.757   4.491  12.674  0.4310  0.2018  0.3612
 4453TIP3    H237555   4.665   4.390  12.607  0.1798 -0.2750  1.4172
 4454TIP3   OH237556   4.848   5.751  12.333 -0.2718  0.4024 -0.6824
 4454TIP3    H137557   4.848   5.847  12.343 -1.1293  0.4200 -0.7783
 4454TIP3    H237558   4.881   5.736  12.245  0.3321  0.5821 -0.4934
 4455TIP3   OH237559   0.793   6.426  11.652 -0.0121  0.2218 -0.5747
 4455TIP3    H137560   0.886   6.431  11.674 -0.2053  1.3416  0.0244
 4455TIP3    H237561   0.758   6.513  11.670 -0.9898  0.1006 -1.7233
 4456TIP3   OH237562   4.021   2.432  11.515 -0.0252  0.9430 -0.5975
 4456TIP3    H137563   3.986   2.374  11.583  1.9576  0.0666 -0.2576
 4456TIP3    H237564   4.001   2.387  11.433 -0.9325  1.1725 -0.5142
 4457TIP3   OH237565   6.756   2.357  12.832  0.7229  0.6677  0.6619
 4457TIP3    H137566   6.737   2.267  12.858  2.1227  0.5740  1.4541
 4457TIP3    H237567   6.822   2.349  12.763  1.1425  1.0840  1.0090
 4458TIP3   OH237568   6.265   1.256  12.041  0.2548  0.2077 -0.0331
 4458TIP3    H137569   6.265   1.305  11.958 -0.5582  0.4164  0.0740
 4458TIP3    H237570   6.336   1.193  12.032 -1.1758 -1.2923 -1.8312
 4459TIP3   OH237571   1.770   1.250  11.265 -0.0322 -0.8091 -0.1967
 4459TIP3    H137572   1.709   1.290  11.203  1.6760  0.3390 -1.2154
 4459TIP3    H237573   1.847   1.306  11.262  0.8329 -1.8359  1.5523
 4460TIP3   OH237574   6.745   3.783  12.163 -0.2438 -0.0590 -0.0100
 4460TIP3    H137575   6.826   3.746  12.129 -1.0667 -1.1777 -0.8366
 4460TIP3    H237576   6.687   3.787  12.087 -0.7714  1.2932  0.4390
 4461TIP3   OH237577   4.697   0.382  10.685  0.1308  0.0290  0.0902
 4461TIP3    H137578   4.608   0.367  10.716  0.5237 -1.1779  0.7084
 4461TIP3    H237579   4.734   0.294  10.674  0.7035  0.4592 -1.8118
 4462TIP3   OH237580   6.706   2.303  11.373  0.4939  0.3090 -0.2612
 4462TIP3    H137581   6.724   2.229  11.315  0.8001  1.5245 -1.7727
 4462TIP3    H237582   6.758   2.375  11.338  0.4727  1.1782  1.3799
 4463TIP3   OH237583   3.201   5.616  12.604  0.6409 -0.1149 -0.6079
 4463TIP3    H137584   3.288   5.577  12.611  1.1469  0.6224 -2.4032
 4463TIP3    H237585   3.185   5.623  12.510 -1.0895  0.3752 -0.3048
 4464TIP3   OH237586   6.749   6.289  10.735 -0.0550  0.0128  0.1985
 4464TIP3    H137587   6.833   6.330  10.715  1.7275 -2.7164  1.4664
 4464TIP3    H237588   6.713   6.265  10.650  0.2881  1.4428 -0.3763
 4465TIP3   OH237589   2.453   1.551  12.839  0.1875 -0.2069  0.5042
 4465TIP3    H137590   2.405   1.624  12.878 -1.2280 -0.0775 -1.2957
 4465TIP3    H237591   2.401   1.474  12.861 -1.9796  0.0980 -2.7885
 4466TIP3   OH237592   6.215   1.000  11.558  0.1931  0.1074  0.2611
 4466TIP3    H137593   6.296   0.992  11.507  0.2778  0.1261  0.3903
 4466TIP3    H237594   6.187   1.091  11.544  0.2207  0.1146  0.2527
 4467TIP3   OH237595   0.620   5.453  10.988  1.0648 -0.4248  0.2067
 4467TIP3    H137596   0.544   5.413  11.031  0.8174 -1.3844 -1.0765
 4467TIP3    H237597   0.673   5.379  10.961  1.1441  0.1387 -1.2561
 4468TIP3   OH237598   6.307   2.543  11.109  0.5222  0.5541 -0.1579
 4468TIP3    H137599   6.291   2.452  11.083  0.3642  0.0699  1.5046
 4468TIP3    H237600   6.220   2.575  11.135  0.6288  1.0892 -0.4560
 4469TIP3   OH237601   5.956   1.331  13.169 -0.2526  0.1946  0.2943
 4469TIP3    H137602   5.909   1.248  13.154 -2.8920  1.8009 -1.0263
 4469TIP3    H237603   6.000   1.349  13.086 -0.4631  0.5520  0.2564
 4470TIP3   OH237604   1.910   4.312  12.174 -0.0011 -0.1051  0.3903
 4470TIP3    H137605   1.906   4.396  12.127  2.7674  2.3084  3.8753
 4470TIP3    H237606   1.824   4.303  12.215 -0.2162  1.3012  0.2946
 4471TIP3   OH237607   6.298   3.541  11.825  0.6615 -0.1148 -0.2160
 4471TIP3    H137608   6.234   3.479  11.790  0.2638 -0.1284  0.5107
 4471TIP3    H237609   6.366   3.486  11.864  0.2877 -0.1043  0.4659
 4472TIP3   OH237610   0.892   7.545  11.947 -0.1357 -0.3483 -0.0237
 4472TIP3    H137611   0.821   7.596  11.986  0.5029  1.1128 -0.6686
 4472TIP3    H237612   0.907   7.586  11.862  1.5529 -0.5338  0.1452
 4473TIP3   OH237613   6.304   3.355  13.346  0.2281 -0.0092 -0.0674
 4473TIP3    H137614   6.286   3.308  13.265  0.3584  1.1115 -0.7772
 4473TIP3    H237615   6.399   3.370  13.345  0.1770  0.3505  0.0874
 4474TIP3   OH237616   3.324   3.329  13.399  0.2109 -0.0384  0.6175
 4474TIP3    H137617   3.240   3.296  13.366  0.6558 -1.3209  0.7338
 4474TIP3    H237618   3.332   3.292  13.487  0.1496  1.4343  1.2865
 4475TIP3   OH237619   1.218   3.679  13.502 -0.2884 -0.5702  0.5075
 4475TIP3    H137620   1.229   3.722  13.587  0.4910 -1.9956  1.1631
 4475TIP3    H237621   1.167   3.600  13.522  1.1845 -1.7181 -0.0536
 4476TIP3   OH237622   2.987   0.673  13.922 -0.3593  0.4045  0.2737
 4476TIP3    H137623   3.022   0.626  13.847  0.3586  0.2416  0.6983
 4476TIP3    H237624   3.006   0.765  13.904 -2.4811  0.6632 -0.9376
 4477TIP3   OH237625   3.702   6.645  13.411 -0.3752  0.5604 -0.1032
 4477TIP3    H137626   3.729   6.557  13.384  0.3442  0.0397  2.1189
 4477TIP3    H237627   3.775   6.677  13.464 -1.3957  1.7799  0.6095
 4478TIP3   OH237628   1.999   4.250  11.109  0.3024  0.1997 -0.1642
 4478TIP3    H137629   2.077   4.253  11.053  0.9036  0.0232  0.6420
 4478TIP3    H237630   2.026   4.293  11.190 -0.4893  0.2631  0.0702
 4479TIP3   OH237631   6.699   0.783  12.665  0.0340  0.0359  0.2622
 4479TIP3    H137632   6.721   0.855  12.724  1.1033  0.5796 -0.7639
 4479TIP3    H237633   6.659   0.826  12.589  1.2364 -0.3583 -0.6275
 4480TIP3   OH237634   5.972   6.657  11.333 -0.2633  0.3903 -0.5954
 4480TIP3    H137635   5.908   6.723  11.309 -1.4131 -0.2784  0.5518
 4480TIP3    H237636   6.007   6.626  11.249 -1.1003  1.0818 -1.2096
 4481TIP3   OH237637   3.026   5.318  11.924 -0.0229  0.2623 -0.1852
 4481TIP3    H137638   3.047   5.225  11.917 -0.8204 -0.0830  1.5203
 4481TIP3    H237639   3.027   5.349  11.833  0.5722 -1.3276 -0.7654
 4482TIP3   OH237640   0.434   3.612  11.935  0.4435 -0.1672  0.1728
 4482TIP3    H137641   0.463   3.702  11.951  0.5201 -0.3139  0.8972
 4482TIP3    H237642   0.498   3.558  11.983 -0.2212 -0.5565  0.6327
 4483TIP3   OH237643   0.397   3.402  13.766 -0.4411 -0.1012  0.1272
 4483TIP3    H137644   0.329   3.456  13.725  0.0766 -1.1243 -2.1852
 4483TIP3    H237645   0.350   3.327  13.801 -0.6833 -0.0480 -0.0838
 4484TIP3   OH237646   4.458   3.004  13.027  0.8725  0.1958 -0.3989
 4484TIP3    H137647   4.392   3.018  13.095  0.3306 -0.2575 -0.8189
 4484TIP3    H237648   4.441   3.072  12.962  0.6559 -0.0656 -0.6211
 4485TIP3   OH237649   6.530   4.811  12.781  0.5499  0.0730  0.4350
 4485TIP3    H137650   6.508   4.890  12.830 -1.2603  1.4262 -2.3251
 4485TIP3    H237651   6.472   4.744  12.817 -1.9265  1.4365 -0.8158
 4486TIP3   OH237652   4.730   0.593  11.410  0.2455 -0.1550 -0.3549
 4486TIP3    H137653   4.804   0.637  11.452  0.7685 -1.1384 -0.2180
 4486TIP3    H237654   4.703   0.652  11.340  1.6412 -0.1206 -0.8886
 4487TIP3   OH237655   0.963   5.154  11.572  0.2226  0.0286  0.2064
 4487TIP3    H137656   1.015   5.194  11.502 -0.1435 -1.0848 -0.7335
 4487TIP3    H237657   0.875   5.148  11.535 -0.4355  1.2076  1.5098
 4488TIP3   OH237658   3.303   1.425  12.802  0.3436  0.3042 -0.2926
 4488TIP3    H137659   3.281   1.417  12.709 -0.8358  0.3073 -0.0268
 4488TIP3    H237660   3.356   1.347  12.821 -1.3413 -0.9498 -0.4476
 4489TIP3   OH237661   4.297   6.616  11.961  0.2844  0.2773  0.6738
 4489TIP3    H137662   4.246   6.686  12.001 -0.8502 -0.4575  0.5470
 4489TIP3    H237663   4.344   6.576  12.034  1.2110  1.3626  0.7008
 4490TIP3   OH237664   2.651   0.342  13.766  0.1114  1.1150 -0.2578
 4490TIP3    H137665   2.724   0.365  13.822  0.0278  0.6770  0.0357
 4490TIP3    H237666   2.582   0.405  13.788 -1.5507 -1.5986  3.3647
 4491TIP3   OH237667   6.367   5.291  12.782  0.0117  0.1479  0.5667
 4491TIP3    H137668   6.402   5.374  12.812 -2.5911  1.9229 -0.9390
 4491TIP3    H237669   6.420   5.268  12.705  0.4099  0.6572  0.6870
 4492TIP3   OH237670   0.023   6.692  12.178  0.1529 -0.2193  0.1196
 4492TIP3    H137671   0.058   6.753  12.242  0.4064 -1.4596  1.1986
 4492TIP3    H237672  -0.069   6.719  12.167  0.6297  1.2459 -0.5611
 4493TIP3   OH237673   5.371   4.698  11.819 -0.0705 -0.2036  0.2274
 4493TIP3    H137674   5.294   4.652  11.851  0.9352 -1.3561  1.0461
 4493TIP3    H237675   5.426   4.630  11.781 -0.5273  0.8925 -2.7280
 4494TIP3   OH237676   6.693   0.058  13.414  0.5481 -0.1594 -0.0241
 4494TIP3    H137677   6.759   0.038  13.480 -1.1412 -0.1079  1.7886
 4494TIP3    H237678   6.684  -0.023  13.364 -0.5003 -1.3997  2.0356
 4495TIP3   OH237679   2.601   6.216  11.708 -0.3736  0.0640 -0.1199
 4495TIP3    H137680   2.678   6.248  11.661  0.3214  0.7099  1.3792
 4495TIP3    H237681   2.552   6.295  11.731  0.9564  0.1459  2.9421
 4496TIP3   OH237682   1.014   3.329  11.019  0.7447  0.0223  0.3109
 4496TIP3    H137683   1.065   3.252  11.046  0.2888 -0.1036  0.8306
 4496TIP3    H237684   0.944   3.336  11.084  0.0662  0.1706 -0.4224
 4497TIP3   OH237685   5.025   3.140  11.800 -0.1905  0.0337  0.3334
 4497TIP3    H137686   5.101   3.085  11.779 -0.1361 -0.2537  1.2320
 4497TIP3    H237687   4.964   3.124  11.728  0.7332  0.5444 -0.5916
 4498TIP3   OH237688   2.955   6.991  13.558  0.0192  0.1673  0.3511
 4498TIP3    H137689   2.886   7.051  13.528  0.4604  0.9830  0.9238
 4498TIP3    H237690   2.968   7.014  13.650  1.7007  0.6883  0.0128
 4499TIP3   OH237691   1.587   4.212  11.799  0.2149 -0.5217 -0.4294
 4499TIP3    H137692   1.582   4.125  11.838 -0.1531 -0.2101  0.2363
 4499TIP3    H237693   1.524   4.210  11.727 -0.4707 -0.5377  0.1511
 4500TIP3   OH237694   7.167   4.584  11.039  0.5151 -0.4005 -0.4394
 4500TIP3    H137695   7.185   4.628  10.956  0.9530 -2.9023 -1.7593
 4500TIP3    H237696   7.085   4.536  11.023  0.8889 -1.3304  0.3775
 4501TIP3   OH237697   0.763   5.444  12.140  0.4342 -0.6232  0.1875
 4501TIP3    H137698   0.835   5.397  12.096  0.2035 -0.0018 -0.8895
 4501TIP3    H237699   0.785   5.536  12.128 -0.3460 -0.4350  0.1984
 4502TIP3   OH237700   2.499   7.220  12.941  0.4722  0.0431 -0.0203
 4502TIP3    H137701   2.555   7.194  13.014  0.6845 -1.5160 -0.6987
 4502TIP3    H237702   2.422   7.163  12.948  0.3248  0.1410 -0.7838
 4503TIP3   OH237703   6.038   3.693  11.731 -0.0189  0.0513 -0.4691
 4503TIP3    H137704   6.049   3.626  11.664  0.9070 -0.4780  0.1980
 4503TIP3    H237705   6.098   3.668  11.801 -0.9973  0.5644  0.5930
 4504TIP3   OH237706   2.293   5.653  11.800 -0.7598 -0.1735  0.8290
 4504TIP3    H137707   2.320   5.729  11.750 -0.0470 -0.8437  0.1671
 4504TIP3    H237708   2.232   5.607  11.743  0.3142 -1.1203  0.3985
 4505TIP3   OH237709   4.234   6.861  12.771 -0.2573 -0.2698 -0.3302
 4505TIP3    H137710   4.203   6.820  12.851  0.2342  1.9910  1.1019
 4505TIP3    H237711   4.211   6.953  12.780  1.3767  0.3709 -1.9856
 4506TIP3   OH237712   6.839   2.108  12.933 -0.3859  0.1316  0.0457
 4506TIP3    H137713   6.908   2.164  12.969 -0.7729  0.9317 -0.4325
 4506TIP3    H237714   6.790   2.078  13.010 -0.3053  0.6249  0.2918
 4507TIP3   OH237715   6.579   3.246  13.577  0.1586 -0.2142 -0.7309
 4507TIP3    H137716   6.512   3.182  13.601  0.1646 -0.1755 -0.6076
 4507TIP3    H237717   6.557   3.273  13.488 -0.8617  0.8999 -0.1702
 4508TIP3   OH237718   7.419   0.938  10.826  0.5637  0.2472 -0.3672
 4508TIP3    H137719   7.327   0.965  10.828  0.1930 -0.7843 -1.8188
 4508TIP3    H237720   7.418   0.845  10.847  1.3514  0.3414  0.1466
 4509TIP3   OH237721   5.331   5.006  12.249  0.4989  0.0060 -0.0237
 4509TIP3    H137722   5.332   5.079  12.312 -0.6993 -2.0078  2.5678
 4509TIP3    H237723   5.241   5.005  12.216  0.9344  0.6151 -1.2517
 4510TIP3   OH237724   1.170   5.273  12.031 -0.6617 -0.1672  0.3797
 4510TIP3    H137725   1.229   5.286  12.105 -0.7146  0.1444  0.3660
 4510TIP3    H237726   1.198   5.336  11.965 -1.3256  0.3340  0.5688
 4511TIP3   OH237727   6.790   6.432  11.225 -0.1433  0.3322  0.2998
 4511TIP3    H137728   6.736   6.399  11.154 -1.5860  1.1360  0.9914
 4511TIP3    H237729   6.736   6.424  11.303  0.3712  2.0062  0.8724
 4512TIP3   OH237730   4.405   6.686  13.255 -0.2493  0.1346  0.2571
 4512TIP3    H137731   4.490   6.730  13.241  0.4608 -0.6999  1.6683
 4512TIP3    H237732   4.362   6.741  13.321 -1.2131  1.0325 -1.0716
 4513TIP3   OH237733   2.396   5.451  12.736  0.4025 -0.4128  0.2877
 4513TIP3    H137734   2.481   5.441  12.779  1.6491  0.2221 -1.8948
 4513TIP3    H237735   2.413   5.436  12.643 -1.9369 -0.5329 -0.2027
 4514TIP3   OH237736   1.215   3.491  11.821  0.4097  0.3336  0.0328
 4514TIP3    H137737   1.203   3.449  11.906  0.2145  0.2759 -0.0230
 4514TIP3    H237738   1.254   3.423  11.766  1.2422  0.5941  0.2832
 4515TIP3   OH237739   7.636   7.440  13.197  0.7057  0.1302 -0.1072
 4515TIP3    H137740   7.612   7.482  13.114 -0.0053  2.2829  1.1182
 4515TIP3    H237741   7.663   7.512  13.254  0.4314 -1.2003  1.7932
 4516TIP3   OH237742   4.381   6.794  12.195 -0.3341  0.5193 -0.1817
 4516TIP3    H137743   4.287   6.803  12.210 -0.6957  0.3166 -2.0074
 4516TIP3    H237744   4.394   6.826  12.105  1.2547  0.0567 -0.1598
 4517TIP3   OH237745   4.784   4.362  13.039  0.8128 -0.5131  0.0808
 4517TIP3    H137746   4.705   4.328  13.081  0.2816  0.3253 -0.2177
 4517TIP3    H237747   4.802   4.301  12.968 -0.1000 -0.2112 -0.4251
 4518TIP3   OH237748   3.890   2.664  11.441  0.2260  0.0837  0.4409
 4518TIP3    H137749   3.922   2.574  11.442 -0.9856 -0.3633  0.0373
 4518TIP3    H237750   3.925   2.700  11.359 -0.7796 -0.5875 -0.3001
 4519TIP3   OH237751   4.077   4.826  13.463 -0.0412  0.6088  0.0629
 4519TIP3    H137752   4.132   4.896  13.500  0.5287  1.0382 -1.5235
 4519TIP3    H237753   4.117   4.806  13.379 -0.4978 -1.3045  0.2581
 4520TIP3   OH237754   1.154   0.306  12.789 -0.0457 -0.3548 -0.1287
 4520TIP3    H137755   1.165   0.261  12.872  0.8492  0.1145  0.0142
 4520TIP3    H237756   1.164   0.399  12.810 -0.3136 -0.1952 -0.6807
 4521TIP3   OH237757   5.119   5.563  12.330 -0.1357 -0.4188  0.7679
 4521TIP3    H137758   5.193   5.560  12.270 -0.5539 -1.8865  0.2856
 4521TIP3    H237759   5.087   5.653  12.325  1.2481  0.0807  0.5583
 4522TIP3   OH237760   6.817   3.566  12.584 -0.3365  0.4144 -0.5357
 4522TIP3    H137761   6.786   3.656  12.576 -0.6757  0.3360 -0.1651
 4522TIP3    H237762   6.737   3.513  12.585 -0.2456  0.2526  0.9952
 4523TIP3   OH237763   5.326   0.661  13.538  0.3042 -0.5492 -0.3059
 4523TIP3    H137764   5.347   0.599  13.468 -0.4453 -1.3227  0.1429
 4523TIP3    H237765   5.231   0.660  13.544  0.3836 -0.9784  1.1551
 4524TIP3   OH237766   4.811   4.321  11.926  0.2631  0.2498 -0.0213
 4524TIP3    H137767   4.820   4.416  11.929 -0.7463  0.4857 -2.4204
 4524TIP3    H237768   4.856   4.295  11.846 -3.1494 -0.7076 -1.8224
 4525TIP3   OH237769   3.598   4.075  12.130 -0.3161 -0.1245 -0.1984
 4525TIP3    H137770   3.517   4.119  12.105 -0.1942  0.0209 -0.3351
 4525TIP3    H237771   3.658   4.090  12.057  0.3659  1.1251  0.5820
 4526TIP3   OH237772   3.492   5.728  12.448 -0.6672  0.4276  0.1480
 4526TIP3    H137773   3.507   5.637  12.471 -1.9829  0.6698  2.2763
 4526TIP3    H237774   3.435   5.761  12.517  0.5401  3.1369 -0.0239
 4527TIP3   OH237775   2.421   3.373  12.347 -0.4388  0.3370 -0.2018
 4527TIP3    H137776   2.466   3.415  12.274  2.1556  0.0156  1.0906
 4527TIP3    H237777   2.404   3.284  12.318  0.4129  0.2627 -0.4940
 4528TIP3   OH237778   7.334   7.424  12.991  0.1354  0.3633 -0.1979
 4528TIP3    H137779   7.423   7.449  12.968 -0.1639  0.4003 -1.3735
 4528TIP3    H237780   7.317   7.469  13.073  0.6058  1.7191 -0.8130
 4529TIP3   OH237781   2.626   3.057  12.029  0.2695  0.5914 -0.3990
 4529TIP3    H137782   2.657   3.022  12.113 -1.3213  0.7526  0.3072
 4529TIP3    H237783   2.532   3.040  12.030  0.5481 -1.9135 -3.4049
 4530TIP3   OH237784   6.236   6.634  11.786  0.3254 -0.2268 -0.1252
 4530TIP3    H137785   6.233   6.632  11.690  3.6707  0.4959 -0.3626
 4530TIP3    H237786   6.305   6.573  11.810 -0.7732 -0.7584  1.9098
 4531TIP3   OH237787   3.185   5.064  12.651 -0.7371 -0.3287  0.0427
 4531TIP3    H137788   3.171   5.139  12.709 -1.1696 -0.6917  0.4175
 4531TIP3    H237789   3.108   5.009  12.664 -0.1476 -1.1459  0.2482
 4532TIP3   OH237790   2.093   5.548  12.418  0.1794 -0.2837 -0.2126
 4532TIP3    H137791   2.146   5.509  12.349 -0.7275 -0.9502 -0.5300
 4532TIP3    H237792   2.155   5.562  12.490  0.6721 -1.5957 -0.3689
 4533TIP3   OH237793   7.204   4.471  12.805  0.1126  0.1946  0.5843
 4533TIP3    H137794   7.177   4.417  12.731  0.5907  3.4340 -2.1716
 4533TIP3    H237795   7.296   4.446  12.821  0.0395 -0.4496  0.0338
 4534TIP3   OH237796   6.277   5.663  11.033 -0.3975  0.2476  0.0589
 4534TIP3    H137797   6.225   5.712  11.096  2.1597 -1.0276  3.4798
 4534TIP3    H237798   6.362   5.707  11.032  0.0930 -0.6561 -1.4011
 4535TIP3   OH237799   6.278   0.865  10.635  0.2497 -0.3404 -0.2222
 4535TIP3    H137800   6.356   0.877  10.689  0.0740  0.0587 -0.0541
 4535TIP3    H237801   6.301   0.902  10.550 -0.0568  0.5958  0.0922
 4536TIP3   OH237802   2.341   0.090  13.834  0.0245  0.1049 -0.2736
 4536TIP3    H137803   2.288   0.145  13.777 -1.5268 -1.9890 -1.0037
 4536TIP3    H237804   2.318   0.000  13.809  3.0375 -0.9444  0.2329
 4537TIP3   OH237805   0.369   4.055  12.462  1.0826 -0.5714  0.2063
 4537TIP3    H137806   0.411   4.037  12.547  0.3731 -1.2719  0.4242
 4537TIP3    H237807   0.285   4.010  12.467  0.0600  1.1978 -0.0278
 4538TIP3   OH237808   2.354   0.677  13.426  0.1503 -0.2679  0.3591
 4538TIP3    H137809   2.365   0.765  13.462 -1.2405 -0.2234  0.7091
 4538TIP3    H237810   2.442   0.639  13.430  0.8327  1.1840 -0.0501
 4539TIP3   OH237811   1.195   2.122  11.728  0.6909  0.5851  0.4212
 4539TIP3    H137812   1.142   2.061  11.779  0.7141 -0.4849 -0.7841
 4539TIP3    H237813   1.230   2.184  11.793 -1.2640  0.7798  1.3674
 4540TIP3   OH237814   2.236   5.311  12.041  0.7222  1.0517 -0.0886
 4540TIP3    H137815   2.264   5.352  12.123  2.1013 -0.3562  0.2017
 4540TIP3    H237816   2.231   5.218  12.061 -1.1293  0.9035 -1.0436
 4541TIP3   OH237817   4.600   0.776  11.220 -0.1264  0.5548 -0.5238
 4541TIP3    H137818   4.613   0.850  11.280  0.7598  0.7592 -0.9604
 4541TIP3    H237819   4.563   0.815  11.141 -0.9868  0.3271 -0.2477
 4542TIP3   OH237820   6.345   5.178  10.946  0.0229 -0.3504  0.3122
 4542TIP3    H137821   6.338   5.087  10.915 -1.9277  0.2454 -1.1264
 4542TIP3    H237822   6.430   5.180  10.990  0.4205 -2.7099 -0.1627
 4543TIP3   OH237823   1.463   4.786  12.547  0.4637  0.0816  0.1245
 4543TIP3    H137824   1.407   4.750  12.615  0.3405 -0.3837 -0.2172
 4543TIP3    H237825   1.538   4.823  12.594  1.4639 -2.1277  0.4202
 4544TIP3   OH237826   5.224   4.426  10.701 -0.6914  0.5855 -0.5458
 4544TIP3    H137827   5.309   4.399  10.666 -1.0015 -0.9299 -0.1857
 4544TIP3    H237828   5.222   4.521  10.688  1.2864  0.7387 -0.0393
 4545TIP3   OH237829   0.841   4.390  11.858 -0.1314  0.5162  0.1312
 4545TIP3    H137830   0.910   4.347  11.909  0.8397 -0.6185 -2.0026
 4545TIP3    H237831   0.843   4.346  11.773 -3.9909 -0.0456  0.1628
 4546TIP3   OH237832   0.194   2.535  12.409 -0.1904  0.4819 -0.2536
 4546TIP3    H137833   0.255   2.603  12.436  0.3556 -0.2278  0.3708
 4546TIP3    H237834   0.189   2.542  12.314  0.6273  0.7490 -0.2792
 4547TIP3   OH237835   0.803   2.354  12.944  0.3479 -0.0559  0.3706
 4547TIP3    H137836   0.728   2.353  13.002 -1.1814 -0.6463 -1.5059
 4547TIP3    H237837   0.788   2.429  12.887  2.0200  0.7643  0.9491
 4548TIP3   OH237838   6.944   6.812  13.005  0.6661  0.7158 -0.3170
 4548TIP3    H137839   6.849   6.809  12.992  0.4480  1.9711  0.8529
 4548TIP3    H237840   6.980   6.801  12.917 -0.4464 -2.4203 -0.5085
 4549TIP3   OH237841   0.232   7.109  11.927  0.4985 -0.0797 -0.3109
 4549TIP3    H137842   0.142   7.093  11.899 -0.2178 -1.0582  2.2484
 4549TIP3    H237843   0.286   7.065  11.861 -0.9173 -0.1986 -1.4306
 4550TIP3   OH237844   7.518   2.327  13.238 -0.3761  0.6091 -0.2145
 4550TIP3    H137845   7.482   2.414  13.253 -1.1164  0.1764  0.6466
 4550TIP3    H237846   7.442   2.269  13.237  0.2520 -0.4305  2.3639
 4551TIP3   OH237847   6.412   5.202  12.195  0.1856  0.1566 -0.4169
 4551TIP3    H137848   6.322   5.210  12.225  1.0682  0.6216  2.4110
 4551TIP3    H237849   6.454   5.283  12.223  1.7191 -0.4708 -0.7933
 4552TIP3   OH237850   2.858   0.892  13.724  0.0867 -0.1877 -0.0414
 4552TIP3    H137851   2.787   0.829  13.727  0.2986 -0.5073 -1.1502
 4552TIP3    H237852   2.835   0.950  13.651 -0.5467  1.5824  1.4759
 4553TIP3   OH237853   6.463   6.039  12.928 -0.3857  0.2556 -0.4220
 4553TIP3    H137854   6.526   6.037  12.856 -0.5985  0.3097 -0.6091
 4553TIP3    H237855   6.513   6.072  13.003 -0.4641  1.3285 -0.8306
 4554TIP3   OH237856   2.214   7.275  11.479 -0.0959 -0.0322  0.0618
 4554TIP3    H137857   2.301   7.292  11.516  0.5488 -1.8966 -0.4477
 4554TIP3    H237858   2.220   7.306  11.389  0.1838 -0.4839 -0.0815
 4555TIP3   OH237859   3.764   1.521  11.853 -0.2276  0.3324 -0.4505
 4555TIP3    H137860   3.708   1.532  11.775  0.0168 -1.1667 -0.8752
 4555TIP3    H237861   3.760   1.427  11.871 -0.4698  0.6921  1.5162
 4556TIP3   OH237862   2.019   5.721  12.810  0.0912 -0.3172 -0.6327
 4556TIP3    H137863   2.054   5.632  12.809  0.1324 -0.3318  0.8400
 4556TIP3    H237864   1.927   5.710  12.833  0.3718  0.0934  0.7386
 4557TIP3   OH237865   2.629   0.453  12.971 -0.1070  0.3424 -0.3059
 4557TIP3    H137866   2.554   0.444  13.031 -0.1501 -1.5267 -0.5879
 4557TIP3    H237867   2.705   0.439  13.027  0.1303  2.7837  0.0893
 4558TIP3   OH237868   1.446   6.613  12.708  0.4211 -0.2727  0.4569
 4558TIP3    H137869   1.403   6.594  12.625  1.6948  1.5636 -0.6950
 4558TIP3    H237870   1.537   6.629  12.685  0.6243  1.2377  2.0461
 4559TIP3   OH237871   4.902   1.940  13.414  0.4842  0.4314  0.4336
 4559TIP3    H137872   4.976   1.887  13.442  1.1445  0.7474 -0.6206
 4559TIP3    H237873   4.925   2.029  13.440  0.6908  0.5910 -0.2492
 4560TIP3   OH237874   4.790   7.059  11.142  0.2044 -0.1409 -0.3100
 4560TIP3    H137875   4.764   7.051  11.233  0.3906  1.5585 -0.0800
 4560TIP3    H237876   4.794   6.968  11.110 -1.1089 -0.6973  0.9969
 4561TIP3   OH237877   1.857   6.422  13.455 -0.0497  0.2529  0.0180
 4561TIP3    H137878   1.831   6.498  13.402  0.0005 -0.1599 -0.6097
 4561TIP3    H237879   1.830   6.347  13.403  0.4632 -0.1677  0.3530
 4562TIP3   OH237880   2.137   4.353  13.634  0.0655  0.3848  0.1651
 4562TIP3    H137881   2.220   4.307  13.650 -0.3254  0.3931  2.5280
 4562TIP3    H237882   2.071   4.285  13.636 -0.2405  0.6974  0.9159
 4563TIP3   OH237883   5.141   6.339  11.988  0.2927  0.1756 -0.2205
 4563TIP3    H137884   5.107   6.304  12.071 -0.0072  0.3619 -0.2621
 4563TIP3    H237885   5.223   6.292  11.974  0.7086  0.6494  0.5425
 4564TIP3   OH237886   0.753   2.957  13.568 -0.3182  0.5369 -0.1066
 4564TIP3    H137887   0.832   3.005  13.542  1.7831  0.1856  4.5815
 4564TIP3    H237888   0.684   3.023  13.568  1.0135  1.9981 -0.1196
 4565TIP3   OH237889   1.377   3.850  13.313  0.3470  0.5430 -0.4627
 4565TIP3    H137890   1.303   3.823  13.367  3.0467  0.1969  3.4240
 4565TIP3    H237891   1.419   3.769  13.286  0.3114  0.7580 -1.1937
 4566TIP3   OH237892   4.197   2.800  11.656  0.2506 -0.3972  0.4086
 4566TIP3    H137893   4.208   2.715  11.613 -1.2392 -0.7687  0.6917
 4566TIP3    H237894   4.224   2.785  11.746 -0.0491 -0.5940  0.4683
 4567TIP3   OH237895   0.261   0.062  13.758 -0.3527  0.1067 -0.1012
 4567TIP3    H137896   0.340   0.044  13.810 -0.5475  0.6555  0.3943
 4567TIP3    H237897   0.205  -0.015  13.772 -0.2850  0.1270  0.2800
 4568TIP3   OH237898   4.509   1.710  11.706 -0.1421  0.2211  0.3927
 4568TIP3    H137899   4.500   1.682  11.615  1.8064 -0.0250  0.2464
 4568TIP3    H237900   4.593   1.755  11.709 -0.2234  0.3100  2.0505
 4569TIP3   OH237901   2.778   5.760  11.596 -0.4372  0.3404 -0.1182
 4569TIP3    H137902   2.795   5.847  11.559  0.5663 -0.5393 -1.9005
 4569TIP3    H237903   2.779   5.702  11.520 -1.9908 -1.1243  0.9254
 4570TIP3   OH237904   2.331   2.352  11.648 -0.6919 -0.0935 -0.2489
 4570TIP3    H137905   2.377   2.425  11.608 -1.0281  0.9881  1.2424
 4570TIP3    H237906   2.239   2.367  11.627 -0.8938  0.6007  1.0530
 4571TIP3   OH237907   0.058   7.524  11.483  0.0342  0.4726  0.6711
 4571TIP3    H137908   0.027   7.577  11.410 -1.4874 -0.1524  0.8234
 4571TIP3    H237909  -0.003   7.543  11.554 -0.3827 -1.2217  0.8187
 4572TIP3   OH237910   1.017   3.020  13.464  0.1090 -0.5351 -0.1393
 4572TIP3    H137911   1.065   3.013  13.382  0.2478 -0.7615 -0.0419
 4572TIP3    H237912   1.053   2.950  13.519 -0.8161 -1.1519 -0.3098
 4573TIP3   OH237913   1.400   6.899  10.858 -0.5124  0.1126 -0.2145
 4573TIP3    H137914   1.428   6.987  10.883  2.1034  0.1795 -2.8114
 4573TIP3    H237915   1.308   6.909  10.832  0.3161  2.7201 -2.6611
 4574TIP3   OH237916   2.408   6.514  12.769  0.3411 -1.0628  0.3020
 4574TIP3    H137917   2.387   6.465  12.849  1.0065  0.6190  1.5616
 4574TIP3    H237918   2.334   6.574  12.759  0.7528 -0.5590  0.2561
 4575TIP3   OH237919   7.097   3.000  13.375 -0.1016  0.1626 -0.6646
 4575TIP3    H137920   7.021   3.052  13.350 -0.0042  0.4125 -0.4487
 4575TIP3    H237921   7.102   2.931  13.309 -0.8764 -0.2266 -0.3330
 4576TIP3   OH237922   0.654   3.421  12.974 -0.6349  0.3729  0.2549
 4576TIP3    H137923   0.720   3.377  13.028 -0.3332  0.3707 -0.1090
 4576TIP3    H237924   0.585   3.356  12.962 -0.7332  0.3910  0.6807
 4577TIP3   OH237925   3.293   3.588  13.029  0.0485 -0.2949 -0.3000
 4577TIP3    H137926   3.361   3.525  13.004  1.4992  0.8441  0.6178
 4577TIP3    H237927   3.318   3.616  13.117 -2.9325 -1.5419  1.0759
 4578TIP3   OH237928   3.206   0.061  11.533  0.1689 -0.2312 -0.5581
 4578TIP3    H137929   3.213   0.102  11.619  1.7539 -0.7206 -0.4251
 4578TIP3    H237930   3.284   0.091  11.486  0.6762 -2.0106 -0.9239
 4579TIP3   OH237931   5.326   0.341  12.042  0.2634 -0.6546  0.1111
 4579TIP3    H137932   5.318   0.321  11.948 -2.9215 -0.8937  0.3382
 4579TIP3    H237933   5.402   0.399  12.047  0.0402  0.0719 -2.7600
 4580TIP3   OH237934   5.249   6.426  13.206  0.6649  0.1228 -0.3461
 4580TIP3    H137935   5.241   6.482  13.283 -2.5768 -0.2488 -0.2563
 4580TIP3    H237936   5.291   6.481  13.140 -3.7683  3.5196 -0.8096
 4581TIP3   OH237937   6.768   1.904  13.996 -0.1044 -0.3091 -0.2490
 4581TIP3    H137938   6.703   1.877  14.062 -0.2773 -1.4891 -0.8825
 4581TIP3    H237939   6.718   1.954  13.932  0.2698  1.8961  1.0858
 4582TIP3   OH237940   5.799   2.470  12.269 -0.2106 -0.0119  0.1005
 4582TIP3    H137941   5.880   2.512  12.298 -0.4597  1.0450 -0.6563
 4582TIP3    H237942   5.794   2.389  12.320  1.7193 -0.5038 -0.4024
 4583TIP3   OH237943   6.721   4.978  12.540  0.0992 -0.4176 -0.1855
 4583TIP3    H137944   6.654   4.980  12.471  1.2470 -1.9975 -1.4337
 4583TIP3    H237945   6.795   4.933  12.499  0.6206 -1.9695  2.2923
 4584TIP3   OH237946   4.754   0.952  12.201  0.3731  0.3772 -0.1711
 4584TIP3    H137947   4.750   0.917  12.111  0.3174 -1.5379  0.5287
 4584TIP3    H237948   4.847   0.966  12.217  0.7210 -2.0775  0.4140
 4585TIP3   OH237949   6.615   4.805  12.111  0.6882  0.3850 -0.2925
 4585TIP3    H137950   6.671   4.756  12.170 -0.0372 -0.4311 -0.2547
 4585TIP3    H237951   6.669   4.879  12.082  1.7661 -0.3658 -0.2566
 4586TIP3   OH237952   0.841   1.806  11.863 -0.0288  0.3666  0.3158
 4586TIP3    H137953   0.848   1.711  11.853 -2.3319  0.2053 -0.0987
 4586TIP3    H237954   0.856   1.821  11.957  1.2884 -0.2666  0.2314
 4587TIP3   OH237955   1.659   2.975  12.749 -0.3088  0.2457  0.1456
 4587TIP3    H137956   1.681   3.012  12.664 -2.3199  0.6772 -0.2468
 4587TIP3    H237957   1.612   3.046  12.794 -0.2552 -0.3546  1.1710
 4588TIP3   OH237958   7.324   5.120  12.510  0.2128 -0.0990  0.4618
 4588TIP3    H137959   7.381   5.086  12.579  0.3412 -2.2608 -0.6241
 4588TIP3    H237960   7.319   5.049  12.446 -1.2568  1.1980 -0.9489
 4589TIP3   OH237961   3.885   2.726  12.692 -0.5870 -0.2033  0.0593
 4589TIP3    H137962   3.927   2.810  12.712 -1.1009  0.2971 -0.8842
 4589TIP3    H237963   3.831   2.744  12.615 -0.1645 -1.5744 -0.5828
 4590TIP3   OH237964   3.176   6.793  11.871 -0.0788  0.0104  0.0707
 4590TIP3    H137965   3.133   6.768  11.953 -0.1374  0.2918  0.1273
 4590TIP3    H237966   3.122   6.865  11.837 -0.5973 -0.7194 -0.6840
 4591TIP3   OH237967   3.022   6.819  12.080 -0.4921  0.3869 -0.3095
 4591TIP3    H137968   2.928   6.836  12.080 -0.3749  1.0398 -1.1947
 4591TIP3    H237969   3.031   6.740  12.134 -1.5948  0.0375 -0.6040
 4592TIP3   OH237970   1.402   4.387  12.855 -0.2716  0.3430  0.3864
 4592TIP3    H137971   1.466   4.326  12.892 -0.4883  1.1893  2.2859
 4592TIP3    H237972   1.366   4.433  12.931 -1.3512  1.6284 -0.8441
 4593TIP3   OH237973   1.008   5.423  12.703 -0.0211 -0.5227  0.1867
 4593TIP3    H137974   1.048   5.371  12.633 -1.3180 -1.8675  0.4067
 4593TIP3    H237975   0.981   5.504  12.660  2.1242  0.0999 -0.1369
 4594TIP3   OH237976   6.345   7.555  12.995  0.1614 -1.0771 -0.4788
 4594TIP3    H137977   6.431   7.515  13.011  1.4648  0.6664 -2.6527
 4594TIP3    H237978   6.311   7.509  12.919  0.2103 -0.2398 -1.0141
 4595TIP3   OH237979   1.025   5.358  13.035 -0.1661 -0.2913  0.1735
 4595TIP3    H137980   1.039   5.412  12.957 -0.7945  0.0903  0.3158
 4595TIP3    H237981   1.113   5.327  13.059  0.0830 -0.0855 -0.4475
 4596TIP3   OH237982   3.727   4.607  12.096 -0.2385 -0.1140 -0.5382
 4596TIP3    H137983   3.788   4.546  12.057  1.6075 -0.8093  3.0452
 4596TIP3    H237984   3.696   4.564  12.176 -0.4157  2.7496  1.1079
 4597TIP3   OH237985   6.810   0.666  12.963  0.7018 -0.5675  0.3609
 4597TIP3    H137986   6.732   0.721  12.975 -0.2962 -2.3433  2.8450
 4597TIP3    H237987   6.883   0.728  12.959 -0.6857  1.1008 -1.1729
 4598TIP3   OH237988   6.106   0.671  12.125  1.0254 -0.4588 -0.2629
 4598TIP3    H137989   6.181   0.709  12.078  1.9705 -1.8021  0.0904
 4598TIP3    H237990   6.144   0.601  12.178 -0.2841 -0.2029  1.0945
 4599TIP3   OH237991   0.794   4.535  13.695 -0.8474  0.0368 -0.0103
 4599TIP3    H137992   0.770   4.463  13.637 -0.4179  1.3051 -1.8645
 4599TIP3    H237993   0.722   4.598  13.686 -0.8667  0.1712  0.9988
 4600TIP3   OH237994   2.076   4.282  11.627  0.3538  0.2944 -0.2062
 4600TIP3    H137995   1.993   4.314  11.664  0.8047  0.4680  0.6821
 4600TIP3    H237996   2.056   4.195  11.595  0.3110 -0.5418  1.9399
 4601TIP3   OH237997   6.345   1.680  12.476  0.3114  0.0896  0.7815
 4601TIP3    H137998   6.408   1.741  12.515  0.6235  1.0156 -1.0297
 4601TIP3    H237999   6.343   1.705  12.384 -4.2336  1.5082  1.0257
 4602TIP3   OH238000   5.412   5.674  12.385 -0.6913 -0.0987 -0.3892
 4602TIP3    H138001   5.454   5.591  12.406 -0.3923  0.3877  1.0460
 4602TIP3    H238002   5.450   5.737  12.448 -1.0031  1.0913 -1.3516
 4603TIP3   OH238003   4.364   0.022  12.417  0.0226 -0.2321 -0.3420
 4603TIP3    H138004   4.345  -0.061  12.373  3.1329 -0.8756 -0.6899
 4603TIP3    H238005   4.395   0.080  12.348  0.2517  0.4036  0.2769
 4604TIP3   OH238006   6.222   5.585  11.691  0.2778  0.2993 -0.1864
 4604TIP3    H138007   6.259   5.557  11.775 -0.4336  0.1875  0.1001
 4604TIP3    H238008   6.296   5.619  11.642  0.7173  0.2906  0.4616
 4605TIP3   OH238009   4.891   4.228  13.428  0.1878 -0.1130 -0.1339
 4605TIP3    H138010   4.829   4.213  13.499 -0.1574  0.6055 -0.2741
 4605TIP3    H238011   4.903   4.323  13.427  0.8760 -0.1979 -0.4629
 4606TIP3   OH238012   2.771   7.516  11.720  0.7432  0.4011 -0.5269
 4606TIP3    H138013   2.821   7.597  11.715 -0.5693  1.2162 -0.8143
 4606TIP3    H238014   2.722   7.512  11.638 -1.7855  1.1036  0.8141
 4607TIP3   OH238015   4.370   1.157  13.216  0.4296  0.3721  0.2887
 4607TIP3    H138016   4.462   1.185  13.216  0.9788 -1.3232 -0.4632
 4607TIP3    H238017   4.328   1.217  13.154  0.8566  1.6085  1.1527
 4608TIP3   OH238018   0.402   6.601  11.030 -0.3607  0.1847  0.1002
 4608TIP3    H138019   0.403   6.543  10.954  2.0137 -0.1499  0.3216
 4608TIP3    H238020   0.484   6.583  11.075 -1.7581  0.2735  2.8484
 4609TIP3   OH238021   3.156   4.621  10.895  0.1154 -0.9341 -0.1167
 4609TIP3    H138022   3.128   4.662  10.977 -0.1707  1.1488 -1.1822
 4609TIP3    H238023   3.249   4.639  10.889  0.2540 -1.5924  0.0227
 4610TIP3   OH238024   4.696   7.244  10.822 -0.0717 -0.4592 -0.2735
 4610TIP3    H138025   4.757   7.253  10.749  0.4679 -0.7560  0.1345
 4610TIP3    H238026   4.659   7.156  10.812 -0.5134 -0.2414 -0.5779
 4611TIP3   OH238027   2.314   4.850  12.202  0.0590 -0.7223  0.3659
 4611TIP3    H138028   2.313   4.795  12.124  3.2628 -0.7360  0.2173
 4611TIP3    H238029   2.407   4.867  12.219 -0.6539  2.3449  2.0363
 4612TIP3   OH238030   2.861   3.733  12.891  0.4409 -0.1613  0.3953
 4612TIP3    H138031   2.934   3.670  12.887  1.0036  0.5397 -0.8347
 4612TIP3    H238032   2.892   3.800  12.952  2.3554  1.8877 -2.5319
 4613TIP3   OH238033   0.337   7.476  13.323 -0.3782 -0.2655  0.1878
 4613TIP3    H138034   0.365   7.496  13.234  0.4709 -0.3632  0.4236
 4613TIP3    H238035   0.335   7.561  13.367  0.6289 -0.3724  0.4641
 4614TIP3   OH238036   5.820   3.949  12.677 -0.1587 -0.1507  0.1735
 4614TIP3    H138037   5.756   4.018  12.657  0.3517 -0.2561 -2.0893
 4614TIP3    H238038   5.789   3.873  12.627  0.7258 -0.7632  0.5390
 4615TIP3   OH238039   1.091   7.607  12.599 -0.1783  0.0806 -0.0313
 4615TIP3    H138040   1.180   7.641  12.608 -0.2345  1.1100 -2.5106
 4615TIP3    H238041   1.056   7.607  12.688  1.5674  1.7601  0.7272
 4616TIP3   OH238042   4.273   2.229  11.578 -0.1895 -0.0916  0.1084
 4616TIP3    H138043   4.213   2.303  11.586  0.5225  0.3945  1.0415
 4616TIP3    H238044   4.226   2.155  11.616 -0.1634  0.3103  0.9335
 4617TIP3   OH238045   1.440   2.696  12.052  0.3597 -0.4727  0.6770
 4617TIP3    H138046   1.525   2.736  12.073  0.7180 -1.3762  0.9658
 4617TIP3    H238047   1.418   2.732  11.966  1.4735 -0.9306  0.1837
 4618TIP3   OH238048   5.397   2.100  12.234  0.2380 -0.6503  0.4710
 4618TIP3    H138049   5.412   2.006  12.226  1.2066 -0.4439 -0.2902
 4618TIP3    H238050   5.379   2.113  12.327 -0.5940 -1.6765  0.4656
 4619TIP3   OH238051   0.137   2.796  13.704  0.1640 -0.3397  0.1894
 4619TIP3    H138052   0.212   2.736  13.705  0.0970 -0.4237  0.3779
 4619TIP3    H238053   0.141   2.841  13.789 -0.1129 -0.4928  0.2871
 4620TIP3   OH238054   5.207   3.993  11.438  0.0305 -0.0142 -0.0895
 4620TIP3    H138055   5.254   4.048  11.375  0.1358 -0.3290 -0.2881
 4620TIP3    H238056   5.115   4.003  11.414 -0.2072  2.0697  1.4559
 4621TIP3   OH238057   2.528   3.535  12.148 -0.1880 -0.3990  0.4401
 4621TIP3    H138058   2.600   3.477  12.174 -0.2298 -0.7918 -0.3178
 4621TIP3    H238059   2.504   3.507  12.060  1.0820  2.0201 -0.7734
 4622TIP3   OH238060   0.722   0.585  11.917 -0.4993  0.3739 -0.8926
 4622TIP3    H138061   0.764   0.519  11.972 -0.4652  1.6910  0.7083
 4622TIP3    H238062   0.790   0.649  11.900 -0.8640  0.6247 -1.4360
 4623TIP3   OH238063   7.127   2.553  13.123 -0.2508  0.1076 -0.1455
 4623TIP3    H138064   7.062   2.567  13.055 -0.9017  0.1936  0.4835
 4623TIP3    H238065   7.120   2.460  13.145 -0.3372  0.1686  0.0924
 4624TIP3   OH238066   5.561   5.041  10.866  0.5699 -0.4626  0.3084
 4624TIP3    H138067   5.644   5.030  10.911 -0.2339  0.2597  2.0339
 4624TIP3    H238068   5.549   5.136  10.860  0.7037 -0.5129 -1.6154
 4625TIP3   OH238069   1.620   3.429  11.729  0.0106  0.5170  0.0372
 4625TIP3    H138070   1.702   3.382  11.748 -0.9607 -0.9122  0.8120
 4625TIP3    H238071   1.631   3.458  11.638  0.1437 -2.3986 -0.9976
 4626TIP3   OH238072   1.412   3.436  13.675 -0.0510 -0.8148  0.6682
 4626TIP3    H138073   1.320   3.415  13.661 -0.0908 -0.1634 -0.1255
 4626TIP3    H238074   1.457   3.352  13.672 -0.1779 -0.9086 -2.5981
 4627TIP3   OH238075   0.351   1.619  12.172 -1.3287 -0.1338  0.5043
 4627TIP3    H138076   0.276   1.624  12.112 -2.2982 -0.2034  1.6864
 4627TIP3    H238077   0.327   1.675  12.245  0.2013  0.6156  0.4865
 4628TIP3   OH238078   3.484   6.990  13.255  0.0223  0.3291 -0.6529
 4628TIP3    H138079   3.476   6.922  13.323  4.5074 -1.3634 -1.4729
 4628TIP3    H238080   3.442   6.952  13.178 -2.7358  1.1502  0.3320
 4629TIP3   OH238081   3.122   0.848  11.913 -0.4063  0.1006 -0.5825
 4629TIP3    H138082   3.048   0.835  11.973  0.3418  1.6011  0.7364
 4629TIP3    H238083   3.198   0.815  11.961  0.3575  2.2260 -0.2178
 4630TIP3   OH238084   0.242   3.829  13.094 -0.0769  0.2950  0.4855
 4630TIP3    H138085   0.209   3.764  13.156  0.2506  0.6257  1.0156
 4630TIP3    H238086   0.318   3.868  13.138 -0.3431  1.1261  0.2210
 4631TIP3   OH238087   2.487   1.981  13.075 -0.9100 -0.0479 -0.8266
 4631TIP3    H138088   2.531   2.065  13.069  1.5839 -1.0602  1.2834
 4631TIP3    H238089   2.433   1.988  13.153 -0.0193 -0.6239 -0.1329
 4632TIP3   OH238090   4.996   2.675  11.563  0.3031 -0.2569  0.2235
 4632TIP3    H138091   4.996   2.717  11.649 -1.1290 -0.8482  0.5579
 4632TIP3    H238092   5.042   2.593  11.577 -0.2825 -0.5417  0.5559
 4633TIP3   OH238093   3.074   0.093  11.771  0.0446  0.7026 -0.7702
 4633TIP3    H138094   3.082   0.167  11.831 -3.0671  1.1751 -0.7726
 4633TIP3    H238095   3.154   0.043  11.783  1.6477  3.3377  0.2092
 4634TIP3   OH238096   2.175   6.374  12.656 -1.0380  0.2266  0.3926
 4634TIP3    H138097   2.247   6.407  12.602 -1.2037 -0.3017 -0.1542
 4634TIP3    H238098   2.135   6.452  12.693 -0.3139  0.5398  0.5378
 4635TIP3   OH238099   5.146   4.910  12.802 -0.0934  0.3809 -0.0113
 4635TIP3    H138100   5.136   4.826  12.757  0.7554  0.7351 -0.8904
 4635TIP3    H238101   5.203   4.891  12.876  0.6261  0.3074 -0.5813
 4636TIP3   OH238102   1.556   2.049  12.468  0.1140 -0.4494  0.0647
 4636TIP3    H138103   1.627   2.026  12.528  0.2135 -0.1932  0.0439
 4636TIP3    H238104   1.519   2.130  12.503  0.6657  0.1165 -0.6303
 4637TIP3   OH238105   1.161   1.078  12.571  0.3360 -0.4654 -0.1064
 4637TIP3    H138106   1.194   1.044  12.654  1.9564 -0.7617 -0.8314
 4637TIP3    H238107   1.071   1.104  12.590  1.1039  0.8605  2.1345
 4638TIP3   OH238108   1.070   0.922  13.041  0.1264 -0.1358  0.9717
 4638TIP3    H138109   1.061   0.827  13.048  0.1945 -0.1254  1.2081
 4638TIP3    H238110   1.004   0.957  13.101 -0.2255 -0.0281  0.5263
 4639TIP3   OH238111   2.858   7.332  11.958  0.5946  0.0834  0.1342
 4639TIP3    H138112   2.825   7.399  11.898  3.0244  2.4935  1.2419
 4639TIP3    H238113   2.950   7.322  11.933  1.0528 -0.5799  1.9486
 4640TIP3   OH238114   1.223   4.747  13.592 -0.2236  0.0276  0.5229
 4640TIP3    H138115   1.202   4.672  13.535 -0.4124  0.0239  0.5971
 4640TIP3    H238116   1.153   4.748  13.656 -2.8185  2.9757 -2.0692
 4641TIP3   OH238117   5.922   6.562  11.733 -0.4322 -0.2379  0.1092
 4641TIP3    H138118   5.886   6.500  11.670 -0.2006  0.6773 -0.9464
 4641TIP3    H238119   5.913   6.647  11.691 -0.3597  0.4064  1.3594
 4642TIP3   OH238120   1.154   0.607  11.619 -0.3164 -0.0031  0.1691
 4642TIP3    H138121   1.118   0.661  11.549 -0.6075  0.7998  0.9107
 4642TIP3    H238122   1.082   0.550  11.645 -0.1655 -0.3982 -0.2737
 4643TIP3   OH238123   5.469   5.637  11.495  0.0921  0.1479 -0.1415
 4643TIP3    H138124   5.454   5.613  11.586  0.1176  1.4958  0.2273
 4643TIP3    H238125   5.542   5.699  11.497  1.1466 -0.9869 -1.2447
 4644TIP3   OH238126   2.354   4.283  12.092 -0.0394  0.2403 -0.4096
 4644TIP3    H138127   2.408   4.218  12.136 -0.8156  0.7501  1.3959
 4644TIP3    H238128   2.352   4.255  12.000 -0.0227 -2.0333  0.2228
 4645TIP3   OH238129   0.320   2.280  13.608 -0.6995  0.1531  0.0943
 4645TIP3    H138130   0.280   2.196  13.586 -0.3523  0.1206 -0.4309
 4645TIP3    H238131   0.394   2.258  13.665 -1.8387  0.2676  1.6590
 4646TIP3   OH238132   0.682   2.987  13.215  0.2442 -0.5927 -0.5688
 4646TIP3    H138133   0.696   2.967  13.123 -1.8286  0.9970 -1.3004
 4646TIP3    H238134   0.740   2.926  13.262  1.9042 -0.9242 -2.8943
 4647TIP3   OH238135   1.999   6.279  11.927  0.3283  0.5678 -0.4996
 4647TIP3    H138136   1.934   6.348  11.912 -0.7548 -0.5037 -0.8771
 4647TIP3    H238137   2.018   6.244  11.840 -1.6968 -1.8422 -0.1008
 4648TIP3   OH238138   3.887   6.642  12.108  0.2413 -0.5461 -0.6414
 4648TIP3    H138139   3.802   6.633  12.151 -0.6302  0.0991 -2.1713
 4648TIP3    H238140   3.918   6.552  12.097  0.5024 -0.7377  1.2923
 4649TIP3   OH238141   1.814   0.554  11.199 -0.0899 -0.4006  0.4555
 4649TIP3    H138142   1.748   0.514  11.256  0.4929  1.2643  2.4145
 4649TIP3    H238143   1.777   0.548  11.111 -2.0831 -1.0210  1.2849
 4650TIP3   OH238144   7.311   3.169  11.810  0.1299  0.7244 -0.2182
 4650TIP3    H138145   7.302   3.251  11.859 -0.3002  0.5160  0.0569
 4650TIP3    H238146   7.243   3.112  11.846  0.2085  0.3592 -0.6395
 4651TIP3   OH238147   7.031   0.633  13.520 -0.2639 -0.3237 -0.5475
 4651TIP3    H138148   7.120   0.666  13.528 -0.3607 -0.0613 -0.5545
 4651TIP3    H238149   6.975   0.711  13.526 -0.5173 -0.5332 -0.0392
 4652TIP3   OH238150   0.578   7.053  11.991 -0.3459  0.3415  0.5155
 4652TIP3    H138151   0.516   7.085  11.925  2.2896  0.8692 -1.9134
 4652TIP3    H238152   0.639   7.126  12.004  0.4218 -0.5120  1.9835
 4653TIP3   OH238153   7.265   1.274  12.020 -0.0544  0.0732  0.6233
 4653TIP3    H138154   7.299   1.361  11.999  2.3079 -0.5570  1.4585
 4653TIP3    H238155   7.220   1.245  11.941  0.7193  1.3289 -0.3124
 4654TIP3   OH238156   2.056   4.129  12.607 -0.2570 -0.8584  0.8088
 4654TIP3    H138157   1.991   4.173  12.552 -0.5636 -1.1676  0.9145
 4654TIP3    H238158   2.135   4.181  12.597 -0.9134  0.3991  1.8549
 4655TIP3   OH238159   3.070   5.637  11.648  0.4190  0.1881 -0.5912
 4655TIP3    H138160   3.015   5.699  11.600 -0.1174  0.0644 -0.1496
 4655TIP3    H238161   3.040   5.644  11.739 -0.4817 -1.5656 -0.7061
 4656TIP3   OH238162   0.789   6.165  12.155  0.1807 -0.4714 -0.3994
 4656TIP3    H138163   0.723   6.228  12.186  1.2982 -0.3475  1.9391
 4656TIP3    H238164   0.846   6.217  12.098  1.8903  1.1555  2.5440
 4657TIP3   OH238165   6.641   1.670  11.484 -0.1567 -0.2510  0.6560
 4657TIP3    H138166   6.736   1.678  11.484 -0.1516  0.0902 -0.7632
 4657TIP3    H238167   6.625   1.578  11.461 -0.0842  0.3824 -2.5081
 4658TIP3   OH238168   3.913   6.796  11.862 -0.1998  0.0560  0.4399
 4658TIP3    H138169   3.840   6.766  11.808  0.6782 -0.1423 -0.7117
 4658TIP3    H238170   3.903   6.749  11.945 -0.6766 -0.9316 -0.1567
 4659TIP3   OH238171   6.131   5.384  13.305  0.4426  0.3331 -0.3737
 4659TIP3    H138172   6.047   5.393  13.259  1.3002  0.6621 -1.9366
 4659TIP3    H238173   6.164   5.473  13.312  0.2905  0.3034  1.0186
 4660TIP3   OH238174   6.733   1.192  11.491  0.1542 -0.1659 -0.5140
 4660TIP3    H138175   6.827   1.182  11.474  0.1079 -0.4439 -0.6093
 4660TIP3    H238176   6.691   1.135  11.427 -0.1757  1.5280 -1.8575
 4661TIP3   OH238177   4.006   1.614  12.636 -0.3891  0.1848 -0.1234
 4661TIP3    H138178   3.966   1.530  12.660  0.6706 -0.1637  0.4824
 4661TIP3    H238179   3.968   1.635  12.551 -1.0549 -0.6628 -0.0459
 4662TIP3   OH238180   5.213   0.293  12.501 -0.1689 -0.3168  0.4837
 4662TIP3    H138181   5.170   0.233  12.439  0.8642 -0.2712 -0.2979
 4662TIP3    H238182   5.273   0.344  12.448  0.0017  0.4433  1.3771
 4663TIP3   OH238183   2.801   3.188  12.898 -0.4086 -0.0577  0.1175
 4663TIP3    H138184   2.742   3.116  12.874 -2.5031  1.0527  1.5838
 4663TIP3    H238185   2.824   3.171  12.989 -0.7647  0.9796  0.4184
 4664TIP3   OH238186   0.124   0.043  11.936 -0.5027  0.0812 -0.4029
 4664TIP3    H138187   0.045   0.028  11.988 -0.6029 -0.1267 -0.6151
 4664TIP3    H238188   0.194   0.053  12.001 -0.8385  1.0906 -0.1801
 4665TIP3   OH238189   7.346   6.442  13.475  0.5807 -0.4004 -0.5012
 4665TIP3    H138190   7.415   6.415  13.535 -0.8713 -0.2990  1.2788
 4665TIP3    H238191   7.391   6.497  13.411  1.6075  3.6012  3.1867
 4666TIP3   OH238192   7.543   6.177  11.012  0.1236 -0.2909 -0.2883
 4666TIP3    H138193   7.579   6.139  10.932  2.4966  0.4092  0.3600
 4666TIP3    H238194   7.507   6.262  10.985  2.5176  0.7576 -0.4135
 4667TIP3   OH238195   5.569   4.011  12.568 -0.7658 -0.8488 -0.5295
 4667TIP3    H138196   5.575   4.040  12.477  1.2769 -0.4696 -0.3315
 4667TIP3    H238197   5.552   4.090  12.618 -1.9742 -1.0696 -0.5589
 4668TIP3   OH238198   4.222   3.746  12.011 -0.0338  0.1027 -0.1807
 4668TIP3    H138199   4.245   3.825  11.962 -0.7788  0.3062 -0.2166
 4668TIP3    H238200   4.295   3.733  12.071 -0.4634  1.5590  0.7086
 4669TIP3   OH238201   3.395   4.366  12.444  0.0146 -0.1176  0.0931
 4669TIP3    H138202   3.361   4.395  12.529  1.4420 -2.8903  1.7220
 4669TIP3    H238203   3.340   4.291  12.420  0.7685 -0.4795 -0.5545
 4670TIP3   OH238204   5.448   1.630  11.992  0.2130 -0.5156  0.1648
 4670TIP3    H138205   5.397   1.552  12.010  1.1384 -0.7593  1.8860
 4670TIP3    H238206   5.417   1.695  12.055  2.0630 -0.7212  1.3678
 4671TIP3   OH238207   6.049   2.318  12.725 -0.3842 -0.5165 -0.4954
 4671TIP3    H138208   6.031   2.230  12.759 -0.6495 -0.1105  0.4536
 4671TIP3    H238209   6.138   2.312  12.689  0.1550 -0.8237  0.8174
 4672TIP3   OH238210   2.087   1.766  11.535  0.2001 -0.4519  0.5425
 4672TIP3    H138211   2.161   1.754  11.475 -1.2972 -2.4024 -1.0467
 4672TIP3    H238212   2.019   1.808  11.481 -0.6884 -0.9512  1.2452
 4673TIP3   OH238213   4.771   4.925  12.716 -0.2019 -0.1959 -0.4462
 4673TIP3    H138214   4.742   4.838  12.686  1.7311 -0.5343 -1.4947
 4673TIP3    H238215   4.864   4.914  12.734  0.0147  1.6075 -0.3102
 4674TIP3   OH238216   6.244   6.318  11.849  0.4509 -0.0131 -0.4221
 4674TIP3    H138217   6.163   6.273  11.874  2.2724 -1.8414  2.8500
 4674TIP3    H238218   6.256   6.385  11.916  0.7724  1.5291 -1.9567
 4675TIP3   OH238219   1.494   4.070  13.185 -0.0632  0.4425 -0.3997
 4675TIP3    H138220   1.441   3.994  13.211 -2.5102  2.7589  2.0903
 4675TIP3    H238221   1.432   4.143  13.185  1.8668  2.3588 -3.9588
 4676TIP3   OH238222   6.170   0.560  13.666  0.2600 -0.5950  0.4630
 4676TIP3    H138223   6.163   0.572  13.761  1.7132  0.8571  0.4270
 4676TIP3    H238224   6.136   0.472  13.650 -0.5874 -0.6266  2.2494
 4677TIP3   OH238225   0.486   4.445  13.334 -0.0273 -0.1663 -0.0529
 4677TIP3    H138226   0.402   4.488  13.353  0.2516  0.9861 -1.2563
 4677TIP3    H238227   0.549   4.517  13.331  0.9326 -0.9729  0.3851
 4678TIP3   OH238228   3.276   6.534  11.881 -0.1120 -0.5805 -0.2661
 4678TIP3    H138229   3.257   6.627  11.885  0.0662 -0.5299 -0.5857
 4678TIP3    H238230   3.362   6.526  11.923 -0.1740 -0.6175 -0.1440
 4679TIP3   OH238231   0.637   6.978  12.929 -0.7949  0.1041 -0.1186
 4679TIP3    H138232   0.730   6.981  12.952 -0.8481  0.5658  0.0499
 4679TIP3    H238233   0.626   6.896  12.882 -0.0732  0.5549 -1.0998
 4680TIP3   OH238234   1.130   5.753  13.525  0.2967  0.2254 -0.0664
 4680TIP3    H138235   1.179   5.675  13.552  0.2393  0.1955 -0.0483
 4680TIP3    H238236   1.195   5.809  13.483  1.0529  1.5446  2.6003
 4681TIP3   OH238237   1.511   1.730  12.031 -1.0530 -0.2723  0.4149
 4681TIP3    H138238   1.463   1.715  12.112 -2.1204 -0.4381 -0.2245
 4681TIP3    H238239   1.561   1.649  12.018 -0.9257 -0.2703  0.8649
 4682TIP3   OH238240   0.499   2.928  12.508  0.1819  0.0024  0.4136
 4682TIP3    H138241   0.428   2.983  12.477 -0.1901 -1.7418 -2.0932
 4682TIP3    H238242   0.573   2.949  12.450  0.5550 -0.9007  0.5488
 4683TIP3   OH238243   4.562   4.132  11.719 -0.0321  0.0987 -0.8717
 4683TIP3    H138244   4.643   4.168  11.682  0.7419 -1.5632 -0.8736
 4683TIP3    H238245   4.492   4.186  11.682  1.0703  1.6828 -0.7333
 4684TIP3   OH238246   2.443   3.011  13.091 -0.8149  0.0029 -0.4002
 4684TIP3    H138247   2.439   3.080  13.025 -0.3644 -1.1609 -1.6817
 4684TIP3    H238248   2.519   3.033  13.144 -0.2462  0.1104 -1.2458
 4685TIP3   OH238249   6.695   6.589  13.087 -0.1104 -0.1993  0.6686
 4685TIP3    H138250   6.702   6.603  13.182  1.1346  1.7797  0.3229
 4685TIP3    H238251   6.619   6.641  13.061  2.2450  3.2098 -0.0264
 4686TIP3   OH238252   4.520   6.180  12.353  0.4545  0.1243  0.1252
 4686TIP3    H138253   4.521   6.229  12.435  1.8510  0.6730 -0.1982
 4686TIP3    H238254   4.428   6.156  12.341 -0.0300  1.4103  1.0316
 4687TIP3   OH238255   7.477   6.660  12.693  0.3552 -0.3297 -0.0123
 4687TIP3    H138256   7.495   6.583  12.639  1.7345  0.2577 -0.4372
 4687TIP3    H238257   7.557   6.713  12.687 -0.0656  0.5087  1.3355
 4688TIP3   OH238258   3.199   5.627  12.308 -0.2627  0.4381 -0.4275
 4688TIP3    H138259   3.278   5.674  12.281 -0.7037  1.9062  0.7420
 4688TIP3    H238260   3.210   5.539  12.271  1.7778  0.6995 -0.5480
 4689TIP3   OH238261   7.306   1.507  11.657 -0.1975  0.0300 -0.3490
 4689TIP3    H138262   7.243   1.494  11.728 -0.0367 -1.8341 -0.4878
 4689TIP3    H238263   7.255   1.540  11.584 -0.9408 -0.9136 -0.2807
 4690TIP3   OH238264   1.704   7.391  13.416  0.1473  0.1028  0.1266
 4690TIP3    H138265   1.797   7.412  13.411  0.1317  0.1027 -0.1682
 4690TIP3    H238266   1.700   7.298  13.394  0.1175  0.0082  0.5215
 4691TIP3   OH238267   2.632   5.107  11.888 -0.2159 -0.0298  0.2303
 4691TIP3    H138268   2.543   5.087  11.917 -0.0647  0.2683  0.9195
 4691TIP3    H238269   2.649   5.195  11.922  0.5644 -0.3262  0.6369
 4692TIP3   OH238270   1.723   3.484  12.958 -0.1046 -0.1918 -0.1508
 4692TIP3    H138271   1.662   3.552  12.930  1.3908  0.9932 -0.7141
 4692TIP3    H238272   1.713   3.414  12.893  2.5398  2.0552 -3.3519
 4693TIP3   OH238273   2.316   0.401  11.671  0.1759 -0.1395  0.3691
 4693TIP3    H138274   2.268   0.427  11.750 -0.4640 -0.6406  0.1525
 4693TIP3    H238275   2.373   0.475  11.652  0.6456 -0.1783  1.5416
 4694TIP3   OH238276   3.646   3.657  12.744  0.2641 -0.4897  0.0060
 4694TIP3    H138277   3.571   3.681  12.689  0.4964  0.3395  0.0480
 4694TIP3    H238278   3.690   3.739  12.762  1.1229 -0.9586  0.0845
 4695TIP3   OH238279   7.079   7.416  10.623  0.1416 -0.1723  0.5426
 4695TIP3    H138280   7.000   7.424  10.676  0.6988 -0.2778  1.4068
 4695TIP3    H238281   7.128   7.497  10.641  2.1835 -1.8368  3.3256
 4696TIP3   OH238282   0.865   4.268  11.091 -0.2632 -0.4269  0.2985
 4696TIP3    H138283   0.935   4.209  11.063  1.3605  1.7796 -0.6612
 4696TIP3    H238284   0.793   4.250  11.031  0.2811 -1.2321 -0.1309
 4697TIP3   OH238285   4.577   5.100  13.006 -0.6724  0.1087  0.4974
 4697TIP3    H138286   4.486   5.103  12.976 -0.5398  0.8308  0.1238
 4697TIP3    H238287   4.596   5.007  13.018 -0.8183 -0.1935 -1.4095
 4698TIP3   OH238288   5.842   3.408  11.765 -0.0212 -0.0796  0.1012
 4698TIP3    H138289   5.767   3.435  11.817 -1.5499  0.1910 -2.1232
 4698TIP3    H238290   5.805   3.379  11.682  2.4155  1.8636 -1.8330
 4699TIP3   OH238291   0.706   7.386  12.974  0.4789 -0.2441 -0.8556
 4699TIP3    H138292   0.683   7.470  12.935 -0.0184  0.2225  0.3853
 4699TIP3    H238293   0.665   7.388  13.060 -0.6809 -2.2961 -1.2874
 4700TIP3   OH238294   3.948   1.722  11.773  0.0683  0.0063  0.1508
 4700TIP3    H138295   3.892   1.649  11.801 -1.1771  0.5218 -0.9400
 4700TIP3    H238296   4.021   1.679  11.728 -0.9841 -0.5692 -1.0641
 4701TIP3   OH238297   7.145   5.016  11.145 -0.4148  0.1057  0.5955
 4701TIP3    H138298   7.139   5.058  11.060  0.9170  0.1883  0.5110
 4701TIP3    H238299   7.055   5.007  11.175 -0.8835  0.3066 -0.7044
 4702TIP3   OH238300   5.961   6.808  13.585  0.1312 -0.5970  0.6885
 4702TIP3    H138301   5.897   6.747  13.622  0.7073 -1.3225  0.5087
 4702TIP3    H238302   5.915   6.848  13.510  0.3640 -2.2259 -0.3834
 4703TIP3   OH238303   0.265   6.446  11.343 -0.6128  0.3689 -0.1726
 4703TIP3    H138304   0.199   6.408  11.285  0.4871 -2.3356  0.1971
 4703TIP3    H238305   0.217   6.513  11.392 -2.6174 -0.2188 -1.1902
 4704TIP3   OH238306   6.818   4.549  10.991  0.3690 -0.0760 -0.5769
 4704TIP3    H138307   6.805   4.459  10.963  1.0937 -0.6167  0.7245
 4704TIP3    H238308   6.740   4.595  10.961 -0.5195 -1.3712 -0.3445
 4705TIP3   OH238309   5.261   5.983  11.533  0.3891  0.4254 -0.1413
 4705TIP3    H138310   5.264   6.070  11.573 -0.9515 -0.1368  1.2637
 4705TIP3    H238311   5.215   5.929  11.597  2.3060 -1.6502 -0.3809
 4706TIP3   OH238312   5.408   1.671  13.471  0.1054  0.8970  0.1832
 4706TIP3    H138313   5.352   1.663  13.548  0.8034 -1.2050  0.5577
 4706TIP3    H238314   5.354   1.715  13.405 -1.6159 -0.1181  0.8590
 4707TIP3   OH238315   4.949   5.376  11.078  0.4932  0.1894  0.1420
 4707TIP3    H138316   4.879   5.423  11.121 -1.0079  0.0042 -1.9411
 4707TIP3    H238317   5.023   5.437  11.079 -0.3792  1.2736  0.4177
 4708TIP3   OH238318   5.375   7.000  11.303  0.1371 -0.1476 -1.0142
 4708TIP3    H138319   5.391   7.088  11.337  2.2009 -0.8662  0.0434
 4708TIP3    H238320   5.281   6.998  11.286 -0.0547  2.0772 -0.6039
 4709TIP3   OH238321   3.851   6.538  11.081  0.4805  0.5461 -0.4813
 4709TIP3    H138322   3.814   6.593  11.012  0.6593  0.1365 -0.9047
 4709TIP3    H238323   3.791   6.463  11.087 -0.2167  1.1684  0.6530
 4710TIP3   OH238324   1.665   3.553  13.439 -0.5122  0.1543 -0.6212
 4710TIP3    H138325   1.719   3.553  13.361  0.8551 -0.6367  0.2857
 4710TIP3    H238326   1.603   3.481  13.426  1.0500 -1.3392 -0.1309
 4711TIP3   OH238327   2.149   0.396  12.913 -0.1924  0.6010  0.4728
 4711TIP3    H138328   2.234   0.375  12.875 -0.7051  1.3820 -1.2113
 4711TIP3    H238329   2.107   0.311  12.925  0.6825  0.2271  1.0190
 4712TIP3   OH238330   7.536   6.313  12.678  0.5303 -0.4121 -0.2667
 4712TIP3    H138331   7.441   6.298  12.675  0.5546 -0.4426 -1.1523
 4712TIP3    H238332   7.567   6.255  12.748 -0.4021  1.4102  1.7684
 4713TIP3   OH238333   1.160   7.462  13.476 -0.7539  0.3122  0.3370
 4713TIP3    H138334   1.232   7.404  13.500 -1.5123 -0.6600  0.2949
 4713TIP3    H238335   1.199   7.523  13.414  0.0519 -0.1557  0.3633
 4714TIP3   OH238336   5.929   1.922  12.600 -0.1398 -0.4735  0.0579
 4714TIP3    H138337   5.838   1.949  12.586 -0.0547 -0.1954  0.0524
 4714TIP3    H238338   5.939   1.920  12.695 -0.1716 -0.5735  0.0595
 4715TIP3   OH238339   3.724   4.466  13.564  0.2901 -0.2387 -0.7774
 4715TIP3    H138340   3.785   4.529  13.603  2.4075 -2.1799 -0.7379
 4715TIP3    H238341   3.640   4.487  13.604  0.9841  2.2272 -0.4258
 4716TIP3   OH238342   6.203   5.182  11.227  0.2762  0.8390  0.0877
 4716TIP3    H138343   6.228   5.208  11.315  2.8736  1.8044 -0.8389
 4716TIP3    H238344   6.233   5.091  11.219 -0.6315  0.4964  0.3937
 4717TIP3   OH238345   1.938   5.904  11.896  0.4763 -0.5125 -0.2828
 4717TIP3    H138346   1.866   5.934  11.840  0.5494 -0.5037 -0.3732
 4717TIP3    H238347   1.896   5.866  11.972  0.3812 -0.1972 -0.1772
 4718TIP3   OH238348   6.875   2.712  11.892 -0.3676 -0.2139 -0.1335
 4718TIP3    H138349   6.955   2.752  11.859  0.0444  0.3987  1.4943
 4718TIP3    H238350   6.804   2.764  11.854  0.1425  1.8078  1.4868
 4719TIP3   OH238351   0.144   4.888  11.703 -0.1762 -0.2068  0.0238
 4719TIP3    H138352   0.060   4.875  11.659 -0.6298 -1.7942  1.2413
 4719TIP3    H238353   0.135   4.840  11.786  2.0887 -0.8192 -0.0220
 4720TIP3   OH238354   7.182   3.685  13.573 -0.1806 -0.4865  0.6313
 4720TIP3    H138355   7.112   3.631  13.610 -0.1428 -0.3767  0.8619
 4720TIP3    H238356   7.222   3.629  13.507 -1.7619  0.1208 -0.9355
 4721TIP3   OH238357   3.875   7.329  12.089  0.3676 -0.2393 -0.3175
 4721TIP3    H138358   3.900   7.380  12.166 -1.1317  0.7912 -0.4662
 4721TIP3    H238359   3.782   7.312  12.100  0.3871 -1.1529 -1.3176
 4722TIP3   OH238360   4.088   2.620  12.896 -0.1840 -0.2205 -0.0903
 4722TIP3    H138361   4.051   2.707  12.881  0.4631  0.2987  1.1869
 4722TIP3    H238362   4.013   2.561  12.890 -0.7991  0.5350  0.0207
 4723TIP3   OH238363   2.301   5.891  11.392 -0.0452 -0.6140  0.2931
 4723TIP3    H138364   2.333   5.835  11.462 -1.0162  0.6102  1.7802
 4723TIP3    H238365   2.371   5.955  11.378 -0.0834 -0.5116  0.5594
 4724TIP3   OH238366   6.751   0.186  13.684  0.2574 -0.0680  0.1645
 4724TIP3    H138367   6.691   0.115  13.705 -0.7324  0.3289 -1.2044
 4724TIP3    H238368   6.695   0.257  13.652  1.4914 -0.1788 -2.5412
 4725TIP3   OH238369   1.173   6.524  12.049  0.3837  0.7155  0.1099
 4725TIP3    H138370   1.120   6.476  12.112 -1.4137  2.2556 -0.1561
 4725TIP3    H238371   1.263   6.511  12.078 -0.0199 -2.5473  0.1673
 4726TIP3   OH238372   4.852   7.049  12.243 -0.0184  0.2937 -0.1546
 4726TIP3    H138373   4.798   6.975  12.270  1.4954 -0.3454  1.2973
 4726TIP3    H238374   4.818   7.074  12.157 -0.2856 -2.3634 -0.8904
 4727TIP3   OH238375   1.026   6.171  13.153 -0.0223 -0.3070  0.2842
 4727TIP3    H138376   1.081   6.181  13.230 -0.7218  0.8489  0.6527
 4727TIP3    H238377   0.978   6.089  13.168  0.2766 -0.3907  0.8013
 4728TIP3   OH238378   5.260   5.174  12.724  0.0603  0.3525 -0.4363
 4728TIP3    H138379   5.311   5.253  12.742  2.5212 -0.5578 -2.6732
 4728TIP3    H238380   5.273   5.119  12.801  2.2637  0.3170 -0.7809
 4729TIP3   OH238381   5.453   3.034  12.662 -0.4196  0.7953 -0.1455
 4729TIP3    H138382   5.493   2.978  12.595 -0.6653 -1.2465  1.3386
 4729TIP3    H238383   5.368   2.993  12.680 -1.0057  2.1807  0.3439
 4730TIP3   OH238384   4.947   7.200  11.412  0.6055 -0.3057 -0.0905
 4730TIP3    H138385   4.882   7.133  11.434  1.8333 -1.3844  0.4166
 4730TIP3    H238386   4.976   7.234  11.497  1.4437 -0.5906 -0.2484
 4731TIP3   OH238387   1.826   4.355  11.648  0.6898  0.3538 -0.0774
 4731TIP3    H138388   1.846   4.404  11.569 -0.3172 -0.4666 -0.8787
 4731TIP3    H238389   1.733   4.334  11.641  0.8990 -0.9839  0.6028
 4732TIP3   OH238390   3.257   2.269  12.060  0.2247 -0.2085 -0.0305
 4732TIP3    H138391   3.207   2.304  11.986  1.9020  0.4440 -0.9108
 4732TIP3    H238392   3.207   2.295  12.137 -1.6317 -1.0065 -0.9002
 4733TIP3   OH238393   4.247   6.803  13.444 -0.6037 -0.8270  0.1942
 4733TIP3    H138394   4.221   6.888  13.479  0.2780 -0.6560  0.4539
 4733TIP3    H238395   4.174   6.776  13.389 -0.3167  0.7369 -1.0213
 4734TIP3   OH238396   3.515   3.314  12.370  0.3143 -0.3063 -0.8801
 4734TIP3    H138397   3.596   3.283  12.411 -0.3225 -1.1216 -0.2037
 4734TIP3    H238398   3.487   3.387  12.425  0.9302  0.4340 -1.5130
 4735TIP3   OH238399   3.352   2.878  11.607  0.3755 -0.4761 -0.2610
 4735TIP3    H138400   3.379   2.967  11.588 -0.7306  0.0879  0.6931
 4735TIP3    H238401   3.273   2.865  11.554  0.6744 -0.9831 -0.5891
 4736TIP3   OH238402   4.890   0.671  12.474 -0.4252  0.3346 -0.0945
 4736TIP3    H138403   4.865   0.754  12.514  0.7568  1.3861 -1.4229
 4736TIP3    H238404   4.982   0.683  12.448 -0.1244 -1.5113 -0.0314
 4737TIP3   OH238405   0.198   3.346  12.523  0.0022 -0.5800  0.3228
 4737TIP3    H138406   0.122   3.293  12.548 -1.2769  0.7417 -0.6367
 4737TIP3    H238407   0.208   3.331  12.429  1.3623 -1.2526  0.5561
 4738TIP3   OH238408   4.630   0.882  13.022  0.1338  0.7463 -0.0595
 4738TIP3    H138409   4.580   0.825  13.081 -0.1977  1.8385  0.7479
 4738TIP3    H238410   4.564   0.927  12.970  0.4426 -0.6743 -1.7639
 4739TIP3   OH238411   3.038   0.999  12.654 -0.3419 -0.2185  0.5469
 4739TIP3    H138412   3.050   0.928  12.591 -0.9195 -0.5482  0.7974
 4739TIP3    H238413   3.031   0.954  12.739 -1.8450  0.0429  0.5786
 4740TIP3   OH238414   5.678   5.713  11.681 -0.5992 -0.2348 -0.3744
 4740TIP3    H138415   5.751   5.684  11.735  0.7977  0.7731 -1.6409
 4740TIP3    H238416   5.719   5.752  11.603 -2.4938 -0.5905 -1.6330
 4741TIP3   OH238417   3.877   0.991  12.039  0.1701 -0.2333  0.2651
 4741TIP3    H138418   3.807   1.001  11.975  0.1219 -2.1477 -0.0501
 4741TIP3    H238419   3.957   1.011  11.991  0.0086 -0.1212  0.0402
 4742TIP3   OH238420   2.404   4.561  13.376 -0.2230  0.0602 -0.0387
 4742TIP3    H138421   2.412   4.466  13.389 -0.6019  0.1059  0.5318
 4742TIP3    H238422   2.489   4.588  13.342 -0.1816 -0.5207 -0.4085
 4743TIP3   OH238423   0.467   7.261  13.862 -0.2950 -0.3666 -0.6241
 4743TIP3    H138424   0.441   7.328  13.799 -0.5901 -0.4178 -0.5605
 4743TIP3    H238425   0.551   7.229  13.829 -0.2514 -0.1097 -0.7674
 4744TIP3   OH238426   0.860   0.432  12.101 -0.1160  0.1816  0.0089
 4744TIP3    H138427   0.812   0.351  12.117 -0.1515  0.0631 -0.6773
 4744TIP3    H238428   0.899   0.454  12.186  0.9204 -1.2326 -0.0561
 4745TIP3   OH238429   2.026   2.390  13.531 -0.2486 -0.1762 -0.0413
 4745TIP3    H138430   1.940   2.408  13.568  0.5089  1.5835  0.9948
 4745TIP3    H238431   2.066   2.477  13.520  1.8015 -0.9890  0.5408
 4746TIP3   OH238432   3.076   0.072  13.011 -0.5313  0.2568  0.1251
 4746TIP3    H138433   3.094   0.087  12.918 -0.8373 -1.1236 -0.1828
 4746TIP3    H238434   2.984   0.047  13.013 -0.3751 -0.2940  0.7268
 4747TIP3   OH238435   1.785   5.228  11.741 -0.3214 -0.4696 -0.1186
 4747TIP3    H138436   1.711   5.273  11.702  0.0442  0.6751  0.4759
 4747TIP3    H238437   1.747   5.147  11.776 -1.0097 -0.5760 -1.0696
 4748TIP3   OH238438   6.057   3.095  11.919  0.2394  0.4808  0.3828
 4748TIP3    H138439   5.964   3.116  11.927  0.4742  1.0736  1.8759
 4748TIP3    H238440   6.066   3.056  11.832 -1.4350  0.2507  0.2906
 4749TIP3   OH238441   0.810   4.134  12.026 -0.3734  0.2330 -0.8064
 4749TIP3    H138442   0.760   4.214  12.015  1.0506  1.7425  2.3072
 4749TIP3    H238443   0.901   4.160  12.012  0.0463 -1.0908 -0.7221
 4750TIP3   OH238444   4.123   5.017  12.270  0.4662 -0.2053 -0.2157
 4750TIP3    H138445   4.201   5.061  12.236 -0.3604  0.8717 -0.7981
 4750TIP3    H238446   4.124   4.930  12.229  2.0320 -0.7110  0.8153
 4751TIP3   OH238447   0.264   5.846  11.717 -0.2448  0.0072 -0.3782
 4751TIP3    H138448   0.312   5.867  11.798 -1.5043  1.5607  0.0205
 4751TIP3    H238449   0.267   5.927  11.666  0.3108 -0.8783 -1.8090
 4752TIP3   OH238450   5.290   4.464  12.658 -0.1557 -0.0664 -0.0519
 4752TIP3    H138451   5.218   4.523  12.634 -0.5052  0.8858  2.9622
 4752TIP3    H238452   5.248   4.380  12.672 -0.4289  0.1124  0.2129
 4753TIP3   OH238453   2.375   1.743  13.416 -0.2022  0.2110  0.0811
 4753TIP3    H138454   2.293   1.713  13.454  0.1121  0.2679  0.8069
 4753TIP3    H238455   2.378   1.837  13.435 -1.5259  0.9525 -2.7945
 4754TIP3   OH238456   5.098   4.444  11.249 -0.6481 -0.4089  0.4382
 4754TIP3    H138457   5.010   4.450  11.287 -0.1791 -0.6631  1.5824
 4754TIP3    H238458   5.082   4.427  11.156 -1.8765  2.7291 -0.0710
 4755TIP3   OH238459   6.455   3.252  12.372 -0.3296 -0.2117 -0.1625
 4755TIP3    H138460   6.424   3.258  12.462  1.7108  0.9258  0.5292
 4755TIP3    H238461   6.524   3.319  12.365 -0.1491 -0.5337 -2.4510
 4756TIP3   OH238462   7.023   2.962  11.548  0.2550  0.8115  0.1895
 4756TIP3    H138463   6.968   2.962  11.470 -0.0272 -0.6412  0.3593
 4756TIP3    H238464   6.983   3.027  11.606 -0.2960  0.9664 -0.3508
 4757TIP3   OH238465   6.868   6.911  13.244 -0.0368  0.4586 -0.5009
 4757TIP3    H138466   6.918   6.935  13.166  1.3689  0.6781  0.4314
 4757TIP3    H238467   6.846   6.819  13.230  0.7214  0.3230 -0.9015
 4758TIP3   OH238468   1.917   0.636  12.293  0.6333 -0.1614 -0.2581
 4758TIP3    H138469   1.937   0.650  12.385 -0.9597 -1.3174  0.3044
 4758TIP3    H238470   1.840   0.579  12.293 -1.5857  2.5731 -2.2645
 4759TIP3   OH238471   5.713   2.516  13.467  0.4153  0.8503 -0.1502
 4759TIP3    H138472   5.642   2.540  13.408  0.0949 -1.2146 -0.6842
 4759TIP3    H238473   5.747   2.600  13.500 -2.7688  1.8812  0.8057
 4760TIP3   OH238474   3.777   7.058  11.992  0.2532 -0.5578  0.3880
 4760TIP3    H138475   3.868   7.085  12.001 -0.1292  1.1848 -0.4990
 4760TIP3    H238476   3.735   7.129  11.943 -1.6739 -1.1019  1.1196
 4761TIP3   OH238477   3.850   7.259  13.184  0.0908  0.4392  0.3069
 4761TIP3    H138478   3.923   7.223  13.133 -0.2708  0.1665 -0.0286
 4761TIP3    H238479   3.781   7.272  13.119 -0.6887 -0.7548  0.8699
 4762TIP3   OH238480   5.709   4.633  11.408  0.3472 -0.4391  0.1768
 4762TIP3    H138481   5.796   4.595  11.412  0.6635  0.1943 -0.4740
 4762TIP3    H238482   5.721   4.716  11.362 -0.5008 -0.0623  0.6122
 4763TIP3   OH238483   2.838   2.263  12.193 -0.0605 -0.8525 -0.1799
 4763TIP3    H138484   2.746   2.252  12.217  0.0835 -3.0099 -0.3605
 4763TIP3    H238485   2.853   2.196  12.127  1.4480  0.0196 -0.7646
 4764TIP3   OH238486   6.122   1.333  13.428 -0.0330 -0.4445  0.1009
 4764TIP3    H138487   6.184   1.311  13.359  0.6647  0.6574  0.3523
 4764TIP3    H238488   6.036   1.315  13.389  0.4133 -2.1424 -0.1881
 4765TIP3   OH238489   3.574   6.321  13.128  0.0590  0.2230 -0.1251
 4765TIP3    H138490   3.544   6.408  13.101  0.3723  0.4975  0.3877
 4765TIP3    H238491   3.516   6.260  13.082 -1.1624  0.7322  0.6784
 4766TIP3   OH238492   7.481   1.139  11.030 -0.3218  0.8399  0.1593
 4766TIP3    H138493   7.515   1.100  10.950  1.5759  0.6276  1.0212
 4766TIP3    H238494   7.393   1.169  11.006 -0.4330 -0.6561 -1.5307
 4767TIP3   OH238495   2.743   1.333  12.440  0.2906 -0.3364  0.2004
 4767TIP3    H138496   2.811   1.307  12.502  0.8482  1.1132  0.2312
 4767TIP3    H238497   2.764   1.424  12.418 -1.0439 -0.1942 -0.5874
 4768TIP3   OH238498   1.043   0.329  13.287  0.0031  0.6853  0.4717
 4768TIP3    H138499   1.137   0.315  13.285 -0.0497  0.3696 -0.2034
 4768TIP3    H238500   1.032   0.417  13.323  0.6921  1.7561 -1.7350
 4769TIP3   OH238501   5.616   4.382  11.299  0.0985 -0.4225 -0.0586
 4769TIP3    H138502   5.630   4.468  11.338 -2.2924  0.6927 -1.4892
 4769TIP3    H238503   5.626   4.396  11.204  0.0167 -1.7994 -0.2980
 4770TIP3   OH238504   3.947   3.744  12.796 -0.3476  0.0586 -0.1026
 4770TIP3    H138505   3.924   3.697  12.876  1.7209  0.9312  1.0831
 4770TIP3    H238506   3.908   3.831  12.807  0.6827  0.4671  0.3865
 4771TIP3   OH238507   6.555   6.276  11.939 -0.1266 -0.2470 -0.7203
 4771TIP3    H138508   6.577   6.229  12.019  0.1690 -1.1238 -1.3060
 4771TIP3    H238509   6.461   6.296  11.948  0.1312  0.5899  0.3021
 4772TIP3   OH238510   4.903   4.547  12.175 -0.0939 -0.5296  0.2808
 4772TIP3    H138511   4.957   4.553  12.096 -1.0410 -0.3940 -0.3777
 4772TIP3    H238512   4.914   4.456  12.204 -0.1140 -0.7210 -0.2869
 4773TIP3   OH238513   3.258   3.768  11.819  0.4847  0.7310 -0.4357
 4773TIP3    H138514   3.196   3.829  11.780 -1.0457 -0.1318  0.5441
 4773TIP3    H238515   3.341   3.816  11.822  0.2228  1.4768 -2.9345
 4774TIP3   OH238516   6.711   7.496  11.067  0.6955 -0.0913 -0.1848
 4774TIP3    H138517   6.715   7.400  11.065 -0.1676 -0.1436  0.3899
 4774TIP3    H238518   6.688   7.521  10.978  0.3860 -0.4423 -0.2025
 4775TIP3   OH238519   6.442   0.624  13.266 -0.2261  0.1384  0.3006
 4775TIP3    H138520   6.409   0.602  13.353  0.9961 -0.6964  0.5817
 4775TIP3    H238521   6.537   0.632  13.278 -0.0876  0.4296 -0.8753
 4776TIP3   OH238522   2.508   5.679  12.370 -0.2545  0.4574 -0.0583
 4776TIP3    H138523   2.445   5.682  12.298  2.9043  1.9798 -3.0591
 4776TIP3    H238524   2.552   5.764  12.367  1.3313 -0.1500  2.5021
 4777TIP3   OH238525   3.764   3.053  12.746  0.4643  0.2163  0.2886
 4777TIP3    H138526   3.732   2.968  12.716  0.1602  0.0190  1.1351
 4777TIP3    H238527   3.830   3.032  12.813 -0.1974  0.6346  1.0958
 4778TIP3   OH238528   1.190   1.293  11.774  0.3966  0.2460 -0.0200
 4778TIP3    H138529   1.281   1.294  11.805  0.9305 -1.4948 -1.3461
 4778TIP3    H238530   1.197   1.306  11.679 -0.4560 -2.6258 -0.5584
 4779TIP3   OH238531   0.004   5.137  12.716 -0.5285  0.5878 -0.6368
 4779TIP3    H138532  -0.047   5.137  12.798  0.6116 -1.1882  0.1480
 4779TIP3    H238533   0.085   5.183  12.739  0.1656 -0.6716 -0.4661
 4780TIP3   OH238534   5.426   5.597  11.792 -0.1107  0.2776  0.4416
 4780TIP3    H138535   5.428   5.548  11.875 -1.8340  1.0177  0.9625
 4780TIP3    H238536   5.512   5.639  11.788  0.7127 -1.2873  0.8943
 4781TIP3   OH238537   1.063   6.143  11.938 -0.0327  0.2297 -0.5996
 4781TIP3    H138538   1.114   6.165  12.016 -0.4821 -0.5467 -0.0749
 4781TIP3    H238539   1.064   6.223  11.885 -0.2878  0.9807  0.5105
 4782TIP3   OH238540   0.269   2.069  11.501 -0.3294  0.0524  0.1999
 4782TIP3    H138541   0.327   2.022  11.441 -1.4635 -0.2026 -0.7232
 4782TIP3    H238542   0.216   2.125  11.444 -1.0357  0.2367  1.0278
 4783TIP3   OH238543   7.531   0.572  13.468 -0.5443  0.4501  0.2773
 4783TIP3    H138544   7.603   0.582  13.531  0.0227 -0.2741 -0.2340
 4783TIP3    H238545   7.511   0.479  13.469 -1.4726  0.6367  0.3848
 4784TIP3   OH238546   5.470   5.690  13.141 -0.1293 -0.3320  0.1099
 4784TIP3    H138547   5.437   5.646  13.219  0.6833 -0.3986  0.4251
 4784TIP3    H238548   5.395   5.741  13.109 -0.2759  0.2733  1.3490
 4785TIP3   OH238549   6.371   5.590  11.324 -0.2222  0.3671  0.8248
 4785TIP3    H138550   6.421   5.635  11.255 -0.9265  1.1962  0.8376
 4785TIP3    H238551   6.400   5.630  11.405 -0.3158  0.2766  0.9032
 4786TIP3   OH238552   3.852   5.053  13.452 -0.2804  0.0030  0.2130
 4786TIP3    H138553   3.828   5.007  13.532 -1.5693 -0.5859 -0.4894
 4786TIP3    H238554   3.924   5.111  13.479  0.0247 -0.9350  1.5499
 4787TIP3   OH238555   0.776   1.895  12.609 -0.6276  0.0777 -0.0966
 4787TIP3    H138556   0.840   1.851  12.666  0.3594  2.2868  0.6015
 4787TIP3    H238557   0.691   1.876  12.649 -0.3370 -1.7406 -0.2403
 4788TIP3   OH238558   2.225   7.599  11.476  0.1965  0.0911 -0.2038
 4788TIP3    H138559   2.212   7.504  11.486 -1.9424  0.4801  1.5735
 4788TIP3    H238560   2.168   7.622  11.402  0.1414  0.0880 -0.1623
 4789TIP3   OH238561   0.254   0.537  12.275 -1.2578  0.1687 -0.1718
 4789TIP3    H138562   0.199   0.604  12.234 -1.3380 -0.1928 -0.6686
 4789TIP3    H238563   0.208   0.455  12.259 -0.9605 -0.0516  0.0832
 4790TIP3   OH238564   1.827   5.725  11.098 -0.1917  0.6337  0.2609
 4790TIP3    H138565   1.810   5.633  11.118 -0.6405  0.7444  0.3952
 4790TIP3    H238566   1.830   5.729  11.003  1.4698  0.1900  0.2723
 4791TIP3   OH238567   5.632   7.209  12.118  0.1809 -0.2158  1.2756
 4791TIP3    H138568   5.580   7.202  12.198 -0.3718  1.1433  1.0641
 4791TIP3    H238569   5.630   7.303  12.096  0.2234 -0.5599 -0.3755
 4792TIP3   OH238570   2.826   7.275  12.578  0.0654 -0.6182  0.9527
 4792TIP3    H138571   2.904   7.322  12.548  0.8282 -2.2586  0.2818
 4792TIP3    H238572   2.757   7.305  12.519  0.8331 -1.3001 -0.3289
 4793TIP3   OH238573   3.391   5.800  12.157  0.3876 -0.0817  0.3412
 4793TIP3    H138574   3.444   5.845  12.223  0.1312  0.3745  0.2430
 4793TIP3    H238575   3.335   5.869  12.121  0.9433 -0.2018 -0.7855
 4794TIP3   OH238576   7.576   7.344  10.989  0.8038  0.5360 -0.1460
 4794TIP3    H138577   7.600   7.254  10.970  0.5844  0.6799 -1.1370
 4794TIP3    H238578   7.514   7.368  10.920  1.0522  1.5236 -0.0413
 4795TIP3   OH238579   0.500   0.743  11.718 -0.2088 -0.3004  0.0854
 4795TIP3    H138580   0.480   0.808  11.785  2.1894 -1.0571  1.6937
 4795TIP3    H238581   0.479   0.659  11.758 -1.0824 -0.6767 -1.0945
 4796TIP3   OH238582   5.418   7.063  12.666  0.0306 -0.6753 -0.4356
 4796TIP3    H138583   5.467   7.068  12.584 -0.7559  0.2587 -0.8749
 4796TIP3    H238584   5.442   7.143  12.713 -0.6292 -0.4897 -0.4063
 4797TIP3   OH238585   7.512   1.607  13.198 -0.2050  0.1631  0.3436
 4797TIP3    H138586   7.573   1.557  13.143  0.6702 -0.1335  1.5231
 4797TIP3    H238587   7.493   1.686  13.149  2.1771  0.8762  0.4728
 4798TIP3   OH238588   4.794   6.236  11.946 -0.3705 -0.0187  0.7104
 4798TIP3    H138589   4.827   6.319  11.912  0.2176 -0.3927  0.3568
 4798TIP3    H238590   4.739   6.261  12.020  0.1160  0.6613  0.8520
 4799TIP3   OH238591   4.747   5.662  13.799  0.0690  0.2969 -0.5692
 4799TIP3    H138592   4.833   5.702  13.789 -0.0127  0.6534  0.0927
 4799TIP3    H238593   4.688   5.736  13.813 -0.3150  0.0409 -0.8190
 4800TIP3   OH238594   7.654   2.436  12.515  0.0395 -0.6229 -1.1857
 4800TIP3    H138595   7.631   2.522  12.550 -0.7990 -1.7154  1.1463
 4800TIP3    H238596   7.739   2.449  12.473  0.7772  0.9950  0.6607
 4801TIP3   OH238597   6.662   2.074  13.763  0.3186 -0.5037 -0.3313
 4801TIP3    H138598   6.571   2.065  13.791  0.4362 -0.4702  0.0626
 4801TIP3    H238599   6.672   2.168  13.745  0.6272 -0.2819  0.8727
 4802TIP3   OH238600   4.781   5.252  12.903 -0.0127 -0.2411 -0.1850
 4802TIP3    H138601   4.813   5.199  12.830 -0.4646  0.2197 -0.7223
 4802TIP3    H238602   4.702   5.206  12.933 -0.9306  0.5824 -1.2386
 4803TIP3   OH238603   3.144   5.420  13.614  0.2664  0.0142  0.4077
 4803TIP3    H138604   3.228   5.464  13.626  0.1492  1.0068 -1.7602
 4803TIP3    H238605   3.110   5.457  13.532 -1.4470 -1.6808  0.2849
 4804TIP3   OH238606   0.704   6.669  13.180 -0.0781  0.2332 -0.5162
 4804TIP3    H138607   0.611   6.691  13.174 -0.4958 -1.2509  0.1178
 4804TIP3    H238608   0.720   6.612  13.106 -0.6373 -2.5484  1.3410
 4805TIP3   OH238609   2.933   4.385  12.875 -0.4325 -0.7318  0.2896
 4805TIP3    H138610   2.847   4.394  12.916 -1.8234 -1.2865 -2.2446
 4805TIP3    H238611   2.940   4.291  12.853  1.3725 -0.9263  1.4788
 4806TIP3   OH238612   2.521   0.602  12.527  0.0631 -0.2214 -0.4485
 4806TIP3    H138613   2.449   0.660  12.551  0.2342  1.5085 -3.5564
 4806TIP3    H238614   2.488   0.553  12.451  1.0720 -1.8487  0.1051
 4807TIP3   OH238615   0.496   3.713  13.468 -0.1989 -0.6178  0.1633
 4807TIP3    H138616   0.527   3.722  13.378 -2.5567  1.5059 -0.5661
 4807TIP3    H238617   0.561   3.761  13.520 -0.7927  1.5396 -0.9725
 4808TIP3   OH238618   2.228   6.915  12.088  0.3910  1.4031  0.3495
 4808TIP3    H138619   2.302   6.963  12.051 -0.3198  3.1808  1.0970
 4808TIP3    H238620   2.235   6.931  12.183 -0.2115  0.5077  0.5536
 4809TIP3   OH238621   1.727   3.914  10.978 -0.2451 -0.0358  0.0879
 4809TIP3    H138622   1.809   3.936  11.023 -0.6115  0.8495  0.3355
 4809TIP3    H238623   1.660   3.916  11.046 -0.3351 -1.8851  0.1170
 4810TIP3   OH238624   5.310   0.555  11.100 -0.0669  0.6864  0.2600
 4810TIP3    H138625   5.216   0.548  11.080 -0.7278  1.0125  2.9541
 4810TIP3    H238626   5.330   0.474  11.146  0.2053  1.8924  2.3626
 4811TIP3   OH238627   1.868   4.473  11.389  0.1983  0.3567  0.8336
 4811TIP3    H138628   1.947   4.428  11.360 -1.4231 -1.1595 -1.6120
 4811TIP3    H238629   1.849   4.535  11.319  0.4637  2.4894  2.5318
 4812TIP3   OH238630   2.119   7.567  12.375  0.1271  0.0981  0.2647
 4812TIP3    H138631   2.092   7.608  12.458 -3.0762  1.1373 -1.1393
 4812TIP3    H238632   2.154   7.640  12.323  0.5503 -0.2293  0.0900
 4813TIP3   OH238633   6.807   2.578  13.504 -0.3240  0.1133  0.2346
 4813TIP3    H138634   6.847   2.664  13.517  1.1279 -0.5359  0.3356
 4813TIP3    H238635   6.796   2.571  13.409  1.7750 -0.4857 -0.0125
 4814TIP3   OH238636   7.206   6.466  12.466  0.8652  0.0268  0.3769
 4814TIP3    H138637   7.202   6.499  12.377 -0.8749 -3.2746 -0.9270
 4814TIP3    H238638   7.290   6.421  12.472 -0.0391 -1.8686 -0.5133
 4815TIP3   OH238639   5.053   3.867  11.133  0.3728  0.0599  0.3180
 4815TIP3    H138640   5.085   3.785  11.171 -0.4973 -0.2281  0.4300
 4815TIP3    H238641   5.004   3.908  11.203 -0.3477  0.0266 -0.1640
 4816TIP3   OH238642   7.091   7.644  12.923  0.0021  0.5857  0.2406
 4816TIP3    H138643   7.025   7.674  12.986 -1.1829  1.8662 -1.5240
 4816TIP3    H238644   7.084   7.705  12.850  1.6299 -0.5927 -0.9707
 4817TIP3   OH238645   4.450   5.922  12.714  0.3443  0.5236  0.9397
 4817TIP3    H138646   4.512   5.980  12.670  0.5322  0.8813  1.6619
 4817TIP3    H238647   4.504   5.849  12.746  0.0049 -0.4430 -0.5882
 4818TIP3   OH238648   6.741   7.196  11.071 -0.0520  0.0637 -0.2348
 4818TIP3    H138649   6.693   7.126  11.116 -1.1499  0.1969 -1.1551
 4818TIP3    H238650   6.771   7.155  10.990 -2.1324  1.0462 -1.5844
 4819TIP3   OH238651   1.910   3.837  13.531  0.4012 -0.4924 -0.5751
 4819TIP3    H138652   1.987   3.826  13.587  0.1450 -0.8867 -0.2946
 4819TIP3    H238653   1.836   3.814  13.588 -0.0457  1.1458 -0.4435
 4820TIP3   OH238654   1.434   0.102  13.460 -0.7099  0.1191 -0.2139
 4820TIP3    H138655   1.470   0.026  13.506  0.1919 -0.1533 -1.3140
 4820TIP3    H238656   1.459   0.176  13.515 -0.0827 -0.2351 -0.0080
 4821TIP3   OH238657   1.999   6.171  12.639  0.4417  0.1101  0.0443
 4821TIP3    H138658   2.052   6.091  12.651  0.2985 -0.0831 -0.6038
 4821TIP3    H238659   2.063   6.242  12.636  0.6867 -0.1394 -0.9023
 4822TIP3   OH238660   1.828   4.509  11.869  0.1472 -1.3465 -0.4981
 4822TIP3    H138661   1.819   4.429  11.817 -2.5189 -1.1186 -0.4807
 4822TIP3    H238662   1.777   4.575  11.822  2.2421  0.4136 -0.4874
 4823TIP3   OH238663   3.035   6.741  11.596  0.6840 -0.3748  0.1196
 4823TIP3    H138664   3.059   6.798  11.669  0.6275  0.2006 -0.3038
 4823TIP3    H238665   2.970   6.682  11.632  0.8020 -0.2225  0.5876
 4824TIP3   OH238666   6.542   7.181  11.949 -0.0892 -0.0411  0.0376
 4824TIP3    H138667   6.513   7.207  12.037  1.2225  1.1496  0.1490
 4824TIP3    H238668   6.629   7.144  11.962  1.0373  2.1009 -0.9661
 4825TIP3   OH238669   6.387   1.476  12.787  0.0662 -0.4639 -0.2738
 4825TIP3    H138670   6.463   1.466  12.844  0.5615 -0.2596 -0.8751
 4825TIP3    H238671   6.340   1.551  12.822  1.1069  0.5201 -0.9217
 4826TIP3   OH238672   1.079   2.697  13.397  0.1148  0.1666  0.3053
 4826TIP3    H138673   1.168   2.686  13.364 -0.3424 -0.6587 -0.6648
 4826TIP3    H238674   1.090   2.699  13.492  0.9742 -2.0950  0.3236
 4827TIP3   OH238675   1.581   5.002  12.050 -0.1651 -0.5610 -0.2682
 4827TIP3    H138676   1.640   4.928  12.061  0.5464 -0.1744 -1.3311
 4827TIP3    H238677   1.567   5.008  11.955 -1.2980 -0.1676 -0.0912
 4828TIP3   OH238678   7.471   5.712  11.929  0.2744 -0.4225 -0.2280
 4828TIP3    H138679   7.389   5.677  11.965  1.3937 -2.7241  0.2512
 4828TIP3    H238680   7.535   5.702  12.000  1.2451  0.2742 -0.9748
 4829TIP3   OH238681   3.848   3.628  13.370 -0.0835  0.1450  0.2512
 4829TIP3    H138682   3.913   3.665  13.310 -0.3559  1.0245  0.4824
 4829TIP3    H238683   3.770   3.615  13.316  0.1236 -0.4426  0.0873
 4830TIP3   OH238684   3.460   3.705  12.052 -0.3651  0.0516  0.7280
 4830TIP3    H138685   3.520   3.746  12.115 -2.6029  0.4742  2.6882
 4830TIP3    H238686   3.428   3.778  11.999  2.7402 -0.4681 -2.2392
 4831TIP3   OH238687   2.621   2.489  12.812 -0.4129 -0.0081  0.4202
 4831TIP3    H138688   2.551   2.461  12.753  0.0756 -0.3210 -0.0167
 4831TIP3    H238689   2.698   2.498  12.756 -0.3613  1.4619  0.6918
 4832TIP3   OH238690   7.245   6.482  11.806 -0.4410  0.4370 -0.1373
 4832TIP3    H138691   7.325   6.536  11.810  0.6922 -1.2280  1.0620
 4832TIP3    H238692   7.234   6.462  11.713 -1.1132  2.9588 -0.6787
 4833TIP3   OH238693   1.608   5.005  11.273 -0.3860 -0.1482 -0.4636
 4833TIP3    H138694   1.549   5.011  11.348  1.1651 -0.6209  0.8347
 4833TIP3    H238695   1.565   5.058  11.205 -1.6604  0.5666  0.8436
 4834TIP3   OH238696   1.168   1.792  11.774 -0.3089 -0.1205  0.6772
 4834TIP3    H138697   1.217   1.714  11.799 -0.9962 -0.6702  0.3503
 4834TIP3    H238698   1.095   1.758  11.722 -0.9342  0.6948  1.0154
 4835TIP3   OH238699   4.688   1.955  13.227  1.0499 -0.0939 -0.1795
 4835TIP3    H138700   4.736   1.999  13.156  2.2973 -0.6019  0.3330
 4835TIP3    H238701   4.751   1.950  13.299 -0.1140  0.1642  0.8879
 4836TIP3   OH238702   5.821   2.786  12.428  0.0995 -0.3076 -0.2843
 4836TIP3    H138703   5.860   2.703  12.458  1.0647  0.2496  0.0413
 4836TIP3    H238704   5.890   2.827  12.376 -0.2798  0.4216 -0.2126
 4837TIP3   OH238705   5.202   1.365  13.265 -0.3190 -0.6778  0.0549
 4837TIP3    H138706   5.251   1.346  13.344 -0.3467  0.1123  0.2764
 4837TIP3    H238707   5.142   1.291  13.254 -2.4991  0.5678  2.4882
 4838TIP3   OH238708   0.424   2.233  11.691  0.0636 -0.4104 -0.6410
 4838TIP3    H138709   0.404   2.234  11.784 -0.2510  0.6656 -0.7052
 4838TIP3    H238710   0.366   2.167  11.655  0.1109 -0.7584 -0.0873
 4839TIP3   OH238711   6.295   1.430  10.918  0.2880  0.0838  0.4258
 4839TIP3    H138712   6.322   1.465  10.833 -1.8133 -2.2866 -1.3927
 4839TIP3    H238713   6.354   1.357  10.934  0.9471  0.7815  1.2634
 4840TIP3   OH238714   5.748   3.738  12.332 -0.6041 -0.3802 -0.7609
 4840TIP3    H138715   5.731   3.744  12.426 -2.9560  0.7409 -1.1834
 4840TIP3    H238716   5.843   3.743  12.324 -0.4659  2.1569  1.3978
 4841TIP3   OH238717   0.611   3.180  13.561  1.0259  0.8612  0.1173
 4841TIP3    H138718   0.557   3.189  13.640 -1.3161 -2.3266 -0.9063
 4841TIP3    H238719   0.560   3.223  13.493  0.0026 -1.4777 -0.6985
 4842TIP3   OH238720   5.758   0.143  13.819  0.1477 -1.0766 -0.3853
 4842TIP3    H138721   5.746   0.238  13.810 -1.4140 -1.4064 -2.4201
 4842TIP3    H238722   5.701   0.118  13.892  2.8950 -0.1276  2.2989
 4843TIP3   OH238723   4.552   3.383  13.110 -0.3087 -0.1571 -0.0309
 4843TIP3    H138724   4.565   3.437  13.032  1.7117  3.3510  2.4441
 4843TIP3    H238725   4.503   3.439  13.170 -0.7238 -2.2584  1.7086
 4844TIP3   OH238726   3.775   5.235  12.768  0.0631 -0.2773 -0.0375
 4844TIP3    H138727   3.811   5.274  12.688 -1.5721  2.8398  0.6085
 4844TIP3    H238728   3.738   5.152  12.739 -0.3369  0.6591 -2.5262
 4845TIP3   OH238729   0.369   3.964  11.941  0.2397  0.3802  0.0137
 4845TIP3    H138730   0.384   4.039  11.883 -0.2295  0.2358 -0.2986
 4845TIP3    H238731   0.354   4.002  12.027 -0.9347  0.6992 -0.3212
 4846TIP3   OH238732   1.467   6.657  11.579 -0.2097  0.0739  0.2183
 4846TIP3    H138733   1.551   6.702  11.589  0.3556 -0.7635 -0.5449
 4846TIP3    H238734   1.469   6.588  11.645  0.0894 -0.4843 -0.3600
 4847TIP3   OH238735   4.248   4.466  12.904 -0.2745  0.3765 -0.2653
 4847TIP3    H138736   4.254   4.374  12.877  0.1848  0.3316 -0.0126
 4847TIP3    H238737   4.154   4.482  12.913 -0.3265 -0.9166  2.5500
 4848TIP3   OH238738   0.938   2.972  12.218 -0.4406  0.5284 -0.7228
 4848TIP3    H138739   0.869   2.911  12.244  1.5439 -0.8808  1.7278
 4848TIP3    H238740   0.970   2.938  12.134 -0.7943 -0.5412 -0.4406
 4849TIP3   OH238741   5.639   0.125  13.518 -0.4467 -0.8716 -0.0260
 4849TIP3    H138742   5.591   0.060  13.465 -3.0316  1.1337 -0.3223
 4849TIP3    H238743   5.591   0.128  13.601 -0.5620  0.7990 -0.1244
 4850TIP3   OH238744   4.156   7.543  13.031  0.3331 -0.2400 -0.0968
 4850TIP3    H138745   4.148   7.638  13.038  0.8683 -0.2198  0.2745
 4850TIP3    H238746   4.079   7.517  12.980  0.4808  0.4506 -0.7038
 4851TIP3   OH238747   4.457   3.604  13.594 -0.4268  0.0734 -0.0719
 4851TIP3    H138748   4.389   3.664  13.622 -0.6273  0.2231 -0.8549
 4851TIP3    H238749   4.413   3.519  13.588 -1.7595  0.8122 -4.6394
 4852TIP3   OH238750   6.447   2.353  12.943 -0.7564  0.0685 -0.2947
 4852TIP3    H138751   6.475   2.443  12.930 -0.6862  0.1690  0.4842
 4852TIP3    H238752   6.381   2.358  13.012 -1.1657 -0.4127 -0.6426
 4853TIP3   OH238753   0.007   6.835  12.724 -0.1747 -0.3907 -0.3948
 4853TIP3    H138754   0.060   6.869  12.652  1.6556 -2.0750  0.0531
 4853TIP3    H238755   0.025   6.895  12.796 -1.8106  1.1499 -1.2059
 4854TIP3   OH238756   6.348   0.951  12.069  0.2830  0.3140 -0.0058
 4854TIP3    H138757   6.330   0.950  11.976 -0.0462  0.4379  0.0544
 4854TIP3    H238758   6.389   0.867  12.087  2.5574  1.1818 -0.6895
 4855TIP3   OH238759   3.472   6.254  11.749 -0.0190  0.0650  0.9407
 4855TIP3    H138760   3.426   6.261  11.833  1.3365 -0.9354  1.8228
 4855TIP3    H238761   3.564   6.247  11.774  0.6409  1.9248 -0.7391
 4856TIP3   OH238762   0.668   6.741  10.916  0.0711  0.0361 -0.6693
 4856TIP3    H138763   0.752   6.775  10.887  0.2155 -0.2880 -0.6335
 4856TIP3    H238764   0.689   6.680  10.987 -0.2832  0.9047  0.2045
 4857TIP3   OH238765   4.169   7.005  11.507  0.1853 -0.4392 -0.1779
 4857TIP3    H138766   4.252   7.000  11.459  0.4448 -1.4376  0.3528
 4857TIP3    H238767   4.135   6.915  11.506 -1.2520  0.0728 -0.9906
 4858TIP3   OH238768   3.389   2.451  12.821  0.2167 -0.8267 -0.7396
 4858TIP3    H138769   3.388   2.470  12.914  1.3686 -1.3091 -0.6089
 4858TIP3    H238770   3.332   2.517  12.782  0.4233 -0.0648  0.2074
 4859TIP3   OH238771   4.798   3.742  12.985  0.0013  0.9350 -0.7310
 4859TIP3    H138772   4.812   3.739  13.079  1.1777  0.7096 -0.8957
 4859TIP3    H238773   4.737   3.814  12.972  0.2728  1.3358  0.1475
 4860TIP3   OH238774   0.980   2.661  11.670 -0.2924 -0.6043  0.5454
 4860TIP3    H138775   1.020   2.731  11.618  0.2078 -2.9184 -2.4689
 4860TIP3    H238776   1.046   2.642  11.738  0.5697  0.3048 -0.0014
 4861TIP3   OH238777   3.512   5.457  11.317 -0.2905  0.9370  0.2056
 4861TIP3    H138778   3.586   5.461  11.378  0.4803  5.1879 -0.6946
 4861TIP3    H238779   3.537   5.389  11.254  1.4566  0.2631  1.5339
 4862TIP3   OH238780   5.074   5.017  12.553  0.9026 -0.9947  0.5211
 4862TIP3    H138781   5.091   4.989  12.643 -0.3595  0.5276  1.2840
 4862TIP3    H238782   5.149   5.073  12.531  1.1460 -1.2537  0.6878
 4863TIP3   OH238783   3.950   6.953  12.779 -0.5805  0.0936  0.1583
 4863TIP3    H138784   3.915   6.967  12.691 -0.7789  1.6081  0.4512
 4863TIP3    H238785   3.962   7.041  12.815  3.5343 -0.2495  0.0879
 4864TIP3   OH238786   3.102   4.953  13.389  0.5708  0.3351  0.1698
 4864TIP3    H138787   3.160   5.028  13.403  1.4259 -0.3154  0.1890
 4864TIP3    H238788   3.020   4.978  13.433  1.2324  0.7825  1.1841
 4865TIP3   OH238789   4.856   4.573  11.282 -0.0889 -0.4494 -0.4148
 4865TIP3    H138790   4.853   4.668  11.275 -1.4500 -0.3786  0.6675
 4865TIP3    H238791   4.791   4.542  11.219  1.0180 -0.7389 -1.4523
 4866TIP3   OH238792   3.614   3.516  11.924 -0.0567  1.0844  0.1378
 4866TIP3    H138793   3.575   3.589  11.972 -2.1869 -0.3950  0.8561
 4866TIP3    H238794   3.590   3.439  11.976 -0.1061 -0.3402 -1.8806
 4867TIP3   OH238795   6.333   0.896  11.798 -0.1711  0.1904 -0.3855
 4867TIP3    H138796   6.420   0.912  11.760  0.3236 -0.5968  0.3686
 4867TIP3    H238797   6.272   0.922  11.729  0.6933 -1.0934 -1.7220
 4868TIP3   OH238798   3.610   7.321  12.124 -0.7163  0.0009  0.3651
 4868TIP3    H138799   3.561   7.403  12.117 -1.1803 -0.3348 -0.4066
 4868TIP3    H238800   3.545   7.253  12.108 -0.4877 -0.5650  1.7200
 4869TIP3   OH238801   2.158   1.343  11.475  0.5948  0.1332 -0.3979
 4869TIP3    H138802   2.185   1.264  11.521  2.0090  0.3950 -0.7354
 4869TIP3    H238803   2.217   1.349  11.400 -1.4794 -0.1641 -2.1719
 4870TIP3   OH238804   5.801   5.628  11.195  0.2244 -0.7178  0.2728
 4870TIP3    H138805   5.890   5.611  11.164  0.0445 -1.3971  0.1169
 4870TIP3    H238806   5.745   5.574  11.139 -0.2188 -0.8899  0.8742
 4871TIP3   OH238807   5.245   0.512  12.270  0.0608  0.5415 -0.1224
 4871TIP3    H138808   5.150   0.505  12.269  0.1656 -1.4794  0.4025
 4871TIP3    H238809   5.273   0.475  12.186  0.3835  1.4146 -0.4094
 4872TIP3   OH238810   1.870   4.930  12.497 -0.0779 -0.0017 -0.1641
 4872TIP3    H138811   1.871   4.847  12.544  1.0442  0.1883  0.1932
 4872TIP3    H238812   1.928   4.916  12.422  0.0964  0.4420 -0.1182
 4873TIP3   OH238813   2.349   5.068  11.879 -0.6043 -0.5701 -0.1216
 4873TIP3    H138814   2.356   5.059  11.784 -0.2946 -0.4667 -0.1096
 4873TIP3    H238815   2.310   4.986  11.908 -2.0609 -0.0197 -0.4857
 4874TIP3   OH238816   2.007   3.089  11.884 -0.1808 -0.2304 -0.0630
 4874TIP3    H138817   2.098   3.083  11.855 -0.0183 -0.3310  0.4592
 4874TIP3    H238818   2.011   3.077  11.979 -0.7073  0.0593  0.0011
 4875TIP3   OH238819   1.976   1.386  13.569  0.2698 -0.1734 -0.0992
 4875TIP3    H138820   1.942   1.397  13.480  0.7016  2.2366 -0.0561
 4875TIP3    H238821   1.945   1.301  13.597 -2.0190  0.0771 -1.6364
 4876TIP3   OH238822   0.815   3.874  11.428  0.3991 -0.5171 -0.6388
 4876TIP3    H138823   0.863   3.937  11.374  1.9111 -1.8752 -0.9823
 4876TIP3    H238824   0.795   3.802  11.368  1.4701 -1.7375  0.4009
 4877TIP3   OH238825   4.749   1.465  11.952  0.3148 -0.4112  0.2146
 4877TIP3    H138826   4.782   1.401  11.889 -2.7825 -3.2678  1.1888
 4877TIP3    H238827   4.792   1.441  12.034 -0.4335 -0.9601  0.4619
 4878TIP3   OH238828   7.379   2.366  11.381  0.2907 -0.1204 -0.0528
 4878TIP3    H138829   7.403   2.436  11.442 -1.2352  0.4869 -0.1102
 4878TIP3    H238830   7.440   2.376  11.308  1.3350 -0.0793  0.7888
 4879TIP3   OH238831   1.637   3.805  12.722 -0.0867 -0.0799  0.3943
 4879TIP3    H138832   1.723   3.845  12.711  0.8232 -2.2026 -0.8524
 4879TIP3    H238833   1.590   3.864  12.782  1.9074  1.5756  0.4248
 4880TIP3   OH238834   5.029   0.988  11.390 -0.1753 -0.4235 -0.4326
 4880TIP3    H138835   5.009   0.903  11.352  1.4349 -1.0516  0.0521
 4880TIP3    H238836   4.945   1.019  11.424 -0.6215 -2.2710  0.2730
 4881TIP3   OH238837   7.448   0.371  12.575 -0.3057  0.4823 -0.3099
 4881TIP3    H138838   7.446   0.327  12.660  1.5001  0.9363 -0.0037
 4881TIP3    H238839   7.392   0.448  12.588 -3.4335 -1.5244 -0.8305
 4882TIP3   OH238840   4.088   1.181  12.810 -1.2313  0.0115  0.1192
 4882TIP3    H138841   4.106   1.196  12.717  1.8299  0.0157  0.6193
 4882TIP3    H238842   3.993   1.169  12.814 -1.5758  0.8996 -2.8593
 4883TIP3   OH238843   6.885   1.419  12.049 -0.3723  0.3964  0.1385
 4883TIP3    H138844   6.847   1.444  11.964  0.7480  0.7320 -0.2805
 4883TIP3    H238845   6.871   1.496  12.104 -2.4077 -0.3372  0.7459
 4884TIP3   OH238846   0.596   5.707  11.062  0.4829  0.0329  0.3028
 4884TIP3    H138847   0.599   5.614  11.038  0.9684 -0.1662  1.0901
 4884TIP3    H238848   0.685   5.738  11.049  0.6206  0.0666  1.2297
 4885TIP3   OH238849   3.759   5.643  12.854  0.4184 -0.2000  0.2831
 4885TIP3    H138850   3.770   5.711  12.920  2.6130 -0.1101 -0.1067
 4885TIP3    H238851   3.718   5.570  12.901  1.2724  0.1308  1.5833
 4886TIP3   OH238852   3.998   5.659  13.168  0.0217  0.0008 -0.3368
 4886TIP3    H138853   3.974   5.708  13.246 -1.4033 -1.7201  0.3621
 4886TIP3    H238854   4.005   5.725  13.099 -1.1593  1.2614  0.7125
 4887TIP3   OH238855   3.987   6.240  11.888  0.2980  0.1154 -0.3856
 4887TIP3    H138856   3.997   6.180  11.962  0.7243 -0.8972 -1.2402
 4887TIP3    H238857   4.068   6.292  11.888  0.2268  0.2335 -0.0587
 4888TIP3   OH238858   4.309   7.169  12.309 -0.1874 -0.2503 -0.3081
 4888TIP3    H138859   4.405   7.178  12.305 -0.0262 -1.8426 -0.8477
 4888TIP3    H238860   4.292   7.142  12.399 -0.4274  2.5073  0.5568
 4889TIP3   OH238861   0.710   7.065  10.968 -0.2475  0.1861 -0.1665
 4889TIP3    H138862   0.689   7.000  11.034 -2.8016 -0.4455 -1.4810
 4889TIP3    H238863   0.772   7.020  10.909  2.3966  0.9000  1.8604
 4890TIP3   OH238864   0.724   2.832  12.679  0.0936 -0.6426  0.1316
 4890TIP3    H138865   0.805   2.816  12.631 -0.4253 -1.7533 -0.4397
 4890TIP3    H238866   0.706   2.925  12.667  0.0897 -0.8381 -1.7125
 4891TIP3   OH238867   6.978   3.478  11.501  0.1884 -0.0156  0.2195
 4891TIP3    H138868   6.898   3.505  11.547 -0.7303 -2.1782  0.0293
 4891TIP3    H238869   7.016   3.559  11.469 -0.8212  1.2724  2.0857
 4892TIP3   OH238870   6.478   4.789  11.591  0.2938 -0.6109 -0.1866
 4892TIP3    H138871   6.499   4.782  11.684 -0.7862 -0.9558  0.0377
 4892TIP3    H238872   6.564   4.786  11.547  0.8726  0.4118  0.8278
 4893TIP3   OH238873   2.458   3.868  11.985 -0.2516 -0.3266  0.1540
 4893TIP3    H138874   2.446   3.839  12.075 -1.5115 -1.2849 -0.2873
 4893TIP3    H238875   2.375   3.910  11.961 -0.5712 -1.5447 -1.0498
 4894TIP3   OH238876   0.424   7.006  12.204 -0.5993  0.3676  0.0551
 4894TIP3    H138877   0.331   7.007  12.179 -0.5896  0.3247  0.0158
 4894TIP3    H238878   0.470   7.037  12.126 -0.6333  1.1058  0.3210
 4895TIP3   OH238879   0.806   7.594  12.475 -0.2637 -0.0723  0.0940
 4895TIP3    H138880   0.846   7.542  12.546  2.1584  1.4364 -0.0619
 4895TIP3    H238881   0.873   7.657  12.451 -2.3299  1.7791 -1.1811
 4896TIP3   OH238882   5.126   6.744  12.806 -0.0230  0.6759 -0.1718
 4896TIP3    H138883   5.152   6.703  12.723 -0.9689  1.9673 -1.1569
 4896TIP3    H238884   5.045   6.701  12.830  0.5753 -0.1320  0.4278
 4897TIP3   OH238885   1.323   1.681  11.185 -0.2945  0.2490 -0.5814
 4897TIP3    H138886   1.241   1.718  11.218 -0.1506 -0.8579  1.1777
 4897TIP3    H238887   1.335   1.600  11.235  1.7319  0.2290 -0.9912
 4898TIP3   OH238888   5.055   0.114  12.317 -0.0989 -0.3218  0.3023
 4898TIP3    H138889   4.969   0.154  12.306 -0.0434 -0.3260 -0.1704
 4898TIP3    H238890   5.092   0.112  12.228  0.3488 -0.4040  0.4891
 4899TIP3   OH238891   2.477   6.010  11.871 -0.0346  0.5009  0.5136
 4899TIP3    H138892   2.393   6.003  11.826  0.2115  1.2820 -0.0805
 4899TIP3    H238893   2.529   6.069  11.816  1.5788 -1.4354 -0.1662
 4900TIP3   OH238894   6.674   3.679  11.162 -0.3514  0.0502 -0.0090
 4900TIP3    H138895   6.663   3.585  11.148 -0.9410 -0.1600  1.5961
 4900TIP3    H238896   6.762   3.698  11.129 -0.6458 -0.8287 -1.3614
 4901TIP3   OH238897   7.641   1.160  12.841 -0.3778 -0.9522  0.7946
 4901TIP3    H138898   7.655   1.112  12.922 -1.0005 -2.5748 -0.0120
 4901TIP3    H238899   7.550   1.189  12.846 -0.0344  0.0776  1.2320
 4902TIP3   OH238900   4.772   6.967  13.178 -0.0436 -0.3469 -0.2744
 4902TIP3    H138901   4.733   6.990  13.093  0.8455 -0.4375 -0.7249
 4902TIP3    H238902   4.861   7.003  13.174  0.9109 -2.5758 -0.4410
 4903TIP3   OH238903   1.420   0.644  12.971  0.0159 -0.7752  0.8011
 4903TIP3    H138904   1.326   0.626  12.971 -0.2023  0.2974  0.7279
 4903TIP3    H238905   1.452   0.608  12.889 -0.4847 -0.4311  0.4525
 4904TIP3   OH238906   6.909   5.042  11.295  0.2844 -0.3266  0.4884
 4904TIP3    H138907   6.864   5.019  11.214  1.5838 -0.5722 -0.1759
 4904TIP3    H238908   6.844   5.092  11.345 -0.3940  0.1795 -0.8645
 4905TIP3   OH238909   5.608   2.361  13.060 -0.5640 -0.3937 -0.1432
 4905TIP3    H138910   5.667   2.288  13.042  0.7173  0.8469 -1.2016
 4905TIP3    H238911   5.630   2.427  12.994 -2.2069  0.6590  0.2936
 4906TIP3   OH238912   5.678   1.306  13.623  0.8270  0.3747  0.0320
 4906TIP3    H138913   5.654   1.387  13.578  1.8312  0.9012  0.4181
 4906TIP3    H238914   5.677   1.239  13.554  1.6209  1.0258 -0.6347
 4907TIP3   OH238915   4.967   2.206  13.294 -0.2460  0.3203 -0.4545
 4907TIP3    H138916   5.007   2.198  13.381 -0.5813  1.6111 -0.1674
 4907TIP3    H238917   4.893   2.265  13.306 -1.5598 -1.0874 -1.2232
 4908TIP3   OH238918   4.612   2.969  11.387 -0.0589 -0.3670  0.0309
 4908TIP3    H138919   4.650   2.900  11.442  0.3359 -1.0388 -1.0342
 4908TIP3    H238920   4.528   2.989  11.428  0.3662 -0.6202  1.0457
 4909TIP3   OH238921   7.419   4.109  12.734 -0.2453 -0.9112 -0.3299
 4909TIP3    H138922   7.338   4.089  12.780  0.1721 -1.5516  0.1360
 4909TIP3    H238923   7.403   4.080  12.644 -0.7172 -0.5445 -0.3676
 4910TIP3   OH238924   0.188   6.658  11.781 -0.1037  0.1932  0.2202
 4910TIP3    H138925   0.193   6.632  11.873  1.7204 -0.3696 -0.0097
 4910TIP3    H238926   0.248   6.732  11.773 -1.0629  0.9427 -0.3162
 4911TIP3   OH238927   1.042   7.106  11.861  1.0164 -0.3712 -0.1733
 4911TIP3    H138928   1.053   7.149  11.776  0.9142  0.3362  0.1647
 4911TIP3    H238929   1.055   7.176  11.925  1.9613 -1.0604  0.4255
 4912TIP3   OH238930   2.191   1.953  13.489 -0.2532  0.2142 -0.0355
 4912TIP3    H138931   2.178   1.944  13.584 -2.4820  0.9076 -0.2044
 4912TIP3    H238932   2.103   1.941  13.453  0.2331  1.7769 -1.8606
 4913TIP3   OH238933   7.572   2.599  13.495 -0.0414 -0.0253 -0.4594
 4913TIP3    H138934   7.579   2.536  13.566  0.5618 -0.3767 -0.8302
 4913TIP3    H238935   7.503   2.564  13.438  0.2653 -0.3326 -0.6434
 4914TIP3   OH238936   6.115   6.289  11.566 -0.0492 -0.3488 -0.2360
 4914TIP3    H138937   6.041   6.326  11.517  0.0470 -0.6545 -0.6119
 4914TIP3    H238938   6.087   6.293  11.657 -0.2931  0.0795 -0.3276
 4915TIP3   OH238939   5.401   3.447  13.374 -0.4471  0.2693 -0.0382
 4915TIP3    H138940   5.482   3.474  13.329 -0.1964 -0.5696 -0.0989
 4915TIP3    H238941   5.354   3.395  13.309 -0.5469 -0.1184  0.3430
 4916TIP3   OH238942   1.830   4.810  13.615  0.1136  0.0804  0.4987
 4916TIP3    H138943   1.813   4.901  13.592 -2.4746 -0.9484 -2.5317
 4916TIP3    H238944   1.925   4.803  13.620  0.4110  2.7301 -0.2005
 4917TIP3   OH238945   3.498   1.579  11.948 -0.3724  0.1830 -0.0113
 4917TIP3    H138946   3.588   1.592  11.978  0.2129 -0.3064 -1.4362
 4917TIP3    H238947   3.462   1.512  12.006  0.1841  0.3821  0.5722
 4918TIP3   OH238948   7.136   6.741  11.660 -0.1381 -0.9462  0.0365
 4918TIP3    H138949   7.095   6.742  11.747 -1.2911 -0.1660 -0.4931
 4918TIP3    H238950   7.213   6.798  11.671 -1.6406  1.2221 -0.0368
 4919TIP3   OH238951   2.202   1.535  13.593  0.0651 -0.2179  0.0675
 4919TIP3    H138952   2.116   1.496  13.576 -0.5991  1.0737  0.3807
 4919TIP3    H238953   2.183   1.620  13.633  1.4661  0.7468 -1.2214
 4920TIP3   OH238954   0.079   4.468  13.063  0.2903 -0.0701 -0.2075
 4920TIP3    H138955   0.027   4.396  13.098  0.8022 -0.7771 -0.8792
 4920TIP3    H238956   0.132   4.429  12.994  0.9357  0.8517 -0.2597
 4921TIP3   OH238957   0.135   2.478  13.019  0.0934  0.6687 -0.1449
 4921TIP3    H138958   0.046   2.454  12.994  0.2332 -0.1743  0.1337
 4921TIP3    H238959   0.125   2.522  13.104  0.0623 -0.7613  0.6246
 4922TIP3   OH238960   3.389   2.867  11.881 -0.0886  0.5082 -0.2310
 4922TIP3    H138961   3.390   2.858  11.786 -0.8106  1.2651 -0.3236
 4922TIP3    H238962   3.449   2.939  11.899  1.8748 -1.1086  0.1072
 4923TIP3   OH238963   5.828   1.073  12.640  0.0297  0.4682  0.0590
 4923TIP3    H138964   5.833   1.113  12.553 -2.6657  0.2362 -0.3002
 4923TIP3    H238965   5.872   0.989  12.630 -1.5538 -0.2433 -1.6050
 4924TIP3   OH238966   5.652   4.208  11.491 -0.0496  0.5487  0.8582
 4924TIP3    H138967   5.606   4.132  11.454 -0.4907  1.1031  0.2484
 4924TIP3    H238968   5.639   4.278  11.426  0.1730  1.2039  1.5092
 4925TIP3   OH238969   3.067   6.360  11.957 -0.3505  0.1331  0.3607
 4925TIP3    H138970   3.128   6.428  11.929 -1.2881  1.1103  0.6190
 4925TIP3    H238971   3.054   6.305  11.880 -0.4154  0.8816 -0.1666
 4926TIP3   OH238972   4.934   3.998  11.338  0.1214 -0.2842 -0.2272
 4926TIP3    H138973   4.921   4.087  11.306  0.2131  0.1637  0.9498
 4926TIP3    H238974   4.847   3.959  11.338  0.1142 -0.2837 -0.9666
 4927TIP3   OH238975   4.925   2.744  11.806 -0.4482  0.3011 -0.8716
 4927TIP3    H138976   4.910   2.813  11.871  0.8217 -0.3708  0.1720
 4927TIP3    H238977   4.854   2.681  11.821 -0.8985  0.7754 -0.9998
 4928TIP3   OH238978   1.233   6.788  12.612  0.9276  0.3218 -0.3609
 4928TIP3    H138979   1.219   6.838  12.531 -1.5015  1.0407  0.4277
 4928TIP3    H238980   1.190   6.704  12.596 -0.0136  0.6561  0.3278
 4929TIP3   OH238981   3.953   5.386  11.993  0.1612 -1.0297 -0.1461
 4929TIP3    H138982   3.961   5.332  12.072  0.2383  0.3360  0.8032
 4929TIP3    H238983   4.015   5.458  12.007 -2.6007  1.3895  0.3680
 4930TIP3   OH238984   1.570   1.117  12.869 -0.0102  0.5354  0.6333
 4930TIP3    H138985   1.497   1.131  12.809 -0.6471  0.2233  1.3272
 4930TIP3    H238986   1.583   1.203  12.910  1.3116  1.1256 -0.8863
 4931TIP3   OH238987   0.387   1.831  13.551  0.3740  0.1681  0.3672
 4931TIP3    H138988   0.404   1.758  13.491  1.0888  1.5319 -1.1893
 4931TIP3    H238989   0.331   1.794  13.619 -4.1856 -0.6889 -3.2923
 4932TIP3   OH238990   6.949   1.858  12.751  0.0086  0.1109  0.0652
 4932TIP3    H138991   6.882   1.909  12.796 -2.7149 -1.6022 -1.7620
 4932TIP3    H238992   6.925   1.863  12.658  0.2163 -3.5232 -0.2970
 4933TIP3   OH238993   3.839   6.189  13.069  0.1923 -0.1641 -0.0519
 4933TIP3    H138994   3.906   6.241  13.025 -1.2057  0.5001 -1.4869
 4933TIP3    H238995   3.758   6.238  13.057 -0.4219 -0.3642  2.6402
 4934TIP3   OH238996   1.252   4.258  12.658  0.3247 -0.1586  0.3563
 4934TIP3    H138997   1.307   4.302  12.723 -0.4193  1.9537 -0.3940
 4934TIP3    H238998   1.163   4.269  12.690  0.0286 -0.0421 -0.4864
 4935TIP3   OH238999   5.607   2.015  13.430 -0.0118 -0.2922  0.0204
 4935TIP3    H139000   5.604   1.927  13.467  1.6486 -0.6205 -0.5461
 4935TIP3    H239001   5.670   2.062  13.485 -0.6499  0.4622  0.1275
 4936TIP3   OH239002   2.318   4.243  12.634  0.0054 -0.1179 -0.6721
 4936TIP3    H139003   2.403   4.254  12.678  0.6505 -1.8072 -1.3889
 4936TIP3    H239004   2.334   4.273  12.545 -0.2534 -0.0896 -0.7086
 4937TIP3   OH239005   5.800   4.446  13.061 -0.1028  0.2649 -0.3026
 4937TIP3    H139006   5.760   4.533  13.060 -1.1225  0.0112  3.3315
 4937TIP3    H239007   5.730   4.387  13.033 -0.0067  0.4358 -0.9124
 4938TIP3   OH239008   2.478   0.538  11.481 -0.0588 -0.6031 -0.2629
 4938TIP3    H139009   2.427   0.482  11.422  1.0437 -0.2581 -1.5995
 4938TIP3    H239010   2.569   0.524  11.455  0.2514  1.9096 -0.7920
 4939TIP3   OH239011   1.097   6.236  12.409 -0.2156 -0.4420 -0.0918
 4939TIP3    H139012   1.057   6.318  12.381  2.3004  1.4308  1.3529
 4939TIP3    H239013   1.147   6.206  12.333 -3.0400 -2.0777 -1.4458
 4940TIP3   OH239014   7.197   1.809  12.904  0.5254  0.7206  0.0008
 4940TIP3    H139015   7.105   1.818  12.880  0.2970 -0.6332  0.3071
 4940TIP3    H239016   7.196   1.764  12.988  1.4414  1.7321  0.5792
 4941TIP3   OH239017   1.242   0.880  12.368  0.0375  0.1800  0.4346
 4941TIP3    H139018   1.181   0.884  12.294 -1.6935 -2.1236  1.6173
 4941TIP3    H239019   1.225   0.960  12.417  1.8947  2.2630 -1.9849
 4942TIP3   OH239020   0.257   6.803  13.852 -0.1349  0.4608 -0.2280
 4942TIP3    H139021   0.184   6.753  13.887 -0.3972  0.3270 -0.9456
 4942TIP3    H239022   0.224   6.893  13.847  0.5962  0.8845  1.7989
 4943TIP3   OH239023   3.149   0.445  12.492  0.3673  0.0435 -0.5691
 4943TIP3    H139024   3.126   0.512  12.556 -3.2741 -0.9004 -0.6576
 4943TIP3    H239025   3.216   0.486  12.437 -0.7331  3.1432  0.1688
 4944TIP3   OH239026   0.623   3.297  11.471 -0.3076  0.2240  0.0815
 4944TIP3    H139027   0.598   3.387  11.452 -0.2256  0.1631 -0.3080
 4944TIP3    H239028   0.708   3.305  11.516 -1.6304  0.5255  2.7017
 4945TIP3   OH239029   3.095   0.227  12.312 -0.0976  0.0970 -0.1028
 4945TIP3    H139030   3.002   0.210  12.327 -0.2427 -0.2169 -1.2883
 4945TIP3    H239031   3.120   0.288  12.382 -1.1111 -0.0631  0.4130
 4946TIP3   OH239032   2.259   7.332  10.965  0.4658  0.4501 -0.0636
 4946TIP3    H139033   2.344   7.350  10.925  1.3540 -0.8321  1.1419
 4946TIP3    H239034   2.256   7.236  10.972 -0.3535  0.5633  1.4244
 4947TIP3   OH239035   5.185   3.636  12.533  0.4337  0.0911  0.3247
 4947TIP3    H139036   5.279   3.652  12.526  0.6587 -1.7058 -2.0386
 4947TIP3    H239037   5.178   3.553  12.580  0.0337  0.2060  0.4724
 4948TIP3   OH239038   4.576   5.919  13.358  0.3646 -0.3704  0.2047
 4948TIP3    H139039   4.500   5.947  13.307  0.8652 -0.4871 -0.6223
 4948TIP3    H239040   4.616   6.001  13.389  0.2714 -0.2865  0.1010
 4949TIP3   OH239041   3.682   4.954  12.700  0.5375  0.0774  0.3428
 4949TIP3    H139042   3.718   4.966  12.613  1.6123 -0.5813  0.6748
 4949TIP3    H239043   3.758   4.930  12.754 -0.3620 -1.1245  1.1155
 4950TIP3   OH239044   0.076   2.226  11.358  0.1205  0.1845  0.7683
 4950TIP3    H139045   0.116   2.255  11.276 -1.1646  0.5575  0.2419
 4950TIP3    H239046   0.029   2.304  11.390 -2.4484 -0.9010 -0.0764
 4951TIP3   OH239047   7.173   5.457  13.621 -0.1075 -0.2251  0.2805
 4951TIP3    H139048   7.261   5.478  13.589  0.4157  2.5090  2.9935
 4951TIP3    H239049   7.186   5.387  13.684  0.2598  0.5989  1.1372
 4952TIP3   OH239050   7.073   2.132  11.750 -0.1270  0.0599  0.0684
 4952TIP3    H139051   7.098   2.043  11.726 -0.2283  0.2643 -0.8223
 4952TIP3    H239052   7.012   2.160  11.682 -0.0728  0.8249  0.3159
 4953TIP3   OH239053   1.178   5.181  11.041 -0.0779  0.6983 -0.5827
 4953TIP3    H139054   1.188   5.272  11.070  1.8236  0.1220  0.7914
 4953TIP3    H239055   1.230   5.174  10.962  2.4211  0.1583  0.9879
 4954TIP3   OH239056   2.934   1.820  12.273  0.3954  0.8125  0.6715
 4954TIP3    H139057   2.989   1.898  12.276 -0.5196  1.4501  1.6371
 4954TIP3    H239058   2.994   1.748  12.256  1.2379  1.7385 -0.4743
 4955TIP3   OH239059   1.417   2.149  13.437 -0.1600 -0.5519 -0.0098
 4955TIP3    H139060   1.439   2.056  13.433  1.4385 -0.2575  1.1683
 4955TIP3    H239061   1.486   2.193  13.388  1.0726  0.2603  2.3147
 4956TIP3   OH239062   0.287   6.157  11.620  0.1784  0.5006 -0.3048
 4956TIP3    H139063   0.244   6.149  11.705  0.5983 -2.0671 -0.2604
 4956TIP3    H239064   0.223   6.203  11.565 -0.5214  1.2517  1.0873
 4957TIP3   OH239065   1.227   7.536  12.305  0.4310 -0.2812 -0.0413
 4957TIP3    H139066   1.309   7.576  12.333  0.2901 -0.6853  0.9744
 4957TIP3    H239067   1.170   7.540  12.382  0.0612 -1.4645 -0.2380
 4958TIP3   OH239068   3.303   6.003  11.806  0.4133 -0.0985  0.1905
 4958TIP3    H139069   3.266   5.958  11.729  0.6515  1.8925 -1.1543
 4958TIP3    H239070   3.393   5.972  11.811  0.0898 -1.0463  0.3285
 4959TIP3   OH239071   0.693   3.036  11.273 -0.0703 -0.0900 -0.3413
 4959TIP3    H139072   0.673   2.945  11.249  0.5147 -0.3650  0.1989
 4959TIP3    H239073   0.666   3.087  11.196 -0.9997 -0.6416 -0.4062
 4960TIP3   OH239074   6.899   1.401  13.416 -0.1697 -0.3842 -0.8553
 4960TIP3    H139075   6.936   1.327  13.464 -0.5572  0.6294  1.1447
 4960TIP3    H239076   6.912   1.476  13.474 -1.7682  0.7129 -1.8244
 4961TIP3   OH239077   4.851   0.430  11.021  0.0833  0.3928 -0.4548
 4961TIP3    H139078   4.815   0.342  11.029  0.7825  0.1749  0.3838
 4961TIP3    H239079   4.940   0.423  11.053  0.5629  1.1486 -1.5455
 4962TIP3   OH239080   1.892   2.838  13.528 -0.2163 -0.0757  0.2270
 4962TIP3    H139081   1.864   2.915  13.577  1.5784 -0.0287  1.3050
 4962TIP3    H239082   1.959   2.870  13.468  1.2093 -0.8508  1.3167
 4963TIP3   OH239083   7.585   4.081  11.183  0.3536 -0.3236  0.1851
 4963TIP3    H139084   7.545   4.047  11.103 -0.0050  0.5145 -0.0087
 4963TIP3    H239085   7.670   4.116  11.154 -0.3334  1.1728 -0.0971
 4964TIP3   OH239086   6.139   6.571  10.837  0.2812 -0.0843 -0.1625
 4964TIP3    H139087   6.088   6.506  10.788 -0.1511  1.2600 -1.5645
 4964TIP3    H239088   6.210   6.596  10.778  1.0453 -0.0025  0.7610
 4965TIP3   OH239089   0.723   0.045  13.680  0.1632 -0.5382 -0.0628
 4965TIP3    H139090   0.812   0.013  13.691  0.1967  0.1472  2.3501
 4965TIP3    H239091   0.671  -0.009  13.740 -0.3054  1.7127  1.6741
 4966TIP3   OH239092   4.843   4.076  13.153 -0.4719 -0.1675  0.0035
 4966TIP3    H139093   4.870   4.137  13.222  1.7020  0.4317 -1.2667
 4966TIP3    H239094   4.864   3.989  13.189  2.0204  0.2132 -0.3604
 4967TIP3   OH239095   7.648   3.215  12.583 -0.4805 -0.5162  0.6222
 4967TIP3    H139096   7.574   3.272  12.560  0.4067  0.3712 -0.1196
 4967TIP3    H239097   7.607   3.131  12.605 -1.6716 -0.2230 -0.3412
 4968TIP3   OH239098   3.394   0.157  11.339 -0.4626  0.6608 -0.1027
 4968TIP3    H139099   3.456   0.102  11.291 -1.1049 -0.0715 -0.1107
 4968TIP3    H239100   3.448   0.226  11.377  0.6426 -0.9034  1.2891
 4969TIP3   OH239101   2.296   7.443  13.677 -0.2074 -0.5790 -0.1774
 4969TIP3    H139102   2.387   7.445  13.708 -0.1964  0.0276 -0.2355
 4969TIP3    H239103   2.253   7.380  13.734  0.2514 -0.8778 -0.1526
 4970TIP3   OH239104   0.892   4.793  12.346 -0.2475 -0.4318 -0.1409
 4970TIP3    H139105   0.986   4.783  12.362 -0.1060  2.1303  1.2040
 4970TIP3    H239106   0.851   4.731  12.405  0.5856 -0.8550  0.0077
 4971TIP3   OH239107   4.112   3.501  12.729  0.4953  0.3575 -0.0077
 4971TIP3    H139108   4.153   3.569  12.782  0.0027  0.7464 -0.1181
 4971TIP3    H239109   4.114   3.423  12.784  1.9476  0.1924 -0.2450
 4972TIP3   OH239110   4.092   4.361  11.017  0.1555  0.3083  0.3182
 4972TIP3    H139111   4.025   4.400  10.961 -0.0673  0.4528  0.6796
 4972TIP3    H239112   4.050   4.353  11.103  0.9347  1.3933  0.8218
 4973TIP3   OH239113   2.669   4.469  11.754 -0.0141  0.0802 -0.0096
 4973TIP3    H139114   2.678   4.474  11.659 -3.0060 -2.2491 -0.5607
 4973TIP3    H239115   2.733   4.402  11.781 -0.6158 -0.7876 -0.7000
 4974TIP3   OH239116   1.673   4.706  11.741 -0.5037 -0.0452 -0.3191
 4974TIP3    H139117   1.659   4.674  11.651 -0.6351  1.1747 -0.7499
 4974TIP3    H239118   1.587   4.735  11.770 -0.5715 -0.9481  0.4291
 4975TIP3   OH239119   2.895   7.560  13.255 -0.6497  0.3416  0.1870
 4975TIP3    H139120   2.905   7.470  13.287  0.1407  0.3802  0.0808
 4975TIP3    H239121   2.944   7.612  13.319 -0.2321  0.5744 -0.3152
 4976TIP3   OH239122   2.514   4.720  12.435  0.1418  0.1045 -0.0618
 4976TIP3    H139123   2.483   4.663  12.364  1.7293 -2.2859  1.0252
 4976TIP3    H239124   2.606   4.735  12.414  0.0343  1.3501  0.3034
 4977TIP3   OH239125   5.368   1.722  11.739 -0.2383 -0.1003 -0.3157
 4977TIP3    H139126   5.408   1.709  11.825  1.2212 -0.3688 -0.9902
 4977TIP3    H239127   5.326   1.638  11.719 -1.0972  0.1570  0.3725
 4978TIP3   OH239128   4.235   3.500  13.151 -0.5349 -0.2778  0.0447
 4978TIP3    H139129   4.297   3.548  13.205 -1.9405  0.2738  1.2286
 4978TIP3    H239130   4.262   3.519  13.061  0.2165  1.0053  0.5202
 4979TIP3   OH239131   6.482   7.211  12.917  0.2491  0.5673 -0.2953
 4979TIP3    H139132   6.492   7.120  12.890  1.6581  1.2011 -2.1201
 4979TIP3    H239133   6.394   7.236  12.887  0.2586  0.1010 -0.7139
 4980TIP3   OH239134   3.833   5.440  13.406 -0.1411  0.4123  0.2968
 4980TIP3    H139135   3.904   5.377  13.413 -1.6054 -1.2195  1.4836
 4980TIP3    H239136   3.875   5.526  13.417  1.7961 -0.3638 -0.5714
 4981TIP3   OH239137   1.373   7.428  12.647  0.6396  0.6419 -0.4405
 4981TIP3    H139138   1.328   7.487  12.708  0.2068 -0.8367  0.7083
 4981TIP3    H239139   1.303   7.397  12.589  0.6826  0.4466 -0.3858
 4982TIP3   OH239140   6.980   6.727  12.261  0.7842 -0.1521  0.0650
 4982TIP3    H139141   6.940   6.814  12.271  1.8260  0.5766 -1.5776
 4982TIP3    H239142   6.908   6.666  12.274 -0.0522  0.9754  0.9184
 4983TIP3   OH239143   1.795   4.547  13.455 -0.1449 -0.4151 -0.1065
 4983TIP3    H139144   1.890   4.538  13.454 -0.1295 -0.3072 -1.6363
 4983TIP3    H239145   1.779   4.632  13.496  0.6252  1.1677 -2.8419
 4984TIP3   OH239146   1.606   6.676  12.108  0.0687 -0.1679  0.2282
 4984TIP3    H139147   1.570   6.731  12.038  1.1102  0.1204 -0.1125
 4984TIP3    H239148   1.541   6.678  12.177 -3.0925 -3.8345 -2.2281
 4985TIP3   OH239149   5.167   5.146  11.055  0.1815  0.5635  0.1841
 4985TIP3    H139150   5.156   5.180  10.966  0.8638  2.3309  0.7385
 4985TIP3    H239151   5.135   5.216  11.112  0.1533 -0.3665  1.3545
 4986TIP3   OH239152   4.625   4.646  13.327  0.1761 -0.2260  0.1429
 4986TIP3    H139153   4.660   4.683  13.408  0.8653 -3.7522  1.6635
 4986TIP3    H239154   4.534   4.675  13.325  0.1283 -0.0744  2.2527
 4987TIP3   OH239155   1.295   0.239  13.253 -0.9441  0.1290  0.7055
 4987TIP3    H139156   1.364   0.300  13.226 -1.0578  0.1834  0.5340
 4987TIP3    H239157   1.332   0.191  13.327 -0.0217 -1.1100 -0.4955
 4988TIP3   OH239158   4.538   0.299  12.695  0.4544  0.1243 -0.0409
 4988TIP3    H139159   4.562   0.380  12.739 -0.5424  0.6292 -0.3867
 4988TIP3    H239160   4.573   0.230  12.751  0.1482  0.7794  0.9863
 4989TIP3   OH239161   6.526   6.826  13.085  0.1720  0.0938  0.5110
 4989TIP3    H139162   6.554   6.886  13.016  0.2073  1.4797  1.6837
 4989TIP3    H239163   6.432   6.815  13.069  0.2364  0.1496  0.0677
 4990TIP3   OH239164   7.545   3.630  11.571 -0.2243  0.6446 -0.3642
 4990TIP3    H139165   7.516   3.720  11.586 -0.2574  0.9437 -2.0396
 4990TIP3    H239166   7.542   3.619  11.476  0.7040 -0.8228 -0.2620
 4991TIP3   OH239167   7.465   4.476  12.869  0.6237 -0.1747  0.2240
 4991TIP3    H139168   7.500   4.412  12.931 -0.4471 -4.4600 -3.1177
 4991TIP3    H239169   7.540   4.505  12.818  0.6749 -2.2131 -0.9623
 4992TIP3   OH239170   5.418   0.136  12.833 -0.4664  0.5311 -0.0046
 4992TIP3    H139171   5.323   0.130  12.823 -0.3517 -0.3455 -0.7116
 4992TIP3    H239172   5.444   0.212  12.782 -0.6152 -0.1793 -1.1603
 4993TIP3   OH239173   2.969   6.315  12.335  0.3707 -0.1139 -1.0723
 4993TIP3    H139174   3.053   6.315  12.381  0.9253  1.3961 -1.9909
 4993TIP3    H239175   2.903   6.322  12.404  0.9464 -1.7148 -0.3117
 4994TIP3   OH239176   5.273   3.613  11.135 -0.2771  0.2416  0.3966
 4994TIP3    H139177   5.247   3.644  11.049 -0.2815 -0.5402  0.1059
 4994TIP3    H239178   5.227   3.529  11.145  0.5959 -0.2211  0.6778
 4995TIP3   OH239179   5.158   3.148  13.703  0.0822 -0.0260 -0.3151
 4995TIP3    H139180   5.114   3.133  13.786  1.7097 -0.7464  0.4450
 4995TIP3    H239181   5.089   3.184  13.646 -1.2309 -0.2092  1.0952
 4996TIP3   OH239182   7.658   1.597  13.465 -0.1963  0.2318 -0.1335
 4996TIP3    H139183   7.575   1.593  13.512  0.2992 -1.4774  0.6723
 4996TIP3    H239184   7.633   1.616  13.375 -1.4218  0.2569  0.1907
 4997TIP3   OH239185   6.171   6.861  11.168  0.0005 -0.2874 -0.4235
 4997TIP3    H139186   6.199   6.941  11.124  1.0905 -0.7771 -0.6545
 4997TIP3    H239187   6.111   6.819  11.106 -0.2065  0.1137 -0.4991
 4998TIP3   OH239188   1.800   7.541  11.753 -0.7938 -0.3467 -0.3805
 4998TIP3    H139189   1.828   7.622  11.797 -2.0567  0.3069 -0.7037
 4998TIP3    H239190   1.866   7.526  11.686  0.8270 -1.0098  1.2749
 4999TIP3   OH239191   6.288   4.385  12.695 -0.4661  0.0387 -0.0766
 4999TIP3    H139192   6.201   4.355  12.668 -1.5569  2.3863  0.6218
 4999TIP3    H239193   6.341   4.380  12.615 -1.5160 -0.4136 -0.7638
 5000TIP3   OH239194   3.791   4.229  12.310  0.4508 -0.3797 -0.0799
 5000TIP3    H139195   3.739   4.160  12.268 -1.5007  0.8227  0.2128
 5000TIP3    H239196   3.835   4.184  12.383  0.7985 -1.6877 -1.0601
 5001TIP3   OH239197   4.460   7.144  11.796 -0.1220 -0.3275 -0.4904
 5001TIP3    H139198   4.415   7.187  11.869 -0.2675  0.3565 -0.9681
 5001TIP3    H239199   4.392   7.131  11.730 -0.1105 -1.4559 -0.2936
 5002TIP3   OH239200   2.300   0.314  13.229 -0.2335  0.1715 -0.2811
 5002TIP3    H139201   2.349   0.309  13.311  1.0918  0.7345 -1.0102
 5002TIP3    H239202   2.329   0.396  13.189 -3.1459  1.5315  0.0971
 5003TIP3   OH239203   2.103   3.710  13.781  0.5313 -1.1348  0.3408
 5003TIP3    H139204   2.102   3.724  13.876  1.3558 -1.3141  0.3815
 5003TIP3    H239205   2.037   3.642  13.766 -1.3827  0.5853  0.4820
 5004TIP3   OH239206   2.682   5.669  12.795  0.0288 -0.7371  0.5311
 5004TIP3    H139207   2.733   5.738  12.836  0.0916 -1.2313  1.2948
 5004TIP3    H239208   2.621   5.715  12.738  0.3069 -0.0712  0.7634
 5005TIP3   OH239209   2.949   6.840  13.076  0.3978 -0.2163 -0.1172
 5005TIP3    H139210   2.863   6.872  13.104  0.4233  0.1849 -0.4739
 5005TIP3    H239211   3.011   6.904  13.111  0.4123  0.4021 -1.2224
 5006TIP3   OH239212   6.358   2.871  11.936  0.1075  0.1573 -0.6229
 5006TIP3    H139213   6.376   2.956  11.975 -0.2389  0.3692 -0.9186
 5006TIP3    H239214   6.393   2.808  11.999  1.0824  0.5294 -0.7743
 5007TIP3   OH239215   6.748   5.871  12.133 -0.5932 -0.1938 -0.1861
 5007TIP3    H139216   6.764   5.816  12.209 -2.1285 -0.1239  0.2151
 5007TIP3    H239217   6.673   5.831  12.089 -1.4683  1.3097 -0.1239
 5008TIP3   OH239218   7.500   1.310  13.223 -0.1830  0.3559 -0.0978
 5008TIP3    H139219   7.564   1.338  13.289  0.6727  0.3003 -0.8863
 5008TIP3    H239220   7.430   1.374  13.229 -0.4808 -0.0600  1.3746
 5009TIP3   OH239221   0.461   0.920  11.937 -0.0201 -0.0533  0.0105
 5009TIP3    H139222   0.457   1.015  11.953 -2.5296 -0.6153  4.6494
 5009TIP3    H239223   0.370   0.892  11.938  0.6786 -2.5733 -1.0404
 5010TIP3   OH239224   5.033   0.645  10.965 -0.0860  0.6275  0.1692
 5010TIP3    H139225   4.937   0.654  10.958 -0.2132  0.3654  1.4288
 5010TIP3    H239226   5.066   0.734  10.954 -0.3575  0.5493 -1.6429
 5011TIP3   OH239227   1.606   1.433  13.428 -0.0933  0.1366 -1.0425
 5011TIP3    H139228   1.600   1.426  13.523 -2.1893  1.6779 -0.9799
 5011TIP3    H239229   1.697   1.413  13.408  0.0765 -1.6567  1.1098
 5012TIP3   OH239230   7.646   3.784  11.221 -0.6964 -0.2822  0.1452
 5012TIP3    H139231   7.618   3.790  11.130  1.7204 -1.9785 -0.7948
 5012TIP3    H239232   7.643   3.690  11.242  1.4525 -0.2451  0.8592
 5013TIP3   OH239233   6.717   0.228  11.393 -0.4495 -0.0592 -0.4695
 5013TIP3    H139234   6.626   0.221  11.423 -0.6420  1.0880 -0.7213
 5013TIP3    H239235   6.770   0.212  11.471 -0.9067  0.8801  0.0496
 5014TIP3   OH239236   1.448   4.794  11.846  0.1293  0.2221  0.2014
 5014TIP3    H139237   1.434   4.881  11.882 -0.7400  0.3899 -0.5172
 5014TIP3    H239238   1.488   4.744  11.918  1.1095  1.3430  0.4557
 5015TIP3   OH239239   4.665   6.084  12.637  0.5870  0.2826  0.6017
 5015TIP3    H139240   4.705   6.164  12.672  3.3776 -0.3414 -0.9006
 5015TIP3    H239241   4.649   6.103  12.545  0.1528 -0.5343  0.4965
 5016TIP3   OH239242   0.096   2.129  12.304 -0.4708 -0.3244 -0.7820
 5016TIP3    H139243   0.061   2.105  12.390 -0.3308 -2.6302 -1.3092
 5016TIP3    H239244   0.031   2.190  12.268 -0.5702  0.6231  0.8871
 5017TIP3   OH239245   2.132   0.241  11.394  0.5235 -0.7758  0.2516
 5017TIP3    H139246   2.105   0.301  11.464  2.5239  2.1284 -1.2220
 5017TIP3    H239247   2.051   0.200  11.365 -1.1918  1.9181  0.8477
 5018TIP3   OH239248   7.102   1.719  11.097 -0.1324 -0.4153 -0.2549
 5018TIP3    H139249   7.179   1.737  11.044  1.5840 -2.6914  1.2975
 5018TIP3    H239250   7.076   1.805  11.131  0.4874  0.6609 -2.3155
 5019TIP3   OH239251   3.793   6.015  13.553  0.5264  0.8062  0.6346
 5019TIP3    H139252   3.728   6.032  13.621  1.3106  0.4450  1.5015
 5019TIP3    H239253   3.872   5.989  13.601  1.0115  0.2374 -0.4267
 5020TIP3   OH239254   2.236   4.141  12.888  0.2471  0.0488 -0.1402
 5020TIP3    H139255   2.286   4.061  12.901 -1.5946 -0.9359  1.2945
 5020TIP3    H239256   2.241   4.158  12.794  1.1558 -1.4126 -0.3713
 5021TIP3   OH239257   1.004   4.099  11.327 -0.6133 -0.8613 -0.2675
 5021TIP3    H139258   1.010   4.159  11.253 -1.7061  0.5764  0.7383
 5021TIP3    H239259   1.016   4.155  11.404  0.7718 -2.3623  0.6555
 5022TIP3   OH239260   0.936   1.046  11.572  0.4204  0.5353  0.6428
 5022TIP3    H139261   0.960   1.133  11.540  1.5229 -0.2635 -0.8079
 5022TIP3    H239262   0.991   1.032  11.649  2.5753 -0.0993 -0.9504
 5023TIP3   OH239263   4.303   5.433  11.900 -0.4611 -0.0796  0.6637
 5023TIP3    H139264   4.283   5.508  11.845 -0.3427 -1.9234 -2.0623
 5023TIP3    H239265   4.395   5.446  11.925 -0.3449  0.5352 -0.0350
 5024TIP3   OH239266   5.362   0.025  13.449 -0.0996 -0.7660  0.0793
 5024TIP3    H139267   5.408  -0.057  13.469  0.7766 -0.6109 -1.2218
 5024TIP3    H239268   5.288   0.026  13.510  1.3848 -1.2193  1.9856
 5025TIP3   OH239269   0.161   4.380  10.586  0.1776 -0.0138 -0.0187
 5025TIP3    H139270   0.068   4.393  10.601  0.0020 -2.5942  1.8573
 5025TIP3    H239271   0.173   4.396  10.493 -2.1860  0.0500 -0.3708
 5026TIP3   OH239272   3.295   6.731  12.775 -0.2434 -0.3176  0.2740
 5026TIP3    H139273   3.312   6.762  12.686  0.7037  1.0802  0.9043
 5026TIP3    H239274   3.379   6.694  12.803 -0.7491 -1.4502  0.3322
 5027TIP3   OH239275   0.121   2.854  11.510  0.1143 -0.1924  0.1385
 5027TIP3    H139276   0.108   2.823  11.421 -0.2693  0.5608 -0.0714
 5027TIP3    H239277   0.154   2.943  11.501 -0.7759  0.2166  0.7461
 5028TIP3   OH239278   1.020   1.947  11.139 -0.3677 -0.4161  0.0818
 5028TIP3    H139279   1.025   1.960  11.044 -1.5012  2.2356  0.2956
 5028TIP3    H239280   1.079   2.013  11.175  0.7078 -1.9419  1.2749
 5029TIP3   OH239281   3.033   6.992  11.767 -0.0948  0.1528  0.1937
 5029TIP3    H139282   3.074   7.075  11.790  0.7146 -0.0432 -0.5129
 5029TIP3    H239283   2.939   7.009  11.773  0.0232  0.3655  2.7612
 5030TIP3   OH239284   0.374   2.643  13.811  0.2153  0.3319  0.0185
 5030TIP3    H139285   0.438   2.715  13.810  0.9149 -0.2066  1.7032
 5030TIP3    H239286   0.426   2.566  13.834 -0.7253 -0.5092 -0.6141
 5031TIP3   OH239287   3.614   1.259  12.635 -0.0717 -0.7402 -0.5275
 5031TIP3    H139288   3.562   1.264  12.554  2.2621  0.5244 -2.0569
 5031TIP3    H239289   3.556   1.292  12.703 -1.5414 -0.1661 -1.9898
 5032TIP3   OH239290   1.037   2.743  12.898  0.1412  0.2326 -0.5621
 5032TIP3    H139291   1.084   2.671  12.856 -3.2621 -1.6527 -1.5291
 5032TIP3    H239292   1.068   2.822  12.853  2.6543 -0.7604 -0.7336
 5033TIP3   OH239293   1.202   6.500  13.599 -0.7804  0.2891 -0.4459
 5033TIP3    H139294   1.254   6.559  13.653 -1.8187 -0.6539  1.7229
 5033TIP3    H239295   1.131   6.554  13.565 -0.6386  0.7069 -0.0862
 5034TIP3   OH239296   0.873   1.091  12.836  0.0315  0.4363  0.1810
 5034TIP3    H139297   0.882   1.142  12.755  0.1568  0.8012  0.4241
 5034TIP3    H239298   0.846   1.004  12.806  1.5831  0.1119 -0.3635
 5035TIP3   OH239299   0.116   3.958  12.460 -0.3264  0.2877  0.1214
 5035TIP3    H139300   0.061   3.935  12.534 -0.4849 -0.2260 -0.1546
 5035TIP3    H239301   0.068   3.928  12.383  0.9242 -1.3993 -0.0618
 5036TIP3   OH239302   1.961   1.020  13.008  0.1703 -0.6278 -0.0359
 5036TIP3    H139303   1.964   0.955  12.938  4.0453 -0.7315  0.0555
 5036TIP3    H239304   2.052   1.044  13.023 -0.8955  2.9286  1.7735
 5037TIP3   OH239305   5.650   2.855  11.190 -0.1943 -0.0756  0.5676
 5037TIP3    H139306   5.722   2.887  11.245  1.2453 -0.1662 -1.1778
 5037TIP3    H239307   5.666   2.894  11.104 -2.1111 -0.3032  0.0627
 5038TIP3   OH239308   5.109   7.009  11.248  0.0353 -0.0282  0.4678
 5038TIP3    H139309   5.057   7.061  11.309 -1.0964 -0.2192 -0.2935
 5038TIP3    H239310   5.046   6.978  11.183  1.4661  1.7751 -1.9438
 5039TIP3   OH239311   2.597   6.191  13.407  0.3699 -0.3293 -0.0920
 5039TIP3    H139312   2.596   6.266  13.348 -0.1171  1.5483  2.1556
 5039TIP3    H239313   2.511   6.151  13.398  0.3385 -0.1340 -0.6967
 5040TIP3   OH239314   7.367   4.419  12.497 -0.0219 -0.6344 -0.1059
 5040TIP3    H139315   7.436   4.486  12.495  0.7702 -1.4174  0.3640
 5040TIP3    H239316   7.331   4.425  12.586 -1.1316  0.3094 -0.5861
 5041TIP3   OH239317   2.503   7.055  11.721 -0.1233  0.1086  0.0647
 5041TIP3    H139318   2.429   7.030  11.666  0.7743 -1.9365 -0.3076
 5041TIP3    H239319   2.526   7.143  11.692 -1.7803  0.4098 -0.4605
 5042TIP3   OH239320   1.830   6.761  11.990 -0.1030 -0.2903  0.0171
 5042TIP3    H139321   1.807   6.852  11.972  0.7574 -0.3923 -1.7883
 5042TIP3    H239322   1.763   6.732  12.052 -0.9789  1.2677 -0.1283
 5043TIP3   OH239323   3.668   4.055  11.616 -0.1811 -0.4197  0.5372
 5043TIP3    H139324   3.717   4.108  11.553 -1.2262 -0.3254 -0.2116
 5043TIP3    H239325   3.681   3.965  11.587 -0.9783 -0.3521 -0.0633
 5044TIP3   OH239326   0.714   4.318  12.308  0.0606  0.2227  0.2349
 5044TIP3    H139327   0.627   4.357  12.303  0.6890  1.5809 -0.6429
 5044TIP3    H239328   0.699   4.230  12.344 -1.5800  0.6605  0.6904
 5045TIP3   OH239329   0.766   5.708  13.461 -0.2222 -0.1357 -0.2362
 5045TIP3    H139330   0.792   5.717  13.553  1.1332  0.4241 -0.6489
 5045TIP3    H239331   0.841   5.667  13.419 -1.7775 -2.7353 -0.6703
 5046TIP3   OH239332   6.337   1.882  11.182  0.2556 -0.2671  0.2522
 5046TIP3    H139333   6.422   1.893  11.224 -0.1274  0.0290  0.9660
 5046TIP3    H239334   6.301   1.970  11.177  0.3775 -0.2632 -0.9088
 5047TIP3   OH239335   1.843   1.281  12.398 -0.2102 -0.1509 -0.0255
 5047TIP3    H139336   1.927   1.320  12.422  0.8498 -2.6939  0.7585
 5047TIP3    H239337   1.791   1.283  12.478  0.2188 -1.1825  0.2912
 5048TIP3   OH239338   3.375   3.012  13.202 -0.1983  0.0936  0.2253
 5048TIP3    H139339   3.466   3.009  13.170 -0.4229  0.6898 -0.4806
 5048TIP3    H239340   3.383   3.001  13.297  0.7139  1.4227  0.3201
 5049TIP3   OH239341   1.430   5.990  11.708 -0.0491  0.1997 -0.2944
 5049TIP3    H139342   1.432   6.068  11.653 -0.5672  1.5645  1.5344
 5049TIP3    H239343   1.337   5.977  11.727 -0.0075 -1.1254 -0.8958
 5050TIP3   OH239344   4.618   4.479  13.618  0.7565  0.3293  0.2258
 5050TIP3    H139345   4.579   4.561  13.647 -2.2526 -0.5647 -0.8493
 5050TIP3    H239346   4.696   4.504  13.569  0.5656  2.4175  0.9110
 5051TIP3   OH239347   4.172   6.366  13.278  0.5416  0.0635 -0.1086
 5051TIP3    H139348   4.133   6.279  13.273  1.0074 -0.2006  0.7262
 5051TIP3    H239349   4.100   6.423  13.302  0.2535 -0.0996 -0.5686
 5052TIP3   OH239350   1.870   0.168  11.316  0.1698  0.6462 -0.1926
 5052TIP3    H139351   1.839   0.234  11.254  0.4585  1.8468  0.8913
 5052TIP3    H239352   1.790   0.140  11.362  0.3463  2.5483  1.4648
 5053TIP3   OH239353   5.086   1.058  12.140  0.1068 -0.2930 -0.4298
 5053TIP3    H139354   5.164   1.013  12.106  0.4846 -1.0585  1.3739
 5053TIP3    H239355   5.078   1.028  12.230  0.2882  3.1502  0.8696
 5054TIP3   OH239356   0.531   5.995  12.632  0.0114  0.1015 -0.0965
 5054TIP3    H139357   0.618   6.030  12.651 -1.0496  2.1655  1.4086
 5054TIP3    H239358   0.481   6.012  12.712 -2.5004  1.4546 -1.8509
 5055TIP3   OH239359   3.657   2.191  12.692  0.4706  0.2590 -0.4076
 5055TIP3    H139360   3.687   2.121  12.634 -1.4422 -0.1313 -0.9905
 5055TIP3    H239361   3.563   2.195  12.678  0.0109  0.5778  2.1947
 5056TIP3   OH239362   0.194   0.545  12.801 -0.3704 -0.1692  0.3095
 5056TIP3    H139363   0.137   0.620  12.783 -0.7277 -0.3796  0.5550
 5056TIP3    H239364   0.188   0.533  12.896  1.0722  0.5964  0.5212
 5057TIP3   OH239365   7.603   4.942  12.525  0.2710 -0.1594  0.2072
 5057TIP3    H139366   7.624   5.001  12.598  0.2581 -1.0178  0.9319
 5057TIP3    H239367   7.685   4.932  12.478  0.6857 -0.8457  1.0486
 5058TIP3   OH239368   3.646   2.983  13.169  0.3788  0.3591  0.3363
 5058TIP3    H139369   3.642   3.075  13.143 -1.6860  0.8083  2.0061
 5058TIP3    H239370   3.704   2.943  13.104 -0.0002  2.4886 -1.4617
 5059TIP3   OH239371   6.182   1.952  12.749  0.4083  0.1546 -0.1000
 5059TIP3    H139372   6.230   1.965  12.667 -1.5025  2.0631 -1.0230
 5059TIP3    H239373   6.249   1.960  12.817  1.7151  0.7794 -1.3961
 5060TIP3   OH239374   2.475   4.540  12.214 -0.4477  0.0056  0.5284
 5060TIP3    H139375   2.549   4.567  12.159 -0.6018 -0.2325  0.1963
 5060TIP3    H239376   2.431   4.473  12.162 -0.8545  0.0961  0.7555
 5061TIP3   OH239377   2.592   5.089  13.253  0.0755  0.2334 -0.0954
 5061TIP3    H139378   2.657   5.158  13.242  0.7001 -0.1891  0.8412
 5061TIP3    H239379   2.634   5.025  13.311 -0.1791 -1.3409 -1.5748
 5062TIP3   OH239380   6.792   5.249  12.578 -0.3230 -0.1544  0.0075
 5062TIP3    H139381   6.848   5.215  12.508 -0.5332 -3.1999  1.1711
 5062TIP3    H239382   6.767   5.172  12.629 -0.9458  1.7905  2.9231
 5063TIP3   OH239383   3.001   6.378  13.657 -0.1177  0.0146 -0.5057
 5063TIP3    H139384   2.985   6.297  13.609 -2.0504 -1.3882  2.2154
 5063TIP3    H239385   2.914   6.408  13.682  0.6828  1.8892  0.1769
 5064TIP3   OH239386   1.898   0.128  12.223 -0.3800 -0.4260 -0.0400
 5064TIP3    H139387   1.814   0.082  12.217 -0.5733  0.0048 -0.8283
 5064TIP3    H239388   1.893   0.195  12.155  0.0726  0.4706  0.7768
 5065TIP3   OH239389   3.244   7.321  12.292 -0.3957 -0.0612 -0.4831
 5065TIP3    H139390   3.287   7.324  12.206  1.3120 -0.4005  0.3194
 5065TIP3    H239391   3.313   7.294  12.352 -1.1794  1.5773  1.2569
 5066TIP3   OH239392   3.393   1.053  11.792  0.1249 -0.6715  0.8457
 5066TIP3    H139393   3.367   1.146  11.790  1.5203 -0.2271  1.9650
 5066TIP3    H239394   3.317   1.008  11.828 -1.3479 -0.2888 -1.5506
 5067TIP3   OH239395   1.455   5.169  11.125 -0.0461 -0.1047  0.4729
 5067TIP3    H139396   1.515   5.244  11.125  1.3692 -1.1947  1.4161
 5067TIP3    H239397   1.437   5.152  11.033  1.3750  0.0490  0.1473
 5068TIP3   OH239398   3.232   1.697  12.895 -0.0775  0.4180  0.2530
 5068TIP3    H139399   3.147   1.675  12.856 -0.6680  1.0567  1.1576
 5068TIP3    H239400   3.277   1.612  12.903 -0.1307  0.2008 -1.3118
 5069TIP3   OH239401   5.356   2.749  12.390 -0.1782 -0.1310 -0.0453
 5069TIP3    H139402   5.326   2.738  12.300 -1.5534 -0.5255  0.4250
 5069TIP3    H239403   5.351   2.661  12.428  2.5304 -0.4042 -0.1675
 5070TIP3   OH239404   5.824   2.133  13.565 -0.2880  0.0030 -0.1155
 5070TIP3    H139405   5.872   2.186  13.501 -1.5012  0.7781 -0.4204
 5070TIP3    H239406   5.882   2.128  13.640 -0.1681  1.8683 -0.0506
 5071TIP3   OH239407   6.988   5.182  11.636  0.8002 -0.6218  0.1073
 5071TIP3    H139408   6.941   5.265  11.634  2.0578  0.1191 -0.0137
 5071TIP3    H239409   6.922   5.116  11.613 -0.0437  0.4280 -0.5648
 5072TIP3   OH239410   5.089   6.808  12.140 -0.6548  0.2367 -0.5078
 5072TIP3    H139411   5.163   6.865  12.115  0.6551 -0.3383  1.7504
 5072TIP3    H239412   5.127   6.721  12.147 -1.0274  0.2192  2.5163
 5073TIP3   OH239413   1.927   7.649  13.353  0.3611 -0.2335  0.0825
 5073TIP3    H139414   1.911   7.652  13.447  1.8951  0.9113  0.3560
 5073TIP3    H239415   1.957   7.560  13.337  1.0991 -0.1483  0.8906
 5074TIP3   OH239416   7.098   7.372  13.377 -0.1503 -0.0019 -0.1146
 5074TIP3    H139417   7.046   7.292  13.371  0.1784 -0.3063  0.8727
 5074TIP3    H239418   7.182   7.350  13.337  0.1527 -0.3528  0.6904
 5075TIP3   OH239419   1.469   7.427  11.928 -0.3671 -0.0006  0.9178
 5075TIP3    H139420   1.474   7.522  11.918  2.4559  0.2229  3.2115
 5075TIP3    H239421   1.523   7.393  11.856  2.0822  0.4564  2.4229
 5076TIP3   OH239422   3.176   6.362  13.862 -0.1689 -1.0036  0.2709
 5076TIP3    H139423   3.233   6.288  13.843 -0.6812 -1.3598  0.0954
 5076TIP3    H239424   3.130   6.379  13.780  0.5549  0.0555  0.0719
 5077TIP3   OH239425   0.741   1.233  11.287  0.4929 -0.2090 -0.0148
 5077TIP3    H139426   0.743   1.172  11.212  0.1567  1.0780 -1.1020
 5077TIP3    H239427   0.720   1.318  11.249 -0.2229  0.3953  1.6254
 5078TIP3   OH239428   2.527   1.978  12.804 -0.3874  0.1369  0.1818
 5078TIP3    H139429   2.440   1.981  12.765 -0.3065 -1.3760 -0.1941
 5078TIP3    H239430   2.511   1.983  12.899 -0.8063  0.7793  0.0825
 5079TIP3   OH239431   0.069   5.277  12.320  0.1043  0.4989 -0.3394
 5079TIP3    H139432   0.096   5.364  12.349 -2.4329  0.6540  1.9248
 5079TIP3    H239433   0.101   5.218  12.389  0.7511 -0.2328 -1.2441
 5080TIP3   OH239434   5.422   5.089  11.226 -0.3378 -0.0080  0.5455
 5080TIP3    H139435   5.333   5.095  11.191 -0.5598 -0.0262  1.1048
 5080TIP3    H239436   5.412   5.100  11.320  0.1535 -0.8512  0.7115
 5081TIP3   OH239437   5.751   4.229  12.047 -0.8115 -0.1914 -0.1338
 5081TIP3    H139438   5.821   4.288  12.076  0.1252 -0.7655 -1.1197
 5081TIP3    H239439   5.763   4.150  12.100 -1.6445  0.2393  0.7152
 5082TIP3   OH239440   4.770   5.340  12.218 -0.4816  0.6511  0.3013
 5082TIP3    H139441   4.812   5.306  12.297 -0.8986 -0.3459  0.1200
 5082TIP3    H239442   4.744   5.429  12.240  0.9912  1.0153  0.6809
 5083TIP3   OH239443   2.914   1.580  12.587  0.4765 -0.4174 -0.0339
 5083TIP3    H139444   2.946   1.532  12.663  1.4298 -1.8625 -1.2726
 5083TIP3    H239445   2.977   1.560  12.517 -0.8367  0.1062 -1.4461
 5084TIP3   OH239446   5.190   7.020  11.564 -0.0561 -0.1450  0.2738
 5084TIP3    H139447   5.169   7.012  11.657 -0.1602 -2.1014  0.1282
 5084TIP3    H239448   5.138   6.952  11.521 -0.6698  1.2710 -1.3612
 5085TIP3   OH239449   3.304   7.157  13.413 -0.4234  0.0619  0.1458
 5085TIP3    H139450   3.284   7.084  13.471  0.2829  0.6254  1.1207
 5085TIP3    H239451   3.396   7.146  13.390 -1.2363 -1.5217 -2.9034
 5086TIP3   OH239452   2.174   5.773  11.022 -0.1991  0.2670 -0.2504
 5086TIP3    H139453   2.218   5.818  10.950  0.2355 -0.0760 -0.2042
 5086TIP3    H239454   2.216   5.687  11.026 -1.2131 -0.2606 -0.5229
 5087TIP3   OH239455   1.215   1.348  12.903  0.2954 -0.4846  0.0543
 5087TIP3    H139456   1.166   1.401  12.966  0.6829  0.6922 -0.5967
 5087TIP3    H239457   1.301   1.335  12.945  0.3116 -0.3032  0.0802
 5088TIP3   OH239458   5.564   1.606  11.286 -0.2221  0.3162 -0.0701
 5088TIP3    H139459   5.513   1.673  11.240  0.7363  2.5504  1.9412
 5088TIP3    H239460   5.655   1.622  11.260  0.1571  0.6366  1.3618
 5089TIP3   OH239461   5.762   0.297  12.412  0.1513 -0.2751  0.3132
 5089TIP3    H139462   5.747   0.390  12.393  1.8625 -0.3041 -1.4101
 5089TIP3    H239463   5.685   0.252  12.376  0.2931  0.2875 -0.7077
 5090TIP3   OH239464   2.070   2.730  11.781  0.1563 -0.3932  0.3852
 5090TIP3    H139465   2.071   2.667  11.708  0.4210 -2.5281  2.1334
 5090TIP3    H239466   1.977   2.746  11.797  0.0787 -0.6411  0.1932
 5091TIP3   OH239467   0.140   4.802  12.668  0.2985 -0.9025  0.4358
 5091TIP3    H139468   0.050   4.825  12.644 -0.2659 -2.3604  1.0488
 5091TIP3    H239469   0.131   4.756  12.751  1.5148 -1.9128  0.0260
 5092TIP3   OH239470   5.689   4.721  12.172 -0.6379  0.1359  0.0323
 5092TIP3    H139471   5.609   4.759  12.137 -0.8816  0.0225  0.4503
 5092TIP3    H239472   5.694   4.754  12.262  1.0582  2.0760 -0.7071
 5093TIP3   OH239473   6.010   7.478  12.033  0.3698 -0.1696 -0.0942
 5093TIP3    H139474   6.101   7.482  12.060  0.0453  1.1815  0.9145
 5093TIP3    H239475   5.972   7.561  12.064 -0.7748  0.1003 -2.0702
 5094TIP3   OH239476   7.331   3.895  11.262 -0.3240  0.0922 -0.2353
 5094TIP3    H139477   7.419   3.856  11.257  0.3453  1.4043  0.7716
 5094TIP3    H239478   7.317   3.910  11.355 -2.6058 -2.1602 -0.1073
 5095TIP3   OH239479   7.438   2.701  11.444  0.6590 -0.2032  0.1486
 5095TIP3    H139480   7.380   2.673  11.373  0.5459  1.4724 -0.4712
 5095TIP3    H239481   7.523   2.715  11.401  0.5552  0.9644  0.2916
 5096TIP3   OH239482   5.562   6.340  11.635 -0.5144  0.1532  0.6155
 5096TIP3    H139483   5.593   6.256  11.670  1.4888  0.9287  0.8318
 5096TIP3    H239484   5.569   6.330  11.540  1.1558  0.5135  0.6563
 5097TIP3   OH239485   6.251   5.624  13.322  0.2171  0.3731 -0.4887
 5097TIP3    H139486   6.335   5.614  13.367 -1.0446 -1.2152  1.7693
 5097TIP3    H239487   6.225   5.714  13.339  1.0063  0.5735 -0.3173
 5098TIP3   OH239488   7.416   4.032  12.470  0.6453 -0.0265  0.3261
 5098TIP3    H139489   7.419   3.943  12.434  0.8490 -0.2353  0.8442
 5098TIP3    H239490   7.417   4.089  12.393  1.7113 -0.4456  0.0112
 5099TIP3   OH239491   5.018   6.235  12.318  0.3874  0.3979 -0.2322
 5099TIP3    H139492   4.930   6.230  12.282  0.0315 -0.4859  0.7026
 5099TIP3    H239493   5.064   6.160  12.279  0.6189  0.6469 -0.4413
 5100TIP3   OH239494   4.156   0.026  12.605 -0.0811  0.0469  0.3182
 5100TIP3    H139495   4.173   0.087  12.677  0.0497 -2.5572  2.6816
 5100TIP3    H239496   4.236   0.028  12.552  1.0708 -0.0817  1.9660
 5101TIP3   OH239497   6.396   6.113  13.288  0.3109 -0.0310  0.4597
 5101TIP3    H139498   6.316   6.133  13.239  0.3887 -2.1537 -0.6211
 5101TIP3    H239499   6.417   6.195  13.333 -1.9713  0.8339  0.0838
 5102TIP3   OH239500   6.052   5.499  11.219  0.1335  0.4591 -0.0264
 5102TIP3    H139501   6.133   5.546  11.238 -0.0973  1.3332 -1.0719
 5102TIP3    H239502   6.008   5.491  11.304  1.5591 -0.5690  0.6615
 5103TIP3   OH239503   3.296   0.175  11.023  0.2074  0.0029  0.2442
 5103TIP3    H139504   3.391   0.171  11.033  0.1241 -1.0387  0.7976
 5103TIP3    H239505   3.277   0.266  11.004  1.4639 -0.0727 -1.5459
 5104TIP3   OH239506   5.106   7.572  12.976 -0.0624  0.4994  0.2319
 5104TIP3    H139507   5.106   7.482  13.007 -1.2108 -0.2124 -1.6506
 5104TIP3    H239508   5.044   7.618  13.033 -1.0791 -0.4248 -0.0967
 5105TIP3   OH239509   2.446   0.497  13.816 -0.9280 -0.0067 -0.2709
 5105TIP3    H139510   2.491   0.581  13.828  1.3162 -1.1301 -0.2409
 5105TIP3    H239511   2.389   0.489  13.892  0.6806  0.4033  1.0311
 5106TIP3   OH239512   7.353   1.525  12.812 -0.2480  0.5409 -0.0912
 5106TIP3    H139513   7.277   1.551  12.760  1.0476 -1.0044 -2.9628
 5106TIP3    H239514   7.323   1.531  12.903 -2.7627  3.0091 -0.9397
 5107TIP3   OH239515   2.211   5.189  12.986 -0.0078 -0.7924 -0.5210
 5107TIP3    H139516   2.158   5.217  13.061  0.8596  1.1947 -0.5984
 5107TIP3    H239517   2.289   5.150  13.026  0.5736  0.4990 -0.3380
 5108TIP3   OH239518   2.181   3.984  12.262 -0.2770  0.5615 -0.5382
 5108TIP3    H139519   2.208   4.070  12.293  0.1680  0.7013 -1.3020
 5108TIP3    H239520   2.186   3.928  12.340  0.6502  0.9434 -0.3094
 5109TIP3   OH239521   3.690   1.657  13.013 -0.4195 -0.0441 -0.0529
 5109TIP3    H139522   3.669   1.743  13.048 -0.3907 -0.3678  0.8051
 5109TIP3    H239523   3.785   1.658  13.002 -0.4989  0.2713 -0.7137
 5110TIP3   OH239524   6.457   1.326  13.598  0.1208 -0.8248  0.3283
 5110TIP3    H139525   6.514   1.251  13.615 -1.2968 -1.7692  1.1219
 5110TIP3    H239526   6.370   1.296  13.624 -0.6568  0.7549 -0.3410
 5111TIP3   OH239527   4.467   6.001  10.909 -0.1283 -0.0133 -0.0364
 5111TIP3    H139528   4.451   5.937  10.978  1.3712  1.5544  1.8763
 5111TIP3    H239529   4.409   6.074  10.929 -0.7438 -0.1206 -1.3239
 5112TIP3   OH239530   1.801   7.107  13.676 -0.0390 -0.2574 -0.3966
 5112TIP3    H139531   1.782   7.198  13.699 -0.6433 -0.4557 -0.0916
 5112TIP3    H239532   1.886   7.110  13.632  0.5518  0.2949  0.7355
 5113TIP3   OH239533   3.336   6.845  12.529  0.5112  0.0413 -0.3026
 5113TIP3    H139534   3.383   6.818  12.450  1.5865  1.1979 -0.0967
 5113TIP3    H239535   3.382   6.924  12.558  0.0691 -0.2946  1.4206
 5114TIP3   OH239536   3.291   5.738  13.090 -0.2101  0.1261  0.0482
 5114TIP3    H139537   3.369   5.762  13.140  1.2675  2.2820 -2.9601
 5114TIP3    H239538   3.263   5.820  13.049 -2.4513 -1.1450 -1.1504
 5115TIP3   OH239539   4.373   5.113  13.710 -0.0039 -0.0163 -0.0528
 5115TIP3    H139540   4.373   5.196  13.661 -0.8353 -0.5824 -1.0575
 5115TIP3    H239541   4.357   5.139  13.800  0.2036  0.9560 -0.2781
 5116TIP3   OH239542   7.530   4.640  12.508 -0.1244 -0.3360 -0.3209
 5116TIP3    H139543   7.609   4.693  12.498  1.0873 -2.0878 -0.4618
 5116TIP3    H239544   7.467   4.699  12.549  1.0889  1.2541 -0.6404
 5117TIP3   OH239545   1.696   3.726  12.108  0.2208  0.4643 -0.0482
 5117TIP3    H139546   1.626   3.735  12.172 -1.3949  0.0563 -1.6651
 5117TIP3    H239547   1.774   3.757  12.153 -0.8185  0.1269  2.1166
 5118TIP3   OH239548   0.056   5.363  11.989 -0.2878 -0.4582 -0.0182
 5118TIP3    H139549   0.029   5.436  12.044  2.3790 -0.6439  1.7647
 5118TIP3    H239550   0.039   5.393  11.900 -0.7879  1.6644  0.7192
 5119TIP3   OH239551   6.944   5.537  11.812  0.2379 -0.0419  0.3738
 5119TIP3    H139552   7.032   5.560  11.782  0.3869 -0.7455  0.2548
 5119TIP3    H239553   6.950   5.444  11.834 -0.7375 -0.3495 -0.5775
 5120TIP3   OH239554   2.687   0.714  11.844  0.1533 -0.1736 -0.0386
 5120TIP3    H139555   2.708   0.699  11.752 -0.3967 -0.2324 -0.1568
 5120TIP3    H239556   2.724   0.800  11.864  1.0116 -0.5319 -0.0827
 5121TIP3   OH239557   1.315   7.130  13.367 -0.7907 -0.6416  0.2422
 5121TIP3    H139558   1.306   7.074  13.291  0.2085 -0.4818  0.0001
 5121TIP3    H239559   1.307   7.219  13.332 -2.1136 -0.6009  0.5872
 5122TIP3   OH239560   0.907   6.832  11.262 -0.3748 -0.2517  0.5508
 5122TIP3    H139561   0.974   6.881  11.215 -0.5638  0.2318  0.7788
 5122TIP3    H239562   0.860   6.784  11.194  1.5140 -2.2640  0.5613
 5123TIP3   OH239563   7.246   5.914  10.837  0.8905  0.1464  0.1020
 5123TIP3    H139564   7.291   5.830  10.837  1.4756  0.4394 -0.8496
 5123TIP3    H239565   7.201   5.917  10.752 -1.1252 -0.2286  1.1130
 5124TIP3   OH239566   2.071   4.333  10.872  0.0258 -0.0258  0.1856
 5124TIP3    H139567   2.092   4.424  10.895  1.4519 -0.5097  0.9662
 5124TIP3    H239568   1.978   4.333  10.853 -0.2718  1.3450  1.5031
 5125TIP3   OH239569   0.924   1.873  12.378  0.2623  0.0766 -0.7992
 5125TIP3    H139570   0.874   1.865  12.459 -1.2287 -0.5414 -1.7437
 5125TIP3    H239571   1.015   1.886  12.407 -0.5101  2.0513  0.9750
 5126TIP3   OH239572   1.358   2.086  13.159 -0.1074 -0.1685  0.5799
 5126TIP3    H139573   1.272   2.050  13.138  0.6898 -1.9195  0.1359
 5126TIP3    H239574   1.411   2.010  13.182  1.6429  0.7241 -0.3139
 5127TIP3   OH239575   1.772   6.603  13.029 -0.4798  0.1491  0.4929
 5127TIP3    H139576   1.714   6.527  13.037 -1.0760  0.6725  1.3685
 5127TIP3    H239577   1.718   6.677  13.058 -0.8031  1.3705 -2.7344
 5128TIP3   OH239578   5.641   0.426  12.809 -0.0079 -0.3802 -0.2444
 5128TIP3    H139579   5.647   0.421  12.905  2.7949 -0.0514 -0.3156
 5128TIP3    H239580   5.705   0.362  12.778  1.2118  1.5089 -1.8389
 5129TIP3   OH239581   6.570   3.613  11.604 -1.0067 -0.7559 -0.0811
 5129TIP3    H139582   6.519   3.687  11.638 -2.4822 -0.3623 -2.8436
 5129TIP3    H239583   6.646   3.654  11.563 -2.3054 -0.5257 -2.4731
 5130TIP3   OH239584   3.080   1.128  13.563  0.1097  0.8692 -0.5836
 5130TIP3    H139585   3.051   1.212  13.526 -2.3335 -0.5393 -2.0909
 5130TIP3    H239586   3.038   1.124  13.649  0.1433  1.1090 -0.5535
 5131TIP3   OH239587   6.839   4.367  12.326 -0.1653  0.2267 -0.6724
 5131TIP3    H139588   6.887   4.427  12.383  0.1900 -0.2247 -0.4908
 5131TIP3    H239589   6.904   4.336  12.263  0.0690 -1.2097  0.2254
 5132TIP3   OH239590   5.160   3.607  12.015 -0.4852 -0.0109 -0.4706
 5132TIP3    H139591   5.153   3.623  11.921 -2.5655 -0.6213 -0.4569
 5132TIP3    H239592   5.165   3.512  12.022 -2.5105 -0.1237  0.0885
 5133TIP3   OH239593   4.231   0.273  12.315  0.1771 -0.3016  0.1466
 5133TIP3    H139594   4.315   0.297  12.355  1.1339 -1.6362 -0.9891
 5133TIP3    H239595   4.166   0.324  12.365  1.5866  0.3660  1.3952
 5134TIP3   OH239596   2.984   1.112  13.206 -0.0775 -0.2999 -0.4585
 5134TIP3    H139597   2.914   1.178  13.204  0.4287  0.2817  0.2890
 5134TIP3    H239598   3.015   1.112  13.297 -0.2620 -1.8027 -0.3710
 5135TIP3   OH239599   1.251   7.313  12.129  0.3806  0.5196 -0.0261
 5135TIP3    H139600   1.159   7.309  12.100  0.0880  1.2888  0.7488
 5135TIP3    H239601   1.259   7.399  12.169  0.8919 -0.2869  1.6948
 5136TIP3   OH239602   0.494   1.850  12.661  0.1297  0.0087 -0.1340
 5136TIP3    H139603   0.421   1.900  12.622  0.1833  0.6643  0.5926
 5136TIP3    H239604   0.451   1.785  12.716  0.0845  0.5708  0.5095
 5137TIP3   OH239605   0.178   5.001  13.304  0.2021 -0.0162  0.0037
 5137TIP3    H139606   0.106   5.059  13.329 -0.2525 -0.8840  0.7310
 5137TIP3    H239607   0.238   5.058  13.257 -0.8278  0.7815 -0.3837
 5138TIP3   OH239608   6.030   3.776  12.530  0.4609 -0.4291  0.1370
 5138TIP3    H139609   6.013   3.768  12.624 -1.4437  0.1617 -0.1088
 5138TIP3    H239610   6.038   3.686  12.499 -1.4305 -0.7438  0.4802
 5139TIP3   OH239611   2.778   0.270  13.516 -0.6315  0.4971 -0.1796
 5139TIP3    H139612   2.743   0.349  13.474 -1.2249 -0.3871 -1.3867
 5139TIP3    H239613   2.739   0.271  13.604  1.2265  2.7728  0.7562
 5140TIP3   OH239614   5.369   4.152  11.190  0.1094  0.3509  0.3589
 5140TIP3    H139615   5.417   4.212  11.134 -0.6407  0.7022  0.0718
 5140TIP3    H239616   5.372   4.068  11.143 -0.2577  0.5711 -0.0672
 5141TIP3   OH239617   2.128   4.919  11.275 -0.2585 -0.6230 -0.2689
 5141TIP3    H139618   2.122   4.900  11.368  0.0451 -0.9327 -0.3144
 5141TIP3    H239619   2.210   4.880  11.246 -1.2698 -2.2453 -1.0722
 5142TIP3   OH239620   5.649   5.483  13.002  0.2732 -0.7286  0.3872
 5142TIP3    H139621   5.708   5.530  12.943 -0.7018 -0.0685 -0.0789
 5142TIP3    H239622   5.613   5.550  13.059  0.7158 -1.2714  1.3305
 5143TIP3   OH239623   0.761   2.565  11.847  0.2761  0.8083  0.2733
 5143TIP3    H139624   0.828   2.514  11.893 -0.1599 -1.2879 -1.2748
 5143TIP3    H239625   0.809   2.611  11.779  0.4761  1.3325  0.7634
 5144TIP3   OH239626   5.327   3.271  12.563  0.2258  0.7029  0.0015
 5144TIP3    H139627   5.251   3.218  12.584 -0.1074  1.6421  1.2765
 5144TIP3    H239628   5.402   3.213  12.579 -0.1726  0.0794 -0.3453
 5145TIP3   OH239629   7.116   5.363  11.148 -0.3688  0.2942  0.5949
 5145TIP3    H139630   7.111   5.272  11.119 -0.6013 -0.3190  2.4148
 5145TIP3    H239631   7.142   5.412  11.070  1.5302 -1.5583 -0.0324
 5146TIP3   OH239632   1.055   7.292  12.601  0.1596  0.0387 -0.5673
 5146TIP3    H139633   1.055   7.386  12.583  0.6933  0.1845  0.1352
 5146TIP3    H239634   1.090   7.285  12.690  0.3783 -0.8454 -0.7148
 5147TIP3   OH239635   4.924   4.797  13.020 -0.4513  0.0922  0.0982
 5147TIP3    H139636   4.837   4.818  13.054 -0.1841  1.5689 -0.0611
 5147TIP3    H239637   4.920   4.820  12.928  0.4070  1.1747  0.3140
 5148TIP3   OH239638   6.201   6.433  11.323  0.1320  0.0621 -0.2275
 5148TIP3    H139639   6.213   6.344  11.356 -0.1723 -0.2247 -0.8898
 5148TIP3    H239640   6.243   6.433  11.237 -0.5503  0.3413 -0.5620
 5149TIP3   OH239641   7.473   3.053  12.026  0.5393 -0.3466  0.0823
 5149TIP3    H139642   7.464   3.126  11.966  0.9386 -0.2014  0.1952
 5149TIP3    H239643   7.440   2.977  11.978  0.4940 -0.1619 -0.1757
 5150TIP3   OH239644   5.603   0.404  13.401  0.3846 -0.0900  0.0625
 5150TIP3    H139645   5.626   0.331  13.459 -0.1244  0.7644  1.3937
 5150TIP3    H239646   5.513   0.427  13.427  0.6795  1.2535 -0.0487
 5151TIP3   OH239647   4.835   4.227  12.786 -0.1772 -0.5054  0.0318
 5151TIP3    H139648   4.771   4.270  12.729  0.6500 -0.2902 -0.7629
 5151TIP3    H239649   4.905   4.199  12.727  0.7385 -0.2156  0.9402
 5152TIP3   OH239650   1.060   4.812  13.212  0.1371  0.2315 -0.5110
 5152TIP3    H139651   1.064   4.907  13.203 -0.9459  0.3138 -0.3010
 5152TIP3    H239652   1.117   4.779  13.143  0.9030  1.0325 -0.2855
 5153TIP3   OH239653   0.622   4.635  12.062 -0.0549  0.4671  0.2768
 5153TIP3    H139654   0.656   4.605  12.146 -1.1186  0.5497  0.7619
 5153TIP3    H239655   0.574   4.715  12.083 -1.2272 -0.0718 -0.2122
 5154TIP3   OH239656   5.914   7.459  12.515 -0.8941  0.9177  0.0083
 5154TIP3    H139657   5.934   7.550  12.494  1.7402  0.7369  1.2672
 5154TIP3    H239658   5.913   7.413  12.431  0.2320  1.7168 -0.4581
 5155TIP3   OH239659   5.437   3.289  11.893 -0.7095  0.5705  0.2413
 5155TIP3    H139660   5.393   3.215  11.934 -0.2540  0.2901  0.2231
 5155TIP3    H239661   5.507   3.312  11.954 -1.7622  1.9521  0.9945
 5156TIP3   OH239662   1.529   4.896  12.977 -0.0056  0.1644 -0.3402
 5156TIP3    H139663   1.537   4.875  12.884  0.1803  0.2940 -0.3531
 5156TIP3    H239664   1.619   4.905  13.008 -0.0723  0.6219 -0.2648
 5157TIP3   OH239665   6.878   5.490  12.225  0.0916  0.1049 -0.0735
 5157TIP3    H139666   6.921   5.575  12.213  0.7869 -0.1625  0.4918
 5157TIP3    H239667   6.949   5.426  12.225 -0.2155 -0.2857  1.4419
 5158TIP3   OH239668   1.722   4.475  12.393  0.3203 -0.7015 -0.1262
 5158TIP3    H139669   1.730   4.525  12.474  0.6788 -0.4089 -0.3423
 5158TIP3    H239670   1.801   4.496  12.343  0.1174 -0.9042 -0.5388
 5159TIP3   OH239671   4.249   0.223  12.767 -0.1474  0.1867  0.5040
 5159TIP3    H139672   4.227   0.217  12.861 -0.7708 -0.6501  0.3235
 5159TIP3    H239673   4.342   0.204  12.763 -0.2190 -0.3010  0.9220
 5160TIP3   OH239674   2.477   5.376  13.120 -0.8497  0.0443  0.3570
 5160TIP3    H139675   2.518   5.436  13.058  0.1278 -0.1553  0.8008
 5160TIP3    H239676   2.548   5.320  13.151 -1.1217  0.6611  2.2624
 5161TIP3   OH239677   0.654   0.851  12.546 -0.4131 -0.1041  0.3840
 5161TIP3    H139678   0.688   0.871  12.633 -2.0018 -2.0208  1.5203
 5161TIP3    H239679   0.601   0.928  12.523  1.3247  1.1319  0.3349
 5162TIP3   OH239680   0.428   6.829  12.564  0.2938  0.4534 -0.0509
 5162TIP3    H139681   0.509   6.784  12.588  0.5056  0.5000 -0.6889
 5162TIP3    H239682   0.448   6.922  12.575  0.1177  0.4424  0.4264
 5163TIP3   OH239683   4.426   6.902  11.950  0.1126  0.7165  0.2293
 5163TIP3    H139684   4.466   6.989  11.947 -0.7929  1.1010 -1.7156
 5163TIP3    H239685   4.338   6.914  11.914  0.4673 -1.2582 -1.4833
 5164TIP3   OH239686   5.422   4.771  11.490  0.3973  0.8493 -0.1400
 5164TIP3    H139687   5.333   4.766  11.454 -0.8635  1.8010  2.5342
 5164TIP3    H239688   5.434   4.863  11.510  0.9116  0.3757  1.9255
 5165TIP3   OH239689   1.642   7.555  12.910 -0.0053 -0.2577 -0.5658
 5165TIP3    H139690   1.654   7.549  13.005  2.3891 -0.6623 -0.8226
 5165TIP3    H239691   1.618   7.646  12.894  0.5939  0.0785  0.3549
 5166TIP3   OH239692   7.456   7.500  12.238 -0.3425 -0.8588  0.0054
 5166TIP3    H139693   7.406   7.463  12.165  0.4491 -0.1341 -0.9313
 5166TIP3    H239694   7.396   7.496  12.312 -1.7514 -0.1431 -1.0472
 5167TIP3   OH239695   6.819   6.313  12.186  0.1047  0.4427  0.1061
 5167TIP3    H139696   6.742   6.264  12.213  1.1015 -0.4217  1.4682
 5167TIP3    H239697   6.833   6.377  12.256  0.8531  0.3313  0.0695
 5168TIP3   OH239698   7.609   4.429  13.404  0.0695  0.1865  0.2677
 5168TIP3    H139699   7.522   4.405  13.435  0.3317 -0.8015  0.2895
 5168TIP3    H239700   7.650   4.345  13.381 -0.0469  0.7887 -2.5940
 5169TIP3   OH239701   7.125   1.486  11.901  0.2450 -0.1917  0.1863
 5169TIP3    H139702   7.058   1.549  11.873  0.6209 -0.4067 -1.2695
 5169TIP3    H239703   7.088   1.446  11.980 -0.8230  0.5283  0.0728
 5170TIP3   OH239704   5.619   3.188  12.797 -0.1763 -0.3249 -0.1657
 5170TIP3    H139705   5.576   3.274  12.800 -0.3109 -0.4091  1.1312
 5170TIP3    H239706   5.554   3.131  12.755  0.3658  0.4147 -2.1257
 5171TIP3   OH239707   5.604   4.590  13.310  0.0565 -0.0451  0.4534
 5171TIP3    H139708   5.525   4.580  13.363 -0.8022 -0.8886 -0.9138
 5171TIP3    H239709   5.652   4.508  13.322  0.0735 -0.0602  0.2901
 5172TIP3   OH239710   3.016   4.503  12.638  0.9889 -0.0592  0.2048
 5172TIP3    H139711   2.981   4.493  12.727 -0.5936  0.5490 -0.3256
 5172TIP3    H239712   3.097   4.452  12.639  0.9602 -0.1418  1.9668
 5173TIP3   OH239713   5.205   0.158  13.203  0.1624 -0.2645  0.1659
 5173TIP3    H139714   5.290   0.114  13.207  0.7444  0.8789  1.0824
 5173TIP3    H239715   5.223   0.242  13.160 -1.1619 -1.3179 -2.7692
 5174TIP3   OH239716   5.872   3.663  13.352  0.2177  0.4134 -0.3012
 5174TIP3    H139717   5.843   3.589  13.406  0.5043  0.3006 -0.3034
 5174TIP3    H239718   5.795   3.720  13.347 -0.1839 -0.1654 -0.7870
 5175TIP3   OH239719   7.355   5.980  11.104 -0.0569 -0.1901 -0.6748
 5175TIP3    H139720   7.339   5.963  11.011  0.1389  0.6593 -0.8644
 5175TIP3    H239721   7.415   6.054  11.105 -1.6478  1.1381  0.1487
 5176TIP3   OH239722   3.221   6.283  13.345 -0.3918 -0.6985 -0.2590
 5176TIP3    H139723   3.192   6.208  13.293 -1.8256  0.2196 -0.8513
 5176TIP3    H239724   3.157   6.351  13.326  1.1140  0.8279 -0.0700
 5177TIP3   OH239725   4.930   7.030  12.576  0.3820 -0.7064  0.2118
 5177TIP3    H139726   5.017   7.044  12.613  0.6063 -2.4639  0.4278
 5177TIP3    H239727   4.921   7.099  12.510  0.9100  1.0338  1.8648
 5178TIP3   OH239728   3.626   7.269  13.398  0.2702  0.0472  0.3971
 5178TIP3    H139729   3.676   7.245  13.320  0.1078  1.0397 -0.0348
 5178TIP3    H239730   3.617   7.188  13.447  2.9618 -0.0425  0.8807
 5179TIP3   OH239731   2.112   2.824  12.064  0.1238  0.8528  0.3435
 5179TIP3    H139732   2.092   2.823  11.970  0.5891 -0.6377  0.2355
 5179TIP3    H239733   2.028   2.840  12.106 -0.2327  0.6919 -0.2957
 5180TIP3   OH239734   3.705   6.303  13.607  0.5641  0.0412 -0.2064
 5180TIP3    H139735   3.782   6.312  13.552  0.7385 -0.9570 -0.1363
 5180TIP3    H239736   3.632   6.303  13.545  0.6641  0.2279 -0.3274
 5181TIP3   OH239737   1.120   6.763  13.381 -0.5439  0.2485  0.2758
 5181TIP3    H139738   1.155   6.689  13.333 -2.0625  0.2990 -0.9914
 5181TIP3    H239739   1.052   6.799  13.324 -0.7880  1.7764  1.4532
 5182TIP3   OH239740   3.193   2.725  13.118  0.0598 -0.0291  0.1348
 5182TIP3    H139741   3.271   2.751  13.068  0.2585  0.0325  0.4730
 5182TIP3    H239742   3.227   2.672  13.190 -0.1577  0.4805  0.6175
 5183TIP3   OH239743   7.292   7.254  10.515  0.1661  0.0188  0.3165
 5183TIP3    H139744   7.208   7.301  10.514  0.0869 -0.0010 -2.5476
 5183TIP3    H239745   7.268   7.163  10.498  0.6411 -0.3922  1.7303
 5184TIP3   OH239746   0.000   1.672  12.339 -0.3785  0.7266 -0.8603
 5184TIP3    H139747   0.034   1.596  12.292 -1.2476 -0.1111 -0.1675
 5184TIP3    H239748  -0.093   1.653  12.351 -0.2960  1.1657  0.7087
 5185TIP3   OH239749   1.783   4.302  13.315  0.2195 -0.2758  0.3086
 5185TIP3    H139750   1.757   4.387  13.350  1.3673  0.2843 -0.1229
 5185TIP3    H239751   1.756   4.239  13.381 -0.0314  0.4998  0.9564
 5186TIP3   OH239752   0.833   0.080  11.143  0.1768 -0.0472 -0.3088
 5186TIP3    H139753   0.836   0.132  11.063 -0.7721 -0.5636 -0.6963
 5186TIP3    H239754   0.775   0.007  11.122  0.2310 -0.4015  0.7245
 5187TIP3   OH239755   2.883   4.336  12.400 -0.0451  0.0324 -0.4156
 5187TIP3    H139756   2.926   4.309  12.319  1.3072  0.3527  0.1629
 5187TIP3    H239757   2.955   4.366  12.456 -0.8173 -1.2292  1.3226
 5188TIP3   OH239758   6.708   1.424  13.217 -0.6223 -0.4067 -0.1605
 5188TIP3    H139759   6.629   1.443  13.268 -0.3427 -0.6099  0.3519
 5188TIP3    H239760   6.776   1.408  13.282  0.2091  1.1703 -0.5736
 5189TIP3   OH239761   1.908   3.918  12.686 -0.5145 -0.4419 -0.5041
 5189TIP3    H139762   1.931   3.861  12.760  0.8984 -0.1102 -0.6682
 5189TIP3    H239763   1.965   3.994  12.696 -0.1163 -0.5028 -2.0753
 5190TIP3   OH239764   6.204   6.955  13.519  0.1303 -0.1263 -0.2218
 5190TIP3    H139765   6.127   6.915  13.559  0.5106  0.8854  1.6303
 5190TIP3    H239766   6.271   6.887  13.524 -0.3829 -0.7186 -1.0814
 5191TIP3   OH239767   4.720   4.007  11.921  0.0796  0.3391  0.5962
 5191TIP3    H139768   4.658   4.042  11.856  0.5389 -1.6912 -1.0313
 5191TIP3    H239769   4.806   4.035  11.890  0.3254 -0.8868  0.1143
 5192TIP3   OH239770   7.457   0.911  11.622  0.3752 -0.1277  0.4782
 5192TIP3    H139771   7.455   0.898  11.717  0.2332  1.5198  0.7235
 5192TIP3    H239772   7.527   0.974  11.608 -1.3795  1.7839 -0.1862
 5193TIP3   OH239773   1.656   0.067  11.423  0.3702  0.7257  0.0337
 5193TIP3    H139774   1.641   0.004  11.494  2.0395 -1.6175 -1.5124
 5193TIP3    H239775   1.590   0.045  11.357 -1.5420  3.2599  0.9711
 5194TIP3   OH239776   3.557   0.694  13.010  0.1325 -0.1585  0.1007
 5194TIP3    H139777   3.489   0.660  13.069  0.5248 -0.1540  0.5615
 5194TIP3    H239778   3.568   0.626  12.944  0.8354 -0.8869  0.9553
 5195TIP3   OH239779   4.904   5.226  11.781 -0.2792  0.2622 -0.5110
 5195TIP3    H139780   4.811   5.206  11.768 -0.4086  0.4352  0.1001
 5195TIP3    H239781   4.935   5.159  11.842 -0.6565  1.6973  1.3607
 5196TIP3   OH239782   2.890   3.082  12.486 -0.3188  0.2387  0.6950
 5196TIP3    H139783   2.892   3.162  12.537  1.5021  0.9285 -0.3493
 5196TIP3    H239784   2.916   3.013  12.548 -0.7572  0.6347  1.3230
 5197TIP3   OH239785   6.214   0.181  12.687  0.1056 -0.8534  0.5678
 5197TIP3    H139786   6.291   0.183  12.744  1.1616 -0.0980 -0.8175
 5197TIP3    H239787   6.216   0.094  12.646  0.0375 -0.9559  0.7843
 5198TIP3   OH239788   3.322   4.716  12.378 -0.6051 -0.1064  0.2295
 5198TIP3    H139789   3.404   4.684  12.415 -0.3558 -0.9376 -0.9871
 5198TIP3    H239790   3.346   4.798  12.335 -0.1042 -0.9845 -1.2395
 5199TIP3   OH239791   4.883   4.614  12.444 -0.1017  0.0821  0.4116
 5199TIP3    H139792   4.906   4.586  12.355  2.0601  0.6810  0.7289
 5199TIP3    H239793   4.850   4.535  12.486  1.4113 -0.8983 -0.1414
 5200TIP3   OH239794   1.675   4.170  13.534 -0.3645  0.6833  0.0685
 5200TIP3    H139795   1.632   4.254  13.553 -0.8513  0.0087  2.2009
 5200TIP3    H239796   1.620   4.105  13.577  1.1868 -0.5191  0.3013
 5201TIP3   OH239797   2.159   3.512  12.733 -0.1921 -0.3651  0.3406
 5201TIP3    H139798   2.254   3.519  12.730 -0.1704  2.9112  2.6889
 5201TIP3    H239799   2.139   3.484  12.822 -1.4169  0.0689  0.2283
 5202TIP3   OH239800   3.596   3.284  12.739  0.3290 -0.6911 -0.7213
 5202TIP3    H139801   3.646   3.204  12.754  0.5507 -0.8369 -2.0718
 5202TIP3    H239802   3.654   3.339  12.686 -0.0189  0.1615 -0.2432
 5203TIP3   OH239803   4.675   7.543  12.261  0.3373 -0.6551  0.6671
 5203TIP3    H139804   4.681   7.570  12.353 -1.6643  0.1069  0.6339
 5203TIP3    H239805   4.673   7.625  12.212 -0.0944 -1.0129  0.0666
 5204TIP3   OH239806   4.989   3.363  12.257  0.3412 -0.1082  0.5799
 5204TIP3    H139807   4.934   3.441  12.248  0.5267 -0.1783 -1.4940
 5204TIP3    H239808   4.933   3.299  12.301 -1.0425  0.0578 -0.8466
 5205TIP3   OH239809   4.476   6.750  12.706  0.3963 -0.7248 -0.2488
 5205TIP3    H139810   4.390   6.788  12.724 -0.3417 -1.4967 -1.8738
 5205TIP3    H239811   4.506   6.795  12.627  0.2783 -2.2520 -1.2103
 5206TIP3   OH239812   2.329   0.737  12.920  0.5164 -0.0114 -0.0027
 5206TIP3    H139813   2.376   0.795  12.861  0.9819 -0.1790  0.1909
 5206TIP3    H239814   2.268   0.793  12.967  0.1361  0.1185 -0.6483
 5207TIP3   OH239815   7.094   5.900  12.893  0.6782  0.0587  0.1995
 5207TIP3    H139816   7.159   5.907  12.963  0.0078 -0.6305  0.9083
 5207TIP3    H239817   7.042   5.823  12.915 -0.7015  0.8669 -0.0681
 5208TIP3   OH239818   6.438   2.538  11.365  0.2935 -0.5156 -0.1697
 5208TIP3    H139819   6.442   2.524  11.271  0.7020  1.1025 -0.4121
 5208TIP3    H239820   6.357   2.587  11.379  0.9335  0.4762  0.1435
 5209TIP3   OH239821   4.804   5.093  11.332  0.3089 -0.0964 -0.2987
 5209TIP3    H139822   4.779   5.061  11.419  0.4826 -0.7296 -0.4811
 5209TIP3    H239823   4.813   5.188  11.344  2.0666 -0.3415  0.8202
 5210TIP3   OH239824   1.203   4.112  11.799  0.3970  0.1690 -0.0677
 5210TIP3    H139825   1.219   4.173  11.727 -0.6525  1.2048  0.5344
 5210TIP3    H239826   1.145   4.046  11.761  0.9449 -0.0605 -0.5273
 5211TIP3   OH239827   3.354   3.361  13.690  0.0887 -0.2198 -0.2416
 5211TIP3    H139828   3.282   3.410  13.729  0.3326  1.4450 -1.7567
 5211TIP3    H239829   3.415   3.429  13.660  2.4920 -1.5557  1.2636
 5212TIP3   OH239830   4.349   7.435  12.837  0.3776 -0.0795  0.3177
 5212TIP3    H139831   4.272   7.491  12.849 -0.1154 -0.6169 -0.2983
 5212TIP3    H239832   4.408   7.462  12.907 -0.2540  0.5366  0.6328
 5213TIP3   OH239833   4.286   5.572  12.758  0.2850 -0.1774  0.3129
 5213TIP3    H139834   4.263   5.580  12.851 -0.7256 -1.1177  0.1550
 5213TIP3    H239835   4.205   5.544  12.715  0.6576  0.5528 -0.9112
 5214TIP3   OH239836   6.114   5.253  12.226  0.2359  0.4582 -0.0900
 5214TIP3    H139837   6.088   5.177  12.174  0.4755  0.3737 -0.0897
 5214TIP3    H239838   6.034   5.284  12.267  0.4376 -0.9173  1.4122
 5215TIP3   OH239839   4.370   5.558  11.376 -0.2985  0.5205 -0.6451
 5215TIP3    H139840   4.313   5.515  11.312 -1.0747  0.2726  0.1926
 5215TIP3    H239841   4.337   5.648  11.380  0.5556  0.8917 -1.5052
 5216TIP3   OH239842   5.771   3.159  11.895  0.0503  0.3793  0.1508
 5216TIP3    H139843   5.707   3.204  11.950 -1.2320  0.9712 -1.7276
 5216TIP3    H239844   5.803   3.227  11.835  0.5610 -0.4755 -0.5801
 5217TIP3   OH239845   6.906   7.104  12.207  0.1222  0.2943  0.1580
 5217TIP3    H139846   6.894   7.198  12.192 -0.6365  0.2824  0.5991
 5217TIP3    H239847   6.992   7.097  12.248 -0.3703  0.9527  1.3614
 5218TIP3   OH239848   2.154   0.228  12.128 -0.3778 -1.0151 -0.0294
 5218TIP3    H139849   2.130   0.148  12.082 -0.7503 -0.5834 -0.5947
 5218TIP3    H239850   2.090   0.235  12.199 -1.2071 -0.5173 -0.7942
 5219TIP3   OH239851   7.500   6.673  13.436 -0.0844 -0.1391 -0.3055
 5219TIP3    H139852   7.472   6.681  13.345 -0.3247 -0.2468 -0.2418
 5219TIP3    H239853   7.577   6.730  13.443 -0.6236  0.6160 -0.3414
 5220TIP3   OH239854   5.332   2.414  13.030 -0.0435 -0.6665  0.1170
 5220TIP3    H139855   5.405   2.421  13.091 -0.9058  0.3639  1.0621
 5220TIP3    H239856   5.254   2.420  13.085 -0.8423 -0.4522 -1.0061
 5221TIP3   OH239857   1.459   4.976  13.745  0.0651 -0.8108  0.7664
 5221TIP3    H139858   1.538   4.951  13.793  0.4137  1.6603  1.6322
 5221TIP3    H239859   1.486   5.050  13.692 -1.3508 -0.8197 -0.0093
 5222TIP3   OH239860   2.146   6.351  13.065  0.7044 -0.6775  0.1282
 5222TIP3    H139861   2.228   6.386  13.032 -0.5552  1.3106 -1.1660
 5222TIP3    H239862   2.097   6.429  13.093 -1.0142 -1.7114  0.1444
 5223TIP3   OH239863   4.324   2.091  13.266  0.0160 -0.4151 -0.6600
 5223TIP3    H139864   4.375   2.010  13.255 -1.4140 -1.3351 -0.8097
 5223TIP3    H239865   4.262   2.089  13.193 -0.4507  0.5031 -0.2922
 5224TIP3   OH239866   6.774   6.789  12.743  0.1397  0.3704 -0.9058
 5224TIP3    H139867   6.721   6.711  12.763  0.2737  0.3160 -0.7598
 5224TIP3    H239868   6.763   6.801  12.649 -0.1915  0.4031 -0.8657
 5225TIP3   OH239869   5.103   3.170  12.693  0.3801  0.4983  0.2948
 5225TIP3    H139870   5.095   3.080  12.662 -0.5055 -0.2752  2.5819
 5225TIP3    H239871   5.020   3.211  12.671  0.7779  0.7909 -0.7336
 5226TIP3   OH239872   1.492   5.905  12.289  0.2239  0.0109 -0.4986
 5226TIP3    H139873   1.550   5.979  12.304 -0.8550  0.4092  2.3322
 5226TIP3    H239874   1.543   5.828  12.316  0.8074 -0.1573 -1.9806
 5227TIP3   OH239875   0.010   5.397  13.554 -0.0842  0.1460 -0.4586
 5227TIP3    H139876   0.006   5.345  13.474 -0.2430  1.1570 -1.1349
 5227TIP3    H239877  -0.079   5.431  13.565 -0.3093 -0.7506  0.6937
 5228TIP3   OH239878   0.053   0.988  13.753  0.4216  0.3278  0.5302
 5228TIP3    H139879   0.144   0.993  13.724  1.0779 -0.8497  2.1972
 5228TIP3    H239880   0.039   0.895  13.770 -1.6195  0.2702 -1.1705
 5229TIP3   OH239881   1.066   5.129  13.587  0.0522  0.0643 -0.3200
 5229TIP3    H139882   1.005   5.056  13.586  1.1621 -0.9204  0.5493
 5229TIP3    H239883   1.115   5.119  13.668  1.5200  0.6761 -1.0837
 5230TIP3   OH239884   0.696   5.313  12.400 -0.4201  0.3631 -0.4274
 5230TIP3    H139885   0.683   5.392  12.452 -0.7829  0.7966 -1.1607
 5230TIP3    H239886   0.709   5.345  12.311  0.7779 -0.3358 -0.5289
 5231TIP3   OH239887   0.720   5.520  12.779 -0.5095  0.0752  0.0631
 5231TIP3    H139888   0.738   5.570  12.859 -1.9954 -1.0062  1.1301
 5231TIP3    H239889   0.795   5.463  12.768  0.2219  1.0261  0.0364
 5232TIP3   OH239890   1.307   0.523  11.396  0.0210  0.5079  0.0797
 5232TIP3    H139891   1.279   0.553  11.483 -1.5482 -2.1975  0.6154
 5232TIP3    H239892   1.248   0.450  11.376  2.3312 -0.9431 -1.9003
 5233TIP3   OH239893   1.140   5.022  12.343  0.1524  0.6061 -0.6782
 5233TIP3    H139894   1.130   4.947  12.402  0.1244  1.9300  1.0860
 5233TIP3    H239895   1.230   5.016  12.312  0.7736  0.8254  0.9419
 5234TIP3   OH239896   7.200   7.607  10.926 -0.3254  0.4272 -0.1931
 5234TIP3    H139897   7.286   7.578  10.894 -1.2623 -0.2164 -2.2612
 5234TIP3    H239898   7.152   7.631  10.847 -2.9129 -1.6083  0.6368
 5235TIP3   OH239899   4.386   6.023  10.648  0.3356  0.7613 -0.4696
 5235TIP3    H139900   4.428   6.100  10.611 -0.9290  2.1155  0.7855
 5235TIP3    H239901   4.420   6.018  10.738 -0.3751  0.4928 -0.2063
 5236TIP3   OH239902   1.114   1.018  11.792  0.0358 -0.8337 -0.1248
 5236TIP3    H139903   1.187   1.081  11.796  0.1070 -0.7888 -1.5377
 5236TIP3    H239904   1.152   0.935  11.821 -0.4332 -0.0071  3.3187
 5237TIP3   OH239905   5.707   2.528  11.438  0.2931 -0.4195 -0.4504
 5237TIP3    H139906   5.792   2.485  11.437  0.7801 -0.1092  4.1613
 5237TIP3    H239907   5.645   2.457  11.457  0.2681 -0.0181  1.0947
 5238TIP3   OH239908   5.672   1.609  12.140 -0.3873 -0.3873 -0.2795
 5238TIP3    H139909   5.605   1.595  12.073  0.1948  2.5001 -1.6402
 5238TIP3    H239910   5.754   1.606  12.092  0.1223  0.5987  0.4998
 5239TIP3   OH239911   7.354   4.676  13.456 -0.2881 -0.0643  0.1873
 5239TIP3    H139912   7.398   4.654  13.374 -2.0730 -2.0355 -0.3296
 5239TIP3    H239913   7.401   4.625  13.522 -1.3050 -1.6572 -0.2651
 5240TIP3   OH239914   4.618   7.673  12.524  0.4206  0.3587  0.7134
 5240TIP3    H139915   4.530   7.707  12.513  0.5193  0.2675 -0.5240
 5240TIP3    H239916   4.606   7.584  12.557 -0.0645 -0.4511 -1.4831
 5241TIP3   OH239917   6.638   6.211  10.478  0.1031  0.2623 -0.5084
 5241TIP3    H139918   6.544   6.226  10.481  0.1265  0.4719 -0.7866
 5241TIP3    H239919   6.647   6.118  10.455 -0.0384 -0.0645  0.6756
 5242TIP3   OH239920   4.215   6.753  11.273 -0.2093  0.3625  0.5636
 5242TIP3    H139921   4.167   6.700  11.209 -0.6407  0.8244  0.4923
 5242TIP3    H239922   4.304   6.758  11.238  0.2802 -1.6611  1.4003
 5243TIP3   OH239923   0.531   0.626  13.523  0.7580  0.1450  0.2236
 5243TIP3    H139924   0.502   0.695  13.463  0.7138  1.6515  1.8907
 5243TIP3    H239925   0.591   0.573  13.471 -3.0037 -1.7415 -2.7096
 5244TIP3   OH239926   0.444   2.695  13.376  0.0074  0.2060 -0.3396
 5244TIP3    H139927   0.385   2.623  13.399 -1.0530  0.3161 -2.4355
 5244TIP3    H239928   0.525   2.676  13.423 -0.0097 -2.7329 -1.3017
 5245TIP3   OH239929   0.116   2.176  11.725 -0.3398  0.0337 -0.3322
 5245TIP3    H139930   0.152   2.123  11.654  1.0007 -0.1697  0.4803
 5245TIP3    H239931   0.026   2.196  11.696  0.1878  0.0103 -2.1043
 5246TIP3   OH239932   4.768   4.595  12.839  0.4499  0.1819  0.2032
 5246TIP3    H139933   4.673   4.585  12.850  0.1885  0.5997 -1.5234
 5246TIP3    H239934   4.805   4.533  12.903 -0.9212  1.2446  2.1472
 5247TIP3   OH239935   2.125   7.170  12.471 -0.1530 -0.2215 -0.4283
 5247TIP3    H139936   2.058   7.229  12.437 -0.4393 -0.8687 -0.9976
 5247TIP3    H239937   2.184   7.155  12.397 -0.2464 -0.8777 -0.3749
 5248TIP3   OH239938   1.224   5.941  13.317 -1.0003 -0.2291 -0.0152
 5248TIP3    H139939   1.287   5.878  13.283 -0.3818  0.0249  0.6398
 5248TIP3    H239940   1.144   5.925  13.266 -0.2857 -0.2466 -1.1687
 5249TIP3   OH239941   3.260   4.702  13.336 -0.2816 -0.5152  0.3649
 5249TIP3    H139942   3.187   4.644  13.357 -0.7760 -1.0927 -2.5391
 5249TIP3    H239943   3.222   4.790  13.340 -0.2236 -0.5275  2.0829
 5250TIP3   OH239944   3.052   3.529  12.920  0.0763 -0.4070 -0.3942
 5250TIP3    H139945   3.062   3.433  12.926  2.2143 -0.2055  0.4137
 5250TIP3    H239946   3.130   3.563  12.963 -0.9309  1.7376 -0.1525
 5251TIP3   OH239947   2.228   3.071  11.475 -0.2853  0.1798 -0.1476
 5251TIP3    H139948   2.202   3.153  11.434  0.4953  0.3675 -0.2884
 5251TIP3    H239949   2.307   3.045  11.428 -1.7585 -1.8526 -1.6380
 5252TIP3   OH239950   7.267   4.225  12.327 -0.4150 -0.9295 -0.1264
 5252TIP3    H139951   7.176   4.250  12.309 -0.0801  0.3250 -0.1807
 5252TIP3    H239952   7.303   4.299  12.375  0.9618 -0.8232 -1.2585
 5253TIP3   OH239953   6.034   4.077  11.889  0.2601 -0.1515 -0.0974
 5253TIP3    H139954   6.014   4.103  11.979 -0.4223 -0.3005 -0.2010
 5253TIP3    H239955   5.950   4.049  11.853  0.6710 -0.8503 -0.5295
 5254TIP3   OH239956   1.431   1.633  12.294 -0.2275  0.1547  0.0030
 5254TIP3    H139957   1.350   1.594  12.260  1.4426 -2.6936 -1.0496
 5254TIP3    H239958   1.456   1.576  12.366  1.7216 -0.0803 -0.8136
 5255TIP3   OH239959   3.051   6.644  12.579 -0.8603  0.1466 -0.3701
 5255TIP3    H139960   2.985   6.693  12.531 -1.6192  1.1828  1.6211
 5255TIP3    H239961   3.120   6.708  12.598 -0.9226 -0.0310  0.5254
 5256TIP3   OH239962   3.389   5.474  12.816  0.1159 -0.0467  0.0404
 5256TIP3    H139963   3.451   5.428  12.873  0.8210  2.1846  1.2064
 5256TIP3    H239964   3.439   5.547  12.780 -1.4888  1.1141  0.0479
 5257TIP3   OH239965   6.781   3.850  13.361  0.2221 -0.0391 -0.2837
 5257TIP3    H139966   6.751   3.923  13.306 -1.3478 -0.9181 -0.6279
 5257TIP3    H239967   6.788   3.888  13.449 -1.8449  0.2468 -0.1992
 5258TIP3   OH239968   6.788   0.396  12.933 -0.6081 -0.0573  0.5130
 5258TIP3    H139969   6.824   0.478  12.900  3.9161 -1.7804  0.4087
 5258TIP3    H239970   6.772   0.411  13.026  1.2010  0.7218  0.7308
 5259TIP3   OH239971   4.445   2.570  12.305 -0.1588 -0.7607 -0.0487
 5259TIP3    H139972   4.380   2.562  12.375  0.4394 -0.4493  0.5552
 5259TIP3    H239973   4.465   2.479  12.281  0.3499 -0.8930  0.8647
 5260TIP3   OH239974   4.083   5.505  11.590 -0.2242 -0.3498  0.1482
 5260TIP3    H139975   4.011   5.486  11.649 -0.4945 -1.1544 -0.4200
 5260TIP3    H239976   4.054   5.471  11.505 -0.0826  1.2919 -0.5888
 5261TIP3   OH239977   2.678   0.880  12.661 -0.1282 -0.5415  0.1760
 5261TIP3    H139978   2.717   0.871  12.574  0.8940  2.2512  0.2655
 5261TIP3    H239979   2.585   0.893  12.644  0.1411  0.5117 -0.5485
 5262TIP3   OH239980   0.317   7.403  11.131 -0.0881 -0.2912  0.5910
 5262TIP3    H139981   0.268   7.364  11.204  1.8418  0.8182  2.5889
 5262TIP3    H239982   0.257   7.467  11.094 -0.7502 -0.0819  1.9559
 5263TIP3   OH239983   0.440   2.661  12.482  0.0307 -0.6407  0.5574
 5263TIP3    H139984   0.447   2.682  12.388 -0.8937 -0.6830  0.4716
 5263TIP3    H239985   0.458   2.743  12.526 -0.0728 -0.4930  0.3271
 5264TIP3   OH239986   0.060   0.773  13.415  0.5350  0.7525 -0.1568
 5264TIP3    H139987   0.037   0.712  13.484  2.0799 -0.1337 -0.3810
 5264TIP3    H239988   0.047   0.723  13.334  1.6533  0.7645 -0.3496
 5265TIP3   OH239989   0.343   1.460  11.410  0.7284 -0.1644 -0.6349
 5265TIP3    H139990   0.320   1.425  11.324 -1.3232 -2.3998  0.6670
 5265TIP3    H239991   0.402   1.394  11.447 -0.0754 -0.3160  0.4235
 5266TIP3   OH239992   1.965   7.325  13.635  0.3361  0.2776 -0.2730
 5266TIP3    H139993   1.936   7.313  13.545 -0.7937  0.4345  0.0575
 5266TIP3    H239994   2.046   7.274  13.641 -0.8696 -1.7800 -0.7124
 5267TIP3   OH239995   1.727   0.222  11.089 -0.0005  0.2739  0.0031
 5267TIP3    H139996   1.689   0.295  11.040 -2.3790  0.1969  1.5803
 5267TIP3    H239997   1.676   0.145  11.060  0.6613 -0.2924  0.3250
 5268TIP3   OH239998   7.155   6.725  12.824 -0.3486 -0.1462 -0.4540
 5268TIP3    H139999   7.226   6.662  12.812  1.6643  1.8285  0.2453
 5268TIP3    H240000   7.115   6.734  12.737  0.7543 -0.7910 -1.0474
 5269TIP3   OH240001   1.575   4.017  12.866 -0.1440 -0.4553  0.0237
 5269TIP3    H140002   1.571   4.011  12.961 -0.9345 -0.4536  0.0012
 5269TIP3    H240003   1.483   4.009  12.838 -0.0084  0.4100 -0.6859
 5270TIP3   OH240004   0.979   4.270  12.759  0.5954  0.0714 -0.0201
 5270TIP3    H140005   0.980   4.363  12.737  0.3281  0.5807  1.9540
 5270TIP3    H240006   0.889   4.242  12.745  0.5493  0.2491 -0.0759
 5271TIP3   OH240007   2.630   3.252  13.500  0.1688 -0.1944 -0.7611
 5271TIP3    H140008   2.535   3.253  13.514  0.4693  0.2477  1.5649
 5271TIP3    H240009   2.654   3.345  13.496  0.7788 -0.2263  1.1876
 5272TIP3   OH240010   6.104   0.893  12.723  0.5446 -0.2116 -0.9218
 5272TIP3    H140011   6.072   0.812  12.683  1.9338 -1.8034  0.9641
 5272TIP3    H240012   6.191   0.870  12.756  0.8578  1.9848 -0.0564
 5273TIP3   OH240013   2.375   3.901  12.962 -0.0227 -0.5715 -0.2429
 5273TIP3    H140014   2.311   3.879  12.894  0.0902  0.8702 -0.8595
 5273TIP3    H240015   2.335   3.870  13.043 -1.8062  0.7707 -0.5394
 5274TIP3   OH240016   7.093   4.932  11.708 -0.0768  0.5671 -0.2336
 5274TIP3    H140017   7.095   4.992  11.783  2.1151  1.1865 -0.7380
 5274TIP3    H240018   7.120   4.986  11.634  1.1039 -0.8414 -0.8581
 5275TIP3   OH240019   3.105   3.477  13.707  0.5175  0.0264 -0.3390
 5275TIP3    H140020   3.071   3.460  13.619 -0.8965  1.3453 -0.1088
 5275TIP3    H240021   3.158   3.556  13.697  0.0904  0.3670  0.0302
 5276TIP3   OH240022   4.573   2.330  11.795  0.4376 -0.6131 -0.4155
 5276TIP3    H140023   4.562   2.257  11.856 -1.1269 -0.9164 -1.0173
 5276TIP3    H240024   4.487   2.372  11.792  0.8086  0.0989 -1.5182
 5277TIP3   OH240025   4.278   0.420  10.929  0.2765 -0.0218  0.5250
 5277TIP3    H140026   4.319   0.381  10.851  0.1624 -0.9340  0.9019
 5277TIP3    H240027   4.294   0.514  10.920 -2.6889  0.4070 -2.3951
 5278TIP3   OH240028   4.866   0.164  13.384 -0.4832 -0.2583 -0.0352
 5278TIP3    H140029   4.828   0.166  13.471 -1.3014  3.6520 -0.3204
 5278TIP3    H240030   4.937   0.229  13.387  0.1805 -0.8178 -1.9840
 5279TIP3   OH240031   0.841   1.588  12.398 -0.0392  0.3030  0.3926
 5279TIP3    H140032   0.852   1.672  12.354 -0.1278 -0.0749 -0.3657
 5279TIP3    H240033   0.765   1.549  12.356  1.3435 -1.1597 -0.8956
 5280TIP3   OH240034   1.537   5.430  11.941  0.3308 -0.1949 -0.3854
 5280TIP3    H140035   1.608   5.402  11.998 -1.0967 -0.2039  1.4850
 5280TIP3    H240036   1.529   5.524  11.956  1.9253  0.4552 -2.9785
 5281TIP3   OH240037   3.906   0.054  11.729  0.4430  0.0076  0.3800
 5281TIP3    H140038   3.928  -0.039  11.726 -1.4758 -0.5075  0.5950
 5281TIP3    H240039   3.840   0.065  11.661  1.6657  1.5462 -0.6156
 5282TIP3   OH240040   6.662   1.885  12.106 -0.3883  0.2779  0.6413
 5282TIP3    H140041   6.573   1.915  12.090 -0.4395 -0.9786 -2.0356
 5282TIP3    H240042   6.717   1.951  12.064 -0.2101 -0.2459  0.0364
 5283TIP3   OH240043   2.427   0.632  11.872  0.4622  0.1664 -0.5042
 5283TIP3    H140044   2.512   0.674  11.871 -0.2343  1.6447 -2.5347
 5283TIP3    H240045   2.367   0.697  11.835 -1.9871 -0.0069  2.6943
 5284TIP3   OH240046   2.091   6.808  12.480  0.1248  0.9745  0.2486
 5284TIP3    H140047   2.085   6.903  12.489 -1.3208  0.9043  0.2555
 5284TIP3    H240048   2.035   6.774  12.550  0.3028  0.1278 -0.0115
 5285TIP3   OH240049   6.077   1.659  13.093 -0.2124 -0.0885 -0.2975
 5285TIP3    H140050   6.108   1.568  13.093 -1.9158 -0.7306  0.5357
 5285TIP3    H240051   6.012   1.661  13.163 -1.6785  1.2527 -1.6186
 5286TIP3   OH240052   3.720   5.426  11.496  0.2452  0.4297 -0.0932
 5286TIP3    H140053   3.803   5.422  11.450  0.4456  2.6244 -0.0415
 5286TIP3    H240054   3.737   5.482  11.572 -1.1264  0.4085  0.2643
 5287TIP3   OH240055   7.435   5.819  12.816  0.3535 -0.2396 -0.5183
 5287TIP3    H140056   7.526   5.842  12.834 -0.5606  2.1057  1.7135
 5287TIP3    H240057   7.397   5.801  12.903 -1.3582 -1.0475 -1.3810
 5288TIP3   OH240058   3.520   4.303  13.122  0.7088  0.6184 -0.2770
 5288TIP3    H140059   3.488   4.263  13.041  0.4538  0.3751 -0.0569
 5288TIP3    H240060   3.490   4.394  13.117  1.7748  0.9512 -1.0448
 5289TIP3   OH240061   0.027   5.189  11.673 -0.6329  0.8771 -0.4315
 5289TIP3    H140062  -0.007   5.279  11.667  0.2432  1.3038  0.6265
 5289TIP3    H240063   0.115   5.200  11.710  0.7372 -0.1561 -3.0883
 5290TIP3   OH240064   3.474   6.386  12.201 -0.2547 -0.6082 -0.0200
 5290TIP3    H140065   3.411   6.323  12.237  0.7505 -1.1574  0.8408
 5290TIP3    H240066   3.551   6.333  12.179 -0.2698 -0.0334 -1.5697
 5291TIP3   OH240067   4.415   6.150  13.284 -0.3974  0.0731 -0.5160
 5291TIP3    H140068   4.453   6.145  13.196 -1.9243  2.1679 -1.3547
 5291TIP3    H240069   4.419   6.243  13.307 -1.0179 -0.2836  1.1977
 5292TIP3   OH240070   5.598   0.786  13.517  0.3369 -0.5073 -0.8438
 5292TIP3    H140071   5.546   0.805  13.438 -1.0287  1.8787  0.5145
 5292TIP3    H240072   5.542   0.729  13.570  0.3644 -0.3805 -0.6780
 5293TIP3   OH240073   0.451   7.377  11.797  0.0459  0.2936 -0.1837
 5293TIP3    H140074   0.469   7.288  11.829  1.8450  0.4731 -0.5824
 5293TIP3    H240075   0.381   7.365  11.733  2.0573 -1.3475 -2.3236
 5294TIP3   OH240076   1.398   1.904  12.277  0.2922  0.2623  0.0295
 5294TIP3    H140077   1.416   1.813  12.298 -1.1958  0.4568  2.4472
 5294TIP3    H240078   1.476   1.951  12.305  1.4051 -0.2566 -1.9507
 5295TIP3   OH240079   4.409   6.799  10.885 -0.0496 -0.1363  0.0763
 5295TIP3    H140080   4.314   6.806  10.876 -0.2996  2.0068  2.8870
 5295TIP3    H240081   4.425   6.706  10.903 -1.6003 -0.5442 -0.5736
 5296TIP3   OH240082   5.617   4.718  12.462 -0.7138  0.2545  0.1034
 5296TIP3    H140083   5.578   4.805  12.455  0.2671  0.7742  0.9252
 5296TIP3    H240084   5.639   4.708  12.554 -1.5549 -1.2137  0.1794
 5297TIP3   OH240085   1.514   2.144  11.800 -0.3878  0.6481 -0.4092
 5297TIP3    H140086   1.497   2.063  11.752  1.3366 -0.6348  1.0073
 5297TIP3    H240087   1.473   2.130  11.886 -0.2141  1.3535 -0.2058
 5298TIP3   OH240088   3.435   0.107  12.003  0.7277 -0.3693  0.1707
 5298TIP3    H140089   3.353   0.139  12.039 -0.0314 -0.7874 -1.1230
 5298TIP3    H240090   3.487   0.186  11.986 -0.9684  0.2773 -2.6275
 5299TIP3   OH240091   5.006   0.434  12.194  0.4045 -0.1176  0.0436
 5299TIP3    H140092   5.039   0.486  12.120 -0.4114 -0.2519 -0.4311
 5299TIP3    H240093   4.991   0.347  12.157 -0.6350 -0.0146  0.1816
 5300TIP3   OH240094   1.654   0.551  12.269 -0.5928 -0.1294  0.3268
 5300TIP3    H140095   1.569   0.594  12.277 -0.3122  0.8707 -1.5028
 5300TIP3    H240096   1.665   0.537  12.174  1.1969 -0.4004  0.5355
 5301TIP3   OH240097   0.723   7.675  12.137  0.1913  0.1404  0.1405
 5301TIP3    H140098   0.650   7.637  12.088  0.6574 -0.8214  0.1608
 5301TIP3    H240099   0.698   7.766  12.150 -0.4627  0.1359 -0.8994
 5302TIP3   OH240100   0.644   5.904  12.415 -0.0149 -0.3606 -0.4403
 5302TIP3    H140101   0.690   5.987  12.406  0.0004 -0.3139  0.0267
 5302TIP3    H240102   0.585   5.917  12.489 -1.0178 -0.3150 -1.2304
 5303TIP3   OH240103   2.917   0.387  13.897  0.6313  0.1771 -0.6202
 5303TIP3    H140104   2.884   0.463  13.945  2.3502  1.7410 -1.7513
 5303TIP3    H240105   2.960   0.425  13.820 -0.2019 -2.0918 -2.3119
 5304TIP3   OH240106   3.006   2.291  11.574  0.3453  0.1866 -0.5279
 5304TIP3    H140107   2.952   2.370  11.564  0.9994  0.7192  0.0090
 5304TIP3    H240108   3.042   2.276  11.487  0.6267  0.8051 -0.5309
 5305TIP3   OH240109   2.277   4.126  13.687 -0.5127 -0.2278  0.1070
 5305TIP3    H140110   2.219   4.063  13.729  0.9559 -1.5319  0.2656
 5305TIP3    H240111   2.358   4.077  13.671  0.7256  1.6543  0.3354
 5306TIP3   OH240112   3.146   4.813  11.521 -0.4016  0.5633 -0.6238
 5306TIP3    H140113   3.182   4.790  11.606 -0.3493  1.0429 -0.5114
 5306TIP3    H240114   3.063   4.766  11.516  0.7357 -1.5016 -1.3739
 5307TIP3   OH240115   7.071   5.990  12.304  0.7279  0.3544 -0.1274
 5307TIP3    H140116   7.110   6.053  12.244  1.6775 -1.0524 -1.0670
 5307TIP3    H240117   7.141   5.970  12.367 -0.0762  1.3842  1.1485
 5308TIP3   OH240118   6.033   4.068  12.813  0.0220 -0.3625 -0.0653
 5308TIP3    H140119   5.981   4.007  12.761 -1.6606  1.6730 -0.9205
 5308TIP3    H240120   5.992   4.068  12.899 -0.6327  0.2657 -0.3620
 5309TIP3   OH240121   1.188   3.114  11.119 -0.0239  0.3877  0.4151
 5309TIP3    H140122   1.137   3.081  11.193  1.9051 -1.3659  1.0767
 5309TIP3    H240123   1.219   3.035  11.075 -1.4016  1.3821 -2.5611
 5310TIP3   OH240124   4.364   7.067  13.066  0.0537 -0.3071 -0.3772
 5310TIP3    H140125   4.450   7.036  13.095  0.5903 -0.0438 -1.6120
 5310TIP3    H240126   4.382   7.110  12.982 -1.2792 -0.1982 -0.6167
 5311TIP3   OH240127   0.297   1.518  11.834 -0.0627  0.0141  0.1681
 5311TIP3    H140128   0.269   1.597  11.879 -0.3136  0.1878 -0.2950
 5311TIP3    H240129   0.244   1.514  11.755 -1.4618 -1.6325  1.1036
 5312TIP3   OH240130   7.554   4.704  11.855  0.3067  0.0274 -0.0643
 5312TIP3    H140131   7.513   4.772  11.908 -0.3064 -1.3929  1.3594
 5312TIP3    H240132   7.606   4.652  11.916 -0.8184 -1.9619 -0.6918
 5313TIP3   OH240133   1.535   3.004  11.675 -0.1877 -0.1256 -0.3146
 5313TIP3    H140134   1.510   2.969  11.590  1.0714  2.8927 -2.0602
 5313TIP3    H240135   1.626   2.977  11.688  0.1721  0.8183 -0.7748
 5314TIP3   OH240136   0.420   3.323  13.392  0.3401  0.1385  0.1553
 5314TIP3    H140137   0.345   3.343  13.336  0.9575 -0.1055 -0.7833
 5314TIP3    H240138   0.494   3.321  13.332  1.3342  1.7120  1.2389
 5315TIP3   OH240139   5.277   6.619  12.116 -0.5819 -0.0152 -0.2899
 5315TIP3    H140140   5.318   6.533  12.106 -1.1612 -0.2904 -0.3848
 5315TIP3    H240141   5.290   6.662  12.032  1.6690  0.8948  0.4524
 5316TIP3   OH240142   0.623   6.645  12.288 -0.1107  0.5132 -0.3661
 5316TIP3    H140143   0.656   6.724  12.245 -0.2019  0.3019 -0.8297
 5316TIP3    H240144   0.688   6.626  12.357  0.4245  0.4306 -0.8893
 5317TIP3   OH240145   7.135   3.923  11.080  0.2139 -0.4439 -0.2648
 5317TIP3    H140146   7.154   3.937  10.987 -0.3673  0.7554 -0.2234
 5317TIP3    H240147   7.219   3.895  11.117  0.6854 -0.0425 -0.9863
 5318TIP3   OH240148   2.202   7.220  13.776  0.5295  0.5714 -0.0685
 5318TIP3    H140149   2.192   7.124  13.771 -0.7810  0.7390 -1.3536
 5318TIP3    H240150   2.175   7.242  13.866 -0.1483 -0.1772 -0.0741
 5319TIP3   OH240151   1.341   3.160  13.607  0.4016 -0.6160  0.1187
 5319TIP3    H140152   1.373   3.131  13.521  2.7766 -2.0596  1.4013
 5319TIP3    H240153   1.300   3.082  13.645 -0.9544  0.1056  0.2339
 5320TIP3   OH240154   6.540   3.083  12.875  0.4325  0.4638 -0.0342
 5320TIP3    H140155   6.584   3.037  12.946  1.0021 -0.1557 -0.7678
 5320TIP3    H240156   6.497   3.013  12.825 -4.0441  1.1462  2.2789
 5321TIP3   OH240157   7.423   1.769  12.099 -0.4767  0.5314  0.4663
 5321TIP3    H140158   7.494   1.826  12.070 -0.5944  1.6989  2.3274
 5321TIP3    H240159   7.348   1.827  12.109 -1.6527 -0.6166 -1.0946
 5322TIP3   OH240160   4.474   6.855  11.156  0.1573  0.2103  0.0519
 5322TIP3    H140161   4.486   6.899  11.072  0.6855  1.1299  0.5967
 5322TIP3    H240162   4.520   6.771  11.146  0.1016  0.2549 -0.6116
 5323TIP3   OH240163   1.590   5.359  11.506 -0.9305  0.6447 -0.3802
 5323TIP3    H140164   1.517   5.307  11.540 -0.5434  0.1838 -0.2481
 5323TIP3    H240165   1.548   5.426  11.451 -1.5051  0.8672  0.3127
 5324TIP3   OH240166   1.965   4.091  12.998 -0.4767 -0.5722  0.4989
 5324TIP3    H140167   2.044   4.123  12.956 -0.0815 -0.8879  0.9923
 5324TIP3    H240168   1.894   4.120  12.941 -0.0378  0.0656  0.2703
 5325TIP3   OH240169   0.816   3.337  13.637  0.0694  0.2148  0.0552
 5325TIP3    H140170   0.770   3.414  13.668 -0.0699 -0.1961  0.8830
 5325TIP3    H240171   0.747   3.278  13.608  0.1107 -0.0956  0.5826
 5326TIP3   OH240172   1.901   7.598  13.642  0.2909  0.5605  0.1593
 5326TIP3    H140173   1.813   7.614  13.674 -0.5811 -1.5713 -0.9231
 5326TIP3    H240174   1.922   7.510  13.674  0.3948 -0.5882 -2.7459
 5327TIP3   OH240175   1.248   3.407  10.865 -0.0507  0.5852 -0.1594
 5327TIP3    H140176   1.164   3.408  10.911 -1.3329 -3.1266 -2.0354
 5327TIP3    H240177   1.248   3.488  10.813 -2.0624  1.1009  0.5544
 5328TIP3   OH240178   6.470   2.063  12.319 -0.4065 -0.1983 -0.3421
 5328TIP3    H140179   6.564   2.062  12.334 -0.3677 -2.9086 -0.3625
 5328TIP3    H240180   6.460   2.068  12.224 -0.2743 -0.2298 -0.3580
 5329TIP3   OH240181   6.974   1.330  12.857 -0.2580  0.0703 -0.2903
 5329TIP3    H140182   6.920   1.399  12.819 -0.7419  0.3753  0.9186
 5329TIP3    H240183   6.945   1.324  12.948  1.1545 -0.3546  0.1523
 5330TIP3   OH240184   2.587   5.929  12.315 -0.3249 -0.3622  0.2082
 5330TIP3    H140185   2.682   5.936  12.316 -0.3836  0.7386  1.5518
 5330TIP3    H240186   2.564   5.922  12.222  0.9536  1.4400 -0.2990
 5331TIP3   OH240187   0.379   2.345  11.055  0.5394 -0.3411  0.2808
 5331TIP3    H140188   0.439   2.418  11.070  1.8356 -0.6966 -2.5641
 5331TIP3    H240189   0.419   2.271  11.100  0.2817  0.1814  1.4275
 5332TIP3   OH240190   0.457   5.201  11.981  0.2531  0.4484 -0.1350
 5332TIP3    H140191   0.517   5.210  11.907 -0.1489  1.1252 -0.3876
 5332TIP3    H240192   0.392   5.137  11.952  1.2626 -0.8692  0.4253
 5333TIP3   OH240193   7.101   5.539  13.008  0.0190  0.0840 -0.0141
 5333TIP3    H140194   7.060   5.580  13.085  0.1830  1.2700 -0.5304
 5333TIP3    H240195   7.092   5.445  13.023 -0.4703  0.3011  1.1765
 5334TIP3   OH240196   6.090   2.599  13.195  0.4359  0.2317 -0.1618
 5334TIP3    H140197   6.087   2.576  13.102 -0.5006 -3.1839  0.5858
 5334TIP3    H240198   6.001   2.584  13.226  1.3536 -1.5465  1.8355
 5335TIP3   OH240199   6.432   2.971  11.664 -0.0818  0.1922 -0.0109
 5335TIP3    H140200   6.419   2.926  11.748 -1.1666 -0.1371 -0.3469
 5335TIP3    H240201   6.347   3.009  11.644  0.1666  0.2472 -0.9856
 5336TIP3   OH240202   3.995   4.002  13.189  0.0664  0.2321 -0.3429
 5336TIP3    H140203   3.976   3.909  13.172  1.3020 -0.2073  0.5916
 5336TIP3    H240204   3.968   4.016  13.279 -0.0392  0.7654 -0.4561
 5337TIP3   OH240205   6.967   4.640  11.945  0.6560  0.2906 -0.0597
 5337TIP3    H140206   6.965   4.548  11.969  0.5836 -0.3500 -2.3092
 5337TIP3    H240207   7.060   4.662  11.939  0.8414 -0.8611 -3.4963
 5338TIP3   OH240208   0.483   7.211  12.395 -0.2327 -0.2741 -0.0596
 5338TIP3    H140209   0.465   7.283  12.335  2.5149 -2.3365 -3.8171
 5338TIP3    H240210   0.474   7.132  12.341  0.6165 -2.4949  2.7773
 5339TIP3   OH240211   7.460   3.123  11.579 -0.0730 -0.0183  0.2235
 5339TIP3    H140212   7.547   3.108  11.616  0.5081  0.1785 -1.0016
 5339TIP3    H240213   7.401   3.124  11.654  0.8598 -1.0530  0.9901
 5340TIP3   OH240214   3.578   7.376  11.218  0.7754 -0.1369  0.3242
 5340TIP3    H140215   3.663   7.412  11.245  0.3441  2.3730 -1.3470
 5340TIP3    H240216   3.519   7.451  11.218 -1.2490 -1.6445  0.5033
 5341TIP3   OH240217   0.048   0.962  12.324 -0.1072  0.0140 -0.0224
 5341TIP3    H140218   0.014   0.995  12.407 -0.8556 -1.4206  0.2783
 5341TIP3    H240219  -0.005   1.007  12.257 -2.6082 -2.0271  0.4375
 5342TIP3   OH240220   6.662   0.947  10.959 -0.3404 -0.3545  0.0530
 5342TIP3    H140221   6.751   0.966  10.927 -0.5861  2.4478  0.7907
 5342TIP3    H240222   6.606   0.959  10.883 -0.2056 -1.3114 -0.2144
 5343TIP3   OH240223   3.621   7.676  11.155  0.7232 -0.1461  0.3748
 5343TIP3    H140224   3.626   7.719  11.070  1.1997  1.7243  1.3057
 5343TIP3    H240225   3.544   7.620  11.148 -0.3542  1.3860 -0.6798
 5344TIP3   OH240226   6.264   2.830  13.068  0.3390 -0.0904  0.2382
 5344TIP3    H140227   6.216   2.787  13.139  1.7311 -2.2664 -0.0421
 5344TIP3    H240228   6.351   2.848  13.104  0.8709 -0.6766 -0.7066
 5345TIP3   OH240229   2.777   1.033  12.880  0.4362 -0.5559  0.1742
 5345TIP3    H140230   2.765   1.002  12.790  1.2202  0.7255 -0.3827
 5345TIP3    H240231   2.783   0.952  12.931  0.8247 -1.3275 -1.0305
 5346TIP3   OH240232   4.917   7.405  12.165 -0.2916  0.2330  0.1243
 5346TIP3    H140233   4.930   7.406  12.070 -1.9992  0.2116 -0.1447
 5346TIP3    H240234   4.866   7.484  12.183 -0.0095  0.2172  1.0269
 5347TIP3   OH240235   4.087   7.205  13.062  0.0834  0.7933  0.3588
 5347TIP3    H140236   4.123   7.269  13.124  2.0947 -1.1447  1.3303
 5347TIP3    H240237   4.157   7.140  13.052 -1.8064 -1.1984 -0.6705
 5348TIP3   OH240238   1.771   1.313  11.795 -0.0508 -0.3030 -0.2389
 5348TIP3    H140239   1.836   1.358  11.741 -0.8660 -0.6793 -1.5804
 5348TIP3    H240240   1.796   1.221  11.791 -1.4211 -0.6528 -1.9410
 5349TIP3   OH240241   7.321   1.233  13.527  0.0587  0.4484  0.0049
 5349TIP3    H140242   7.238   1.189  13.543  0.1130 -0.1290 -1.2173
 5349TIP3    H240243   7.296   1.317  13.488  0.0188  0.9228  0.9933
 5350TIP3   OH240244   4.663   7.174  11.578 -0.1757  0.0745 -0.4256
 5350TIP3    H140245   4.621   7.188  11.663 -2.5162 -0.5323 -1.4190
 5350TIP3    H240246   4.689   7.261  11.549 -0.8138  0.4722  0.1907
 5351TIP3   OH240247   0.179   7.299  13.431  0.5743  0.4896 -0.1179
 5351TIP3    H140248   0.242   7.334  13.369  1.2546  1.7867  1.2477
 5351TIP3    H240249   0.097   7.343  13.410  0.8298  1.0112 -0.0361
 5352TIP3   OH240250   4.328   6.494  13.077  0.1650  0.2842 -0.0252
 5352TIP3    H140251   4.279   6.442  13.141 -1.0292  1.6787  0.2284
 5352TIP3    H240252   4.372   6.561  13.129  1.0244  0.0671 -0.4448
 5353TIP3   OH240253   3.284   5.223  11.800 -0.0308 -0.1775 -0.3978
 5353TIP3    H140254   3.340   5.300  11.801  1.6025 -1.3044 -0.5154
 5353TIP3    H240255   3.311   5.172  11.876 -0.6113 -0.9455 -0.6840
 5354TIP3   OH240256   7.157   2.569  10.978 -0.1636 -0.1423 -0.4370
 5354TIP3    H140257   7.252   2.573  10.983 -0.2325 -0.2525  1.4907
 5354TIP3    H240258   7.139   2.529  10.893  1.5240 -1.0635 -0.3912
 5355TIP3   OH240259   3.084   1.844  11.122  0.2245 -0.1685  0.3134
 5355TIP3    H140260   3.034   1.871  11.045  0.2891  0.1526  0.3837
 5355TIP3    H240261   3.071   1.915  11.185  0.7957 -0.0741  0.3213
 5356TIP3   OH240262   3.104   2.256  13.097 -0.1105  0.1032  0.1784
 5356TIP3    H140263   3.049   2.296  13.165 -0.1802 -0.4985  0.4786
 5356TIP3    H240264   3.073   2.296  13.015  0.4744  1.4047  0.5587
 5357TIP3   OH240265   4.959   0.052  13.154 -0.0588 -0.2507  0.0853
 5357TIP3    H140266   4.917   0.072  13.237 -0.5705  0.6775 -0.3804
 5357TIP3    H240267   5.049   0.084  13.163 -0.1198 -0.1313  0.2748
 5358TIP3   OH240268   1.338   2.666  12.863  1.1435  0.7758  0.2259
 5358TIP3    H140269   1.380   2.723  12.927  1.2364  1.8468 -0.7445
 5358TIP3    H240270   1.330   2.721  12.785 -1.0111  0.2287  0.0146
 5359TIP3   OH240271   5.308   4.748  12.448  0.4164 -0.3145 -0.1229
 5359TIP3    H140272   5.296   4.806  12.373  1.2151  0.5647  0.4102
 5359TIP3    H240273   5.340   4.666  12.410  1.7429  0.4305 -0.6689
 5360TIP3   OH240274   6.514   2.776  11.099  0.1135  0.4150 -0.0008
 5360TIP3    H140275   6.526   2.701  11.041 -1.4465 -0.2816  0.5132
 5360TIP3    H240276   6.483   2.846  11.042  0.6631  0.3905 -0.3347
 5361TIP3   OH240277   0.460   7.023  13.576 -0.4407  0.0380  0.2061
 5361TIP3    H140278   0.493   7.040  13.488 -2.0260  0.4068 -0.3643
 5361TIP3    H240279   0.537   7.027  13.633  0.4891  0.6034 -1.0515
 5362TIP3   OH240280   3.683   1.118  12.213  0.1996  0.5315 -0.3166
 5362TIP3    H140281   3.630   1.040  12.231 -0.8454  1.2602 -0.1281
 5362TIP3    H240282   3.751   1.088  12.153  0.6105 -0.8167  0.7675
 5363TIP3   OH240283   3.566   4.789  12.973 -0.2974  0.0831  0.2814
 5363TIP3    H140284   3.490   4.816  13.025  0.9790  1.2791  1.6370
 5363TIP3    H240285   3.572   4.855  12.904 -0.8807 -0.4275 -0.2755
 5364TIP3   OH240286   6.420   0.975  11.381  0.2488 -0.3821  0.3994
 5364TIP3    H140287   6.500   1.019  11.352  0.4841 -1.2921 -0.3705
 5364TIP3    H240288   6.416   0.896  11.328 -1.2907 -0.2330  0.2550
 5365TIP3   OH240289   6.160   6.740  12.075  0.2824  0.5860 -0.4528
 5365TIP3    H140290   6.165   6.645  12.063 -0.7054  0.3202  0.9597
 5365TIP3    H240291   6.083   6.753  12.129  1.7504  1.9760  1.4672
 5366TIP3   OH240292   0.993   4.881  11.328  1.0276 -0.3368  0.5640
 5366TIP3    H140293   1.036   4.909  11.409 -1.6060 -0.1129  2.0119
 5366TIP3    H240294   1.055   4.820  11.287  2.8843  0.3555  2.1813
 5367TIP3   OH240295   2.530   5.321  11.521  0.7525 -0.2948  0.3115
 5367TIP3    H140296   2.451   5.306  11.574  0.0614  0.6932 -0.3991
 5367TIP3    H240297   2.600   5.333  11.585  0.2010 -0.4969  0.9712
 5368TIP3   OH240298   5.428   3.765  11.823  0.3301  0.4338 -0.4822
 5368TIP3    H140299   5.460   3.799  11.740  1.8547 -1.3857 -0.7119
 5368TIP3    H240300   5.369   3.694  11.799  3.0464 -2.1202 -0.1499
 5369TIP3   OH240301   5.186   3.369  10.954 -0.2159  0.2304 -0.1719
 5369TIP3    H140302   5.125   3.367  11.027  1.1119  1.1275  1.0033
 5369TIP3    H240303   5.179   3.457  10.919  0.7794  0.5245  0.3306
 5370TIP3   OH240304   7.164   0.978  13.763  0.0017  0.3859  0.2065
 5370TIP3    H140305   7.247   0.934  13.743 -0.8140 -1.3020  0.3953
 5370TIP3    H240306   7.099   0.909  13.761 -1.2704  1.5076  1.1054
 5371TIP3   OH240307   3.902   1.892  11.464 -0.2782  0.3787  0.4829
 5371TIP3    H140308   3.876   1.920  11.552 -0.7584 -0.4211  0.6060
 5371TIP3    H240309   3.834   1.929  11.407  0.7985  2.0991  0.2588
 5372TIP3   OH240310   6.549   6.405  11.048  0.1332  0.1139  0.0181
 5372TIP3    H140311   6.459   6.399  11.081  0.5125  0.2935  1.1214
 5372TIP3    H240312   6.566   6.499  11.043  0.9468  0.1156  1.8428
 5373TIP3   OH240313   7.477   7.315  11.848 -0.3780  0.0765  0.2112
 5373TIP3    H140314   7.487   7.307  11.753 -0.1507  1.2836  0.1261
 5373TIP3    H240315   7.508   7.231  11.882 -0.7033 -0.4684 -0.7913
 5374TIP3   OH240316   6.988   5.740  12.222  0.0959 -0.3792  0.2669
 5374TIP3    H140317   7.076   5.733  12.186  0.9848 -1.0757  2.4105
 5374TIP3    H240318   6.975   5.833  12.235  0.8541 -0.3097  0.6223
 5375TIP3   OH240319   7.440   1.505  11.394  0.1906 -0.2310  0.8806
 5375TIP3    H140320   7.438   1.460  11.478  1.8044 -1.9111  0.0956
 5375TIP3    H240321   7.525   1.482  11.356 -0.9778 -0.5977 -1.7684
 5376TIP3   OH240322   0.647   4.284  10.927  0.0822  0.1176  1.2864
 5376TIP3    H140323   0.641   4.363  10.872 -2.7417 -0.1990  0.9952
 5376TIP3    H240324   0.589   4.221  10.884 -0.5907 -0.8475  3.4743
 5377TIP3   OH240325   2.453   5.821  12.754 -0.0878  0.1002  0.2302
 5377TIP3    H140326   2.470   5.891  12.690  0.8001  0.4429  0.8250
 5377TIP3    H240327   2.458   5.865  12.839  2.9150 -1.0806  0.7849
 5378TIP3   OH240328   0.030   1.805  11.749  0.0436 -0.0425 -0.3958
 5378TIP3    H140329   0.019   1.719  11.709 -1.6308  0.1711 -0.4750
 5378TIP3    H240330   0.007   1.867  11.680  0.1626  0.4353 -0.0109
 5379TIP3   OH240331   7.548   1.302  11.252 -0.4662 -0.5318  0.2621
 5379TIP3    H140332   7.604   1.309  11.174  0.7778  0.5623  1.1951
 5379TIP3    H240333   7.468   1.348  11.228  0.8612  2.0267  0.3805
 5380TIP3   OH240334   1.748   2.245  13.037 -0.5638  0.2766  0.6958
 5380TIP3    H140335   1.684   2.192  12.990 -0.5122 -0.0434  0.9847
 5380TIP3    H240336   1.744   2.331  12.995  0.3423 -0.3292 -0.7094
 5381TIP3   OH240337   4.666   5.094  12.457 -0.4529 -0.1022 -0.0911
 5381TIP3    H140338   4.726   5.026  12.427 -0.3395 -0.7740  1.5311
 5381TIP3    H240339   4.706   5.128  12.538 -0.9121  1.3415 -0.4335
 5382TIP3   OH240340   6.571   3.478  12.018  0.5740 -0.8679 -0.5180
 5382TIP3    H140341   6.498   3.467  12.080 -1.1416 -2.0485 -2.5999
 5382TIP3    H240342   6.626   3.401  12.033  0.9326 -0.4329  0.4633
 5383TIP3   OH240343   0.090   2.208  12.623  0.3632 -0.5092  0.4957
 5383TIP3    H140344   0.023   2.154  12.581  0.1391 -0.0238  0.2182
 5383TIP3    H240345   0.057   2.298  12.616 -0.0831 -0.4788  2.4649
 5384TIP3   OH240346   5.979   5.734  12.675  0.1793 -0.6228 -0.3821
 5384TIP3    H140347   6.008   5.805  12.732 -0.6211 -0.5169 -0.1025
 5384TIP3    H240348   6.042   5.663  12.692  0.5236 -0.2556 -0.0980
 5385TIP3   OH240349   2.238   6.778  11.052 -0.1572  0.4811 -0.1008
 5385TIP3    H140350   2.181   6.778  10.975  1.5225  1.2991 -1.4265
 5385TIP3    H240351   2.291   6.698  11.042  1.0417  1.3088 -0.6083
 5386TIP3   OH240352   5.130   2.452  11.626  0.3883 -0.7705  0.4942
 5386TIP3    H140353   5.048   2.404  11.632 -0.0576 -0.3008 -1.3492
 5386TIP3    H240354   5.184   2.399  11.567  0.3413  0.3199 -0.5616
 5387TIP3   OH240355   4.610   2.912  13.301  0.5174  0.1347 -0.2366
 5387TIP3    H140356   4.588   3.001  13.275 -1.8299  0.4497  2.3870
 5387TIP3    H240357   4.529   2.862  13.287  0.8442 -0.8511  1.2242
 5388TIP3   OH240358   1.916   2.051  12.908  0.3723 -0.1054  0.3871
 5388TIP3    H140359   1.985   2.095  12.859  0.5614 -0.9004 -0.0910
 5388TIP3    H240360   1.878   2.119  12.964  2.6721 -0.0073  1.9474
 5389TIP3   OH240361   6.160   0.449  11.877 -0.1301 -0.0671 -0.7926
 5389TIP3    H140362   6.077   0.445  11.924 -0.2971 -2.2924 -1.1842
 5389TIP3    H240363   6.144   0.511  11.806 -0.1689  2.6145  1.3660
 5390TIP3   OH240364   1.084   2.009  12.017  0.0333 -0.0074 -0.4632
 5390TIP3    H140365   0.991   2.012  12.038  0.3594 -0.7828  1.1787
 5390TIP3    H240366   1.109   1.917  12.027  1.2218  0.3739  0.3001
 5391TIP3   OH240367   4.934   0.671   5.394  0.1731 -0.0160 -0.3560
 5391TIP3    H140368   4.914   0.681   5.301 -2.5493  0.1566  0.1555
 5391TIP3    H240369   5.029   0.685   5.400  0.0988  2.4700 -2.7835
 5392TIP3   OH240370   3.232   0.234   5.780  0.0467 -0.1955 -0.3322
 5392TIP3    H140371   3.302   0.289   5.744 -0.5771  0.3785 -0.7033
 5392TIP3    H240372   3.156   0.255   5.726  0.2342 -2.9305 -1.8650
 5393TIP3   OH240373   5.466   0.760   6.075  0.3794 -0.1694 -0.6290
 5393TIP3    H140374   5.504   0.839   6.113  1.7919 -1.1270  0.0689
 5393TIP3    H240375   5.376   0.757   6.108  0.6386  0.5999  0.1770
 5394TIP3   OH240376   6.382   7.441   6.332  0.0218  0.5761 -0.3468
 5394TIP3    H140377   6.371   7.369   6.394  0.9447  0.1025 -0.7172
 5394TIP3    H240378   6.414   7.399   6.253  0.8490  1.4338 -0.4738
 5395TIP3   OH240379   2.798   6.954   6.847 -0.0781  0.1404 -0.4890
 5395TIP3    H140380   2.881   6.948   6.801  0.4057  2.3629 -0.0367
 5395TIP3    H240381   2.817   6.923   6.936  0.4613  1.1700 -0.2224
 5396TIP3   OH240382   1.924   2.701   5.222 -0.3169  0.0584  0.0486
 5396TIP3    H140383   1.950   2.671   5.309 -1.6884 -0.6321  0.2614
 5396TIP3    H240384   1.938   2.796   5.224  1.7424 -0.2218  0.2369
 5397TIP3   OH240385   3.140   2.559   6.497  0.1190 -0.4590 -0.1247
 5397TIP3    H140386   3.077   2.559   6.570 -2.1182  0.4462 -1.9269
 5397TIP3    H240387   3.178   2.647   6.498  0.4870 -0.6175  0.2390
 5398TIP3   OH240388   3.058   6.923   6.728 -0.6148 -0.2135  0.1038
 5398TIP3    H140389   3.086   6.844   6.775  0.3801 -0.0382 -0.1773
 5398TIP3    H240390   3.038   6.892   6.640 -4.1380 -0.8624  0.9860
 5399TIP3   OH240391   2.244   5.291   5.640 -0.3842 -0.0083 -0.3454
 5399TIP3    H140392   2.246   5.212   5.693  0.5660  0.1571 -0.1081
 5399TIP3    H240393   2.336   5.307   5.617 -0.5843  0.8922 -0.5780
 5400TIP3   OH240394   6.223   3.277   6.329  0.1894 -0.2511 -0.1563
 5400TIP3    H140395   6.172   3.223   6.270 -2.2840  1.1652  0.5684
 5400TIP3    H240396   6.167   3.351   6.349  2.1666  0.9057  1.5053
 5401TIP3   OH240397   5.171   2.997   5.280  0.3056  0.1309 -0.1502
 5401TIP3    H140398   5.151   3.067   5.342 -1.1669 -0.4493  0.0552
 5401TIP3    H240399   5.211   3.043   5.206  3.5979  0.6852  1.7693
 5402TIP3   OH240400   2.379   2.126   5.977 -0.2028 -0.1956  0.1258
 5402TIP3    H140401   2.409   2.217   5.982  0.5828 -0.4066 -0.5590
 5402TIP3    H240402   2.305   2.122   6.038 -0.0538  0.8233  0.3942
 5403TIP3   OH240403   0.492   0.355   6.761  0.3470  0.0461 -0.5618
 5403TIP3    H140404   0.570   0.406   6.782  0.0769 -0.3207  1.5227
 5403TIP3    H240405   0.523   0.264   6.758 -0.0026 -0.1138  0.4087
 5404TIP3   OH240406   0.013   2.288   7.099 -0.1975 -0.2643 -0.2659
 5404TIP3    H140407   0.064   2.366   7.080 -0.7761 -0.1281 -1.3512
 5404TIP3    H240408   0.062   2.242   7.167  0.0502  1.1331  0.5220
 5405TIP3   OH240409   2.529   2.991   5.567  0.3849  0.4873 -0.1270
 5405TIP3    H140410   2.527   3.068   5.509  1.2276 -0.8405 -2.0015
 5405TIP3    H240411   2.527   3.028   5.656 -0.7638  2.5993 -0.9604
 5406TIP3   OH240412   0.478   0.572   5.537  0.1077  0.2783 -0.2248
 5406TIP3    H140413   0.541   0.636   5.569 -0.3157  0.6137 -0.0606
 5406TIP3    H240414   0.492   0.495   5.593 -0.7461  0.9216  0.8982
 5407TIP3   OH240415   1.631   4.187   5.382 -0.1768  0.0506 -0.4645
 5407TIP3    H140416   1.560   4.170   5.443  0.0402  0.5298 -0.0771
 5407TIP3    H240417   1.676   4.103   5.374 -0.2954 -0.0496 -0.0829
 5408TIP3   OH240418   3.401   4.617   6.401  0.0537 -0.4291 -0.1655
 5408TIP3    H140419   3.429   4.548   6.341 -0.5752  0.3209 -1.3564
 5408TIP3    H240420   3.311   4.593   6.425 -0.7292  0.7348 -1.7920
 5409TIP3   OH240421   3.297   4.717   7.572  0.2996  0.1949 -0.1548
 5409TIP3    H140422   3.346   4.696   7.493 -0.9370 -0.0640 -0.8805
 5409TIP3    H240423   3.252   4.636   7.594  0.1446  0.4435  0.4572
 5410TIP3   OH240424   6.545   5.905   5.934 -0.5599 -0.7507  0.2781
 5410TIP3    H140425   6.632   5.944   5.925 -1.2564  0.5047 -2.0452
 5410TIP3    H240426   6.505   5.950   6.008  0.4088 -0.6159  0.7239
 5411TIP3   OH240427   2.159   7.158   7.275  0.3388  0.0711 -0.1275
 5411TIP3    H140428   2.075   7.198   7.257  1.4476  2.6804  0.0759
 5411TIP3    H240429   2.161   7.149   7.370 -0.4522 -1.8655 -0.2544
 5412TIP3   OH240430   1.250   0.804   6.272 -0.7620  0.9116  0.2467
 5412TIP3    H140431   1.256   0.871   6.204  0.0546  0.7723  0.1714
 5412TIP3    H240432   1.196   0.735   6.232  1.0951  0.0705 -0.9222
 5413TIP3   OH240433   0.466   3.535   4.904 -0.4397  0.5760  0.3270
 5413TIP3    H140434   0.552   3.499   4.882 -1.1606 -1.6431  0.8344
 5413TIP3    H240435   0.477   3.575   4.990 -0.1024 -0.5384  0.8147
 5414TIP3   OH240436   0.795   1.017   5.503  0.4633  0.0217  0.4266
 5414TIP3    H140437   0.713   0.968   5.494  0.5384 -0.0858  0.3339
 5414TIP3    H240438   0.829   1.023   5.414  1.1247 -0.9087  0.6045
 5415TIP3   OH240439   2.410   5.555   5.386  0.1407 -0.8098 -0.5076
 5415TIP3    H140440   2.451   5.556   5.472 -1.6756 -1.5557  0.4253
 5415TIP3    H240441   2.482   5.564   5.324  1.3472  1.7463  1.1126
 5416TIP3   OH240442   4.134   7.552   5.421 -0.0565 -0.2735 -0.7656
 5416TIP3    H140443   4.223   7.576   5.447 -1.0495  1.2369  1.5867
 5416TIP3    H240444   4.091   7.635   5.403 -1.3581 -0.8681 -0.5209
 5417TIP3   OH240445   2.264   3.459   6.904 -0.3839 -0.2013 -0.2669
 5417TIP3    H140446   2.201   3.389   6.886 -1.1902  0.3217  0.4201
 5417TIP3    H240447   2.325   3.421   6.967 -0.2863 -0.5593 -0.5718
 5418TIP3   OH240448   7.502   3.163   7.229  0.1193 -0.1153  0.4067
 5418TIP3    H140449   7.419   3.116   7.227 -1.4296  2.4226  0.3893
 5418TIP3    H240450   7.509   3.197   7.318  0.2253  1.0983 -0.0320
 5419TIP3   OH240451   7.251   3.453   5.877  0.1058  0.1710  0.0564
 5419TIP3    H140452   7.303   3.398   5.936  0.3791  1.2968  0.9060
 5419TIP3    H240453   7.315   3.508   5.833 -0.3093  1.4118  0.9468
 5420TIP3   OH240454   4.921   5.871   4.926  0.1649 -0.4270  0.2202
 5420TIP3    H140455   4.869   5.822   4.862 -1.0998 -1.1602  1.7256
 5420TIP3    H240456   4.935   5.808   4.997 -1.3207  1.2704  2.1225
 5421TIP3   OH240457   1.034   4.362   6.380  1.0190  0.3787 -0.0009
 5421TIP3    H140458   0.997   4.382   6.466 -1.4270 -1.1376 -0.5892
 5421TIP3    H240459   1.000   4.431   6.323  0.2214 -0.1997 -0.2546
 5422TIP3   OH240460   5.158   2.234   5.295  0.5566  0.3018  0.2321
 5422TIP3    H140461   5.170   2.318   5.251 -2.3884  1.0393  0.6301
 5422TIP3    H240462   5.072   2.204   5.266  0.9688 -1.9834  1.1340
 5423TIP3   OH240463   7.248   0.758   7.099  0.4378  0.0702  0.4568
 5423TIP3    H140464   7.338   0.769   7.130  0.2545  2.0101  0.4283
 5423TIP3    H240465   7.194   0.780   7.174 -0.0040  0.9841 -0.1176
 5424TIP3   OH240466   1.230   1.172   6.345 -0.3385  0.3817  0.3418
 5424TIP3    H140467   1.201   1.237   6.408 -0.6739  2.5594 -1.8940
 5424TIP3    H240468   1.151   1.147   6.297 -0.5074 -2.8844  2.0228
 5425TIP3   OH240469   0.391   2.294   6.994  0.2732 -0.5196 -0.8416
 5425TIP3    H140470   0.448   2.290   6.917 -0.0300 -1.0615 -1.0460
 5425TIP3    H240471   0.427   2.228   7.053  0.0411 -0.6521 -0.8466
 5426TIP3   OH240472   6.959   6.202   6.515  0.5712 -0.6089  0.5396
 5426TIP3    H140473   6.986   6.198   6.423  0.5900  0.4020  0.4813
 5426TIP3    H240474   7.041   6.209   6.564  0.5312  1.4381  0.4305
 5427TIP3   OH240475   0.188   5.297   7.136  0.8591  0.7158  0.1880
 5427TIP3    H140476   0.252   5.306   7.207  1.4713  2.4124 -0.5243
 5427TIP3    H240477   0.219   5.356   7.068 -0.7416  0.5502 -0.7385
 5428TIP3   OH240478   1.925   5.477   5.023  0.5497 -0.3540 -0.0709
 5428TIP3    H140479   1.916   5.561   4.980 -0.3304 -0.6606 -0.4995
 5428TIP3    H240480   1.976   5.424   4.961 -1.1133 -0.9426 -0.9804
 5429TIP3   OH240481   1.201   4.763   6.278 -0.4349 -0.7816 -0.4552
 5429TIP3    H140482   1.250   4.827   6.227  1.6194 -0.7001  1.4495
 5429TIP3    H240483   1.130   4.813   6.317 -0.1973 -0.1674 -0.7843
 5430TIP3   OH240484   3.325   0.865   6.669  0.3588  0.1205  0.2453
 5430TIP3    H140485   3.357   0.792   6.617  1.5154  0.3429  0.6129
 5430TIP3    H240486   3.236   0.882   6.636  1.1724  0.4990 -1.9213
 5431TIP3   OH240487   6.911   6.785   5.964  0.6080  0.4756  0.5982
 5431TIP3    H140488   6.945   6.704   6.002 -3.3568 -2.5650 -1.5082
 5431TIP3    H240489   6.843   6.814   6.025  0.8665  1.2764  0.5190
 5432TIP3   OH240490   0.958   6.612   7.439  0.1498 -0.3810  0.1072
 5432TIP3    H140491   0.950   6.535   7.495 -1.0762 -0.8842 -0.7182
 5432TIP3    H240492   0.921   6.683   7.492  3.6595  0.3330  1.9562
 5433TIP3   OH240493   3.133   3.022   5.620  0.1427 -0.4089 -0.3382
 5433TIP3    H140494   3.193   3.059   5.555  0.3377  0.2567  0.2211
 5433TIP3    H240495   3.181   2.948   5.657  0.9760  0.6351  0.7168
 5434TIP3   OH240496   3.814   7.454   5.668  0.2003  0.2043  0.5722
 5434TIP3    H140497   3.808   7.462   5.764 -0.9169 -1.9413  0.7416
 5434TIP3    H240498   3.903   7.424   5.652 -0.6650 -3.3316  1.3952
 5435TIP3   OH240499   0.465   1.114   5.413  0.1127 -0.4288 -0.0600
 5435TIP3    H140500   0.463   1.143   5.504 -0.1759 -0.5422 -0.0312
 5435TIP3    H240501   0.378   1.133   5.379  0.8081  1.4623 -0.8915
 5436TIP3   OH240502   1.652   5.012   5.535  0.2348  0.3128  0.2583
 5436TIP3    H140503   1.601   5.085   5.499  0.8972  1.4341  1.5102
 5436TIP3    H240504   1.723   5.054   5.583  1.1413 -1.1912  0.2877
 5437TIP3   OH240505   5.681   0.719   5.162 -0.0834 -0.3010  0.1248
 5437TIP3    H140506   5.674   0.805   5.203  0.8318  0.3706 -1.0389
 5437TIP3    H240507   5.775   0.699   5.164  0.3856  0.8087 -3.5055
 5438TIP3   OH240508   7.305   6.016   5.384  0.3336 -0.1838  0.3347
 5438TIP3    H140509   7.392   5.995   5.417 -0.2847 -1.3356  1.2957
 5438TIP3    H240510   7.287   5.950   5.318  1.2502  1.6630 -1.9136
 5439TIP3   OH240511   3.876   5.473   7.024  0.5396 -0.2274 -0.8546
 5439TIP3    H140512   3.881   5.558   6.982  1.4437 -1.0168 -2.4372
 5439TIP3    H240513   3.785   5.446   7.015  0.1770  0.6693 -0.0725
 5440TIP3   OH240514   3.632   2.292   5.423  0.2868  0.1670 -0.4286
 5440TIP3    H140515   3.728   2.299   5.423  0.1773  2.6252 -0.9202
 5440TIP3    H240516   3.610   2.273   5.332  0.2830  0.3189 -0.4598
 5441TIP3   OH240517   1.392   3.151   5.065 -0.0315 -0.1470  0.2180
 5441TIP3    H140518   1.354   3.095   4.998 -1.3552 -1.2535  1.8269
 5441TIP3    H240519   1.337   3.229   5.065 -0.5635 -0.5196  0.6032
 5442TIP3   OH240520   5.772   7.311   6.822  0.8875 -0.3527  0.0077
 5442TIP3    H140521   5.749   7.306   6.729  0.5154 -1.7666  0.1518
 5442TIP3    H240522   5.689   7.328   6.866  0.8496 -0.9389  0.1713
 5443TIP3   OH240523   0.788   0.814   7.574 -0.0534 -0.1794 -0.1826
 5443TIP3    H140524   0.873   0.842   7.609 -0.9424  2.0181  0.3636
 5443TIP3    H240525   0.800   0.721   7.555  1.7079 -0.5524  2.2425
 5444TIP3   OH240526   5.842   5.424   5.139 -0.2297  0.0558 -0.0093
 5444TIP3    H140527   5.815   5.478   5.213 -0.1045  0.4598 -0.2528
 5444TIP3    H240528   5.786   5.346   5.143  0.3149 -0.3031  0.9701
 5445TIP3   OH240529   0.493   2.305   4.774  0.3944  0.7650 -0.0601
 5445TIP3    H140530   0.528   2.365   4.709 -1.9009 -0.2593 -2.4192
 5445TIP3    H240531   0.405   2.338   4.793 -0.4151 -1.0626 -0.4144
 5446TIP3   OH240532   2.471   2.053   6.342 -0.5858 -0.1400  0.1004
 5446TIP3    H140533   2.547   2.011   6.302 -0.2422 -0.1649  0.7563
 5446TIP3    H240534   2.424   1.981   6.385  0.7274  0.2728  2.3823
 5447TIP3   OH240535   2.740   3.656   6.024  0.5135 -0.7655 -0.0571
 5447TIP3    H140536   2.744   3.736   5.971  0.0949 -0.9148 -0.3150
 5447TIP3    H240537   2.780   3.589   5.969 -1.7280 -1.3779 -1.0333
 5448TIP3   OH240538   5.339   4.395   6.633 -0.0347 -0.3326  0.4609
 5448TIP3    H140539   5.347   4.478   6.679  2.7201 -0.4144  0.3012
 5448TIP3    H240540   5.407   4.398   6.565 -2.0626 -1.3876 -1.7798
 5449TIP3   OH240541   5.461   4.021   4.554  0.1908  0.2779 -0.3911
 5449TIP3    H140542   5.475   4.082   4.627  0.3721  0.3384 -0.4747
 5449TIP3    H240543   5.517   4.054   4.484 -0.3706  0.5147 -0.7365
 5450TIP3   OH240544   2.916   7.502   6.155 -0.0570  0.1927  0.1959
 5450TIP3    H140545   2.854   7.512   6.227  1.1053 -0.6569  1.3489
 5450TIP3    H240546   2.861   7.484   6.079 -1.2319 -0.8604  1.2398
 5451TIP3   OH240547   6.819   7.553   7.195 -0.1102  0.6554  0.1928
 5451TIP3    H140548   6.801   7.581   7.285 -1.8768 -1.1695  0.4950
 5451TIP3    H240549   6.895   7.496   7.203 -1.3275 -0.9713  0.9133
 5452TIP3   OH240550   5.318   1.777   6.127 -0.1026  0.1986  0.2043
 5452TIP3    H140551   5.251   1.724   6.083  1.8249 -2.1178 -0.1978
 5452TIP3    H240552   5.334   1.731   6.210  0.4236  1.1620  0.6546
 5453TIP3   OH240553   6.377   1.027   6.231 -0.1854  0.1283  0.3973
 5453TIP3    H140554   6.465   1.006   6.264  0.4918  2.4718  0.2667
 5453TIP3    H240555   6.317   0.993   6.297  0.9044 -0.1013  1.2942
 5454TIP3   OH240556   2.153   2.921   4.833  0.3035  0.2410 -0.3760
 5454TIP3    H140557   2.142   2.932   4.739 -1.5935  0.5914 -0.1547
 5454TIP3    H240558   2.155   3.010   4.868  0.9243  0.1127 -0.0818
 5455TIP3   OH240559   7.593   6.481   7.122 -0.0757 -0.3177  0.3314
 5455TIP3    H140560   7.524   6.422   7.152  0.3935 -1.7769 -1.3157
 5455TIP3    H240561   7.551   6.567   7.119 -0.9712 -0.6272  2.1009
 5456TIP3   OH240562   4.160   7.043   5.975  0.4278 -0.3379 -0.5347
 5456TIP3    H140563   4.179   7.057   6.068  0.8725  0.2120 -0.7052
 5456TIP3    H240564   4.064   7.048   5.969  0.4712  1.1786 -0.3386
 5457TIP3   OH240565   0.294   1.872   5.764 -0.0543  0.1361 -0.0886
 5457TIP3    H140566   0.285   1.903   5.674  3.2525  0.2296 -0.4836
 5457TIP3    H240567   0.213   1.822   5.780 -0.8210  0.2808 -3.0103
 5458TIP3   OH240568   4.451   6.988   5.448  0.0081  0.1432 -0.2332
 5458TIP3    H140569   4.526   6.933   5.471  1.3581  1.2628 -1.7106
 5458TIP3    H240570   4.379   6.926   5.436  1.1712 -1.1797 -0.6528
 5459TIP3   OH240571   7.584   2.012   5.963 -0.2962  0.4578  0.4379
 5459TIP3    H140572   7.575   2.021   6.058  0.0500 -0.5448  0.5747
 5459TIP3    H240573   7.498   2.035   5.929  0.1679  3.0251  0.8016
 5460TIP3   OH240574   7.523   5.800   5.063  0.1974  0.3148 -0.5043
 5460TIP3    H140575   7.565   5.881   5.091 -0.0094  0.1157  0.4186
 5460TIP3    H240576   7.591   5.752   5.015  0.6465  0.5310 -0.0850
 5461TIP3   OH240577   6.313   2.905   5.915 -0.2943  0.2903  0.4077
 5461TIP3    H140578   6.319   2.998   5.892 -0.0246  0.7031  2.0116
 5461TIP3    H240579   6.266   2.865   5.842  0.2313  1.5556 -0.6527
 5462TIP3   OH240580   6.040   6.842   5.257 -0.6338  0.0312 -0.1108
 5462TIP3    H140581   6.067   6.799   5.338  0.0017  0.1313 -0.2611
 5462TIP3    H240582   6.102   6.914   5.246 -1.3188  0.6302 -0.1740
 5463TIP3   OH240583   1.111   0.850   5.257  0.5745  0.1727  0.5113
 5463TIP3    H140584   1.133   0.939   5.286 -0.6322 -0.0114  2.1151
 5463TIP3    H240585   1.019   0.855   5.231  0.9132 -0.2925 -0.8753
 5464TIP3   OH240586   6.043   2.635   4.948  0.2015  0.3089  0.3198
 5464TIP3    H140587   6.076   2.577   5.017  1.6251  0.1961 -0.4215
 5464TIP3    H240588   5.973   2.585   4.907  0.8142 -0.5445  0.2729
 5465TIP3   OH240589   5.561   4.951   5.765  0.2403  0.1283  0.6675
 5465TIP3    H140590   5.650   4.936   5.733 -0.0584  0.0320 -0.1478
 5465TIP3    H240591   5.539   4.871   5.812  0.1800 -0.3214 -0.1046
 5466TIP3   OH240592   5.586   6.783   5.309 -0.5574  0.0771  0.4384
 5466TIP3    H140593   5.603   6.800   5.401  1.6019  0.2767  0.0678
 5466TIP3    H240594   5.672   6.758   5.273 -1.2161  0.5634 -1.6310
 5467TIP3   OH240595   3.168   6.067   6.995  0.1810  0.2993 -0.1553
 5467TIP3    H140596   3.256   6.058   7.030  0.6616 -0.4056 -1.4576
 5467TIP3    H240597   3.118   6.110   7.064  1.3372 -0.0549  0.9256
 5468TIP3   OH240598   7.076   4.765   5.342  0.0768  0.7304  0.2884
 5468TIP3    H140599   7.054   4.769   5.249  0.9578 -2.1718 -0.1547
 5468TIP3    H240600   6.997   4.731   5.384 -0.1024  1.4087  0.5035
 5469TIP3   OH240601   5.068   6.114   4.889 -0.3996  0.3151  0.3966
 5469TIP3    H140602   5.009   6.043   4.863  1.1963  0.2459 -3.7128
 5469TIP3    H240603   5.025   6.193   4.857  0.1059  0.6516  0.5459
 5470TIP3   OH240604   3.372   1.421   6.736 -0.4862  0.4402 -0.3269
 5470TIP3    H140605   3.457   1.403   6.696 -0.3868 -0.0213  0.0905
 5470TIP3    H240606   3.320   1.344   6.716  0.5434 -1.3213  3.1627
 5471TIP3   OH240607   5.647   4.457   4.952 -0.0099  0.5864  0.7647
 5471TIP3    H140608   5.692   4.539   4.973  0.9775  0.3082 -0.1444
 5471TIP3    H240609   5.716   4.390   4.955 -0.2963  0.1748 -0.9004
 5472TIP3   OH240610   4.469   5.658   5.496  0.1581 -0.2654  0.2339
 5472TIP3    H140611   4.414   5.672   5.572 -0.7101  2.7624 -0.8249
 5472TIP3    H240612   4.554   5.696   5.520  0.2290 -0.3112  0.0593
 5473TIP3   OH240613   2.872   1.253   7.443 -0.1896  0.1541  0.2240
 5473TIP3    H140614   2.943   1.225   7.385 -0.1205  0.1454  0.3123
 5473TIP3    H240615   2.888   1.346   7.458  2.1414 -0.6044  3.4425
 5474TIP3   OH240616   0.329   2.655   7.305  0.1372 -0.2196 -0.2355
 5474TIP3    H140617   0.325   2.704   7.387  1.4141  1.7176 -1.2413
 5474TIP3    H240618   0.412   2.680   7.265 -1.2528  0.4774 -3.0130
 5475TIP3   OH240619   4.749   2.359   5.836  0.2583 -0.2671  0.2075
 5475TIP3    H140620   4.803   2.285   5.807  1.1900  0.3287  0.3898
 5475TIP3    H240621   4.684   2.370   5.766  0.2582 -1.0920  0.0598
 5476TIP3   OH240622   3.130   1.625   5.213  0.3505 -0.5665  0.0136
 5476TIP3    H140623   3.191   1.642   5.284  1.1870  0.9786 -1.0238
 5476TIP3    H240624   3.065   1.695   5.220 -0.1708 -1.0290 -0.1111
 5477TIP3   OH240625   5.437   3.790   6.267 -0.0367  0.1570  0.1087
 5477TIP3    H140626   5.452   3.696   6.275  1.1923  0.3106 -0.1869
 5477TIP3    H240627   5.392   3.814   6.348  0.7902 -0.4683  0.7621
 5478TIP3   OH240628   1.696   5.974   5.689  0.1226  0.6354  0.6248
 5478TIP3    H140629   1.753   6.031   5.636  1.4379  0.0277  1.3215
 5478TIP3    H240630   1.727   5.987   5.779  0.9903 -1.7146  0.7377
 5479TIP3   OH240631   4.992   5.349   6.545 -0.2455 -0.3387  0.0719
 5479TIP3    H140632   4.971   5.295   6.621 -0.5808 -0.3747 -0.0448
 5479TIP3    H240633   5.079   5.320   6.518 -0.4322 -0.8356 -0.0020
 5480TIP3   OH240634   7.366   3.520   5.039  0.0998  0.7124  1.0879
 5480TIP3    H140635   7.301   3.574   4.994 -0.2074  0.6859  1.4892
 5480TIP3    H240636   7.346   3.532   5.132  0.2001  0.1224  1.1875
 5481TIP3   OH240637   0.519   4.778   5.526  0.7359  0.1324  0.2563
 5481TIP3    H140638   0.608   4.812   5.534  0.4907  0.4870  1.7963
 5481TIP3    H240639   0.517   4.703   5.585  0.9018 -1.9081 -2.1443
 5482TIP3   OH240640   3.218   4.728   5.045  0.0131 -0.2607 -0.4934
 5482TIP3    H140641   3.155   4.661   5.017  0.3398 -0.4155 -0.8681
 5482TIP3    H240642   3.167   4.787   5.101 -0.3426 -0.6675 -0.3866
 5483TIP3   OH240643   0.627   4.445   6.054  0.2945 -0.3565 -0.0211
 5483TIP3    H140644   0.585   4.523   6.018 -1.3227 -1.4304 -0.5847
 5483TIP3    H240645   0.557   4.398   6.099  1.2856 -1.3492  0.5516
 5484TIP3   OH240646   3.879   6.648   5.844 -0.2384 -0.1696  0.0508
 5484TIP3    H140647   3.950   6.598   5.803 -0.0876  0.9567 -1.1293
 5484TIP3    H240648   3.838   6.694   5.771 -0.8323  0.8710  1.0189
 5485TIP3   OH240649   1.787   2.378   6.598  0.2792  0.0093  0.3142
 5485TIP3    H140650   1.698   2.382   6.634 -0.2334  4.3554 -0.8809
 5485TIP3    H240651   1.844   2.403   6.670  0.1649  0.4226  0.2631
 5486TIP3   OH240652   7.050   6.276   4.756 -0.3175 -0.2209 -0.3368
 5486TIP3    H140653   7.068   6.190   4.718  0.0740  0.3683 -1.5578
 5486TIP3    H240654   6.955   6.286   4.749 -0.1752  0.3015 -2.2341
 5487TIP3   OH240655   6.555   3.220   5.882  0.1487  0.3971  0.5572
 5487TIP3    H140656   6.573   3.179   5.966  0.3430 -1.5532 -0.3597
 5487TIP3    H240657   6.627   3.190   5.826 -0.7989  0.3610 -0.6824
 5488TIP3   OH240658   1.928   1.430   5.271  0.3799  0.1212  0.3403
 5488TIP3    H140659   1.954   1.338   5.275 -1.2648 -0.3442  1.2751
 5488TIP3    H240660   1.871   1.435   5.194 -0.2520  0.1438  0.8049
 5489TIP3   OH240661   5.251   6.253   5.403 -0.3945  0.3851 -0.5355
 5489TIP3    H140662   5.238   6.205   5.321  1.5956  0.0996 -0.7156
 5489TIP3    H240663   5.286   6.338   5.376  0.1968  0.3208  0.0066
 5490TIP3   OH240664   0.185   4.117   5.051 -0.6131  0.1784 -0.4332
 5490TIP3    H140665   0.222   4.029   5.060 -1.1688 -0.4340 -3.2639
 5490TIP3    H240666   0.261   4.175   5.053 -0.2567 -0.2955  1.6510
 5491TIP3   OH240667   7.210   7.296   7.077  0.7515  0.7152  0.3058
 5491TIP3    H140668   7.260   7.296   6.996  2.0035  2.2308  1.0361
 5491TIP3    H240669   7.228   7.211   7.117 -0.6267 -0.4444 -1.3833
 5492TIP3   OH240670   7.215   3.738   4.865 -0.4899 -0.1483  0.3036
 5492TIP3    H140671   7.235   3.762   4.955  1.4032  1.2248 -0.4138
 5492TIP3    H240672   7.174   3.815   4.827  0.1277 -0.1612 -0.4103
 5493TIP3   OH240673   4.474   4.863   7.138  0.1163  0.2574 -0.0932
 5493TIP3    H140674   4.512   4.848   7.225 -1.5266  0.9918  0.8110
 5493TIP3    H240675   4.428   4.782   7.118  1.5665 -0.4013 -0.9086
 5494TIP3   OH240676   2.539   4.507   6.312 -0.0848  0.6164 -0.0064
 5494TIP3    H140677   2.473   4.484   6.377 -1.0577 -2.1531 -1.8224
 5494TIP3    H240678   2.612   4.540   6.364 -0.5956 -1.9220  2.6132
 5495TIP3   OH240679   5.532   0.102   7.495  0.1535 -0.4515  0.8000
 5495TIP3    H140680   5.591   0.177   7.488  0.1948 -0.5211  0.3824
 5495TIP3    H240681   5.585   0.027   7.468  0.0654 -0.6129  1.0643
 5496TIP3   OH240682   6.338   5.197   5.966  0.3669  0.5390  0.2300
 5496TIP3    H140683   6.267   5.234   6.018 -2.0328 -1.6008 -1.3142
 5496TIP3    H240684   6.311   5.210   5.875  0.0104 -3.5209 -0.4344
 5497TIP3   OH240685   3.554   4.832   4.880 -0.0927  0.0565 -0.0348
 5497TIP3    H140686   3.540   4.863   4.970  2.4301  1.1683  0.0452
 5497TIP3    H240687   3.542   4.737   4.886 -2.8061  0.3746  0.8130
 5498TIP3   OH240688   2.769   0.325   4.999 -0.0685  0.0652  0.0663
 5498TIP3    H140689   2.759   0.235   5.029  1.0647  0.2145  0.9523
 5498TIP3    H240690   2.860   0.347   5.020  0.0383  1.0001 -1.2967
 5499TIP3   OH240691   0.546   6.536   7.720  0.1719 -0.1314 -0.2998
 5499TIP3    H140692   0.458   6.548   7.755  0.3578  0.8406 -0.1298
 5499TIP3    H240693   0.533   6.509   7.629 -0.3203 -2.5446  0.4270
 5500TIP3   OH240694   5.755   2.014   6.466  0.5537  0.2214  0.3720
 5500TIP3    H140695   5.750   1.932   6.516 -0.1353  1.3141  2.1926
 5500TIP3    H240696   5.667   2.026   6.432  1.0725 -0.6308 -1.3991
 5501TIP3   OH240697   0.299   0.776   5.450  0.0893  0.0716 -0.2398
 5501TIP3    H140698   0.303   0.794   5.356 -0.7217 -0.4856 -0.3908
 5501TIP3    H240699   0.380   0.728   5.469  0.4337  0.5157 -0.5741
 5502TIP3   OH240700   0.225   6.006   5.233 -0.1054 -0.2686 -0.1202
 5502TIP3    H140701   0.261   6.052   5.157  1.8504  1.3853  1.6663
 5502TIP3    H240702   0.271   5.922   5.235 -0.8857 -0.7597 -1.2318
 5503TIP3   OH240703   0.206   7.348   4.921 -0.6085 -0.3508 -0.2785
 5503TIP3    H140704   0.181   7.393   5.002 -0.2276  2.0835 -1.4057
 5503TIP3    H240705   0.189   7.413   4.852 -0.5640 -2.2020 -2.1217
 5504TIP3   OH240706   0.500   3.348   5.498 -0.2375  0.5413  0.4846
 5504TIP3    H140707   0.573   3.382   5.550  0.2429 -0.2142  0.3270
 5504TIP3    H240708   0.483   3.262   5.536  0.0108  0.0433 -0.4912
 5505TIP3   OH240709   4.998   1.390   5.007  0.5512 -0.3095  0.1500
 5505TIP3    H140710   5.049   1.463   5.044 -0.6588 -0.1396  1.5620
 5505TIP3    H240711   4.918   1.431   4.976  0.4211 -0.8638 -0.2416
 5506TIP3   OH240712   1.275   7.154   5.728  0.9216 -0.7468 -0.5115
 5506TIP3    H140713   1.363   7.126   5.752  0.9719  0.2089  0.5481
 5506TIP3    H240714   1.236   7.181   5.811  0.1164  0.1176 -1.1528
 5507TIP3   OH240715   2.616   6.738   4.499 -0.2277 -1.2021  0.7445
 5507TIP3    H140716   2.583   6.821   4.533 -1.2749 -0.9666 -0.7757
 5507TIP3    H240717   2.564   6.721   4.421  2.2615 -1.5813 -0.9359
 5508TIP3   OH240718   4.690   0.472   5.610  0.0572 -0.2746  0.0385
 5508TIP3    H140719   4.720   0.389   5.572 -0.3716 -0.8382  0.8861
 5508TIP3    H240720   4.608   0.449   5.654 -1.8508  1.2504 -2.4052
 5509TIP3   OH240721   4.335   2.253   5.478  0.1848 -0.4803 -0.0966
 5509TIP3    H140722   4.407   2.208   5.523  0.4417 -0.4176 -0.4492
 5509TIP3    H240723   4.301   2.313   5.544 -0.7774 -1.8428  0.7050
 5510TIP3   OH240724   7.310   7.004   5.584 -0.5263  0.0124 -0.5328
 5510TIP3    H140725   7.299   7.044   5.671 -1.5483 -0.4720 -0.4179
 5510TIP3    H240726   7.229   6.954   5.571 -0.1732 -0.3086 -1.5651
 5511TIP3   OH240727   3.125   0.538   5.861 -0.3633 -0.1497  0.0296
 5511TIP3    H140728   3.173   0.546   5.779  0.8842 -1.5734  0.5855
 5511TIP3    H240729   3.170   0.469   5.910 -3.2485 -1.9598  0.4079
 5512TIP3   OH240730   4.955   3.230   6.227 -0.0401  0.1201 -0.1883
 5512TIP3    H140731   5.039   3.223   6.182  0.6041 -1.0210  1.1038
 5512TIP3    H240732   4.960   3.312   6.276  0.5772 -0.2173  0.3303
 5513TIP3   OH240733   6.932   6.589   6.879  0.0804  0.3040  0.3297
 5513TIP3    H140734   6.942   6.604   6.785  0.2371  1.3551  0.4954
 5513TIP3    H240735   6.968   6.501   6.894  0.2036  0.1972 -0.5649
 5514TIP3   OH240736   6.529   4.421   4.922  0.6313 -0.3802  0.3625
 5514TIP3    H140737   6.525   4.517   4.925  0.1950 -0.3945  0.3972
 5514TIP3    H240738   6.452   4.396   4.871  1.4775 -0.6611 -0.8027
 5515TIP3   OH240739   3.637   5.259   5.426 -0.1388 -0.2225  0.1910
 5515TIP3    H140740   3.633   5.217   5.340 -2.4018 -1.9056  1.0331
 5515TIP3    H240741   3.668   5.190   5.485 -3.1794 -0.6244  1.4719
 5516TIP3   OH240742   0.402   1.592   7.174  0.1429 -0.1351 -0.4908
 5516TIP3    H140743   0.339   1.604   7.104  0.6865  0.8144 -0.8421
 5516TIP3    H240744   0.443   1.678   7.185  0.5211 -0.4274  0.5487
 5517TIP3   OH240745   1.146   6.190  12.805  0.3324 -0.1548  0.4016
 5517TIP3    H140746   1.094   6.267  12.827  0.8228  0.2548  0.1427
 5517TIP3    H240747   1.218   6.190  12.869 -0.3073 -1.0700  1.1640
 5518TIP3   OH240748   4.340   1.556   6.008  0.2086 -0.0181  0.1945
 5518TIP3    H140749   4.270   1.608   6.049  0.0568  0.6877 -0.9412
 5518TIP3    H240750   4.352   1.482   6.068  0.9193  1.6549  2.2134
 5519TIP3   OH240751   0.083   5.754   5.974  0.4401  0.0511 -0.0185
 5519TIP3    H140752   0.176   5.735   5.989  0.3960  1.2884  2.3646
 5519TIP3    H240753   0.084   5.839   5.929  0.4494 -1.0430 -2.2027
 5520TIP3   OH240754   4.506   0.489   6.932  0.0726  0.0447  0.2760
 5520TIP3    H140755   4.503   0.407   6.882  1.4340  0.2184 -0.1286
 5520TIP3    H240756   4.489   0.462   7.023 -0.8963 -0.4781 -0.0447
 5521TIP3   OH240757   6.254   7.490   7.296  0.0382 -0.2356  0.1753
 5521TIP3    H140758   6.322   7.552   7.271  0.0608 -0.5419 -0.5457
 5521TIP3    H240759   6.289   7.446   7.373  0.6290 -0.3499 -0.1518
 5522TIP3   OH240760   1.199   6.201   6.791  0.5193  0.2648  0.0779
 5522TIP3    H140761   1.230   6.148   6.717  0.1551 -0.5357  0.4859
 5522TIP3    H240762   1.268   6.265   6.806  1.5389 -0.8723  0.3445
 5523TIP3   OH240763   4.212   2.668   5.251  0.5347  0.1526  0.8177
 5523TIP3    H140764   4.225   2.657   5.157 -1.6613 -1.4152  0.6138
 5523TIP3    H240765   4.295   2.703   5.283  1.6644 -0.1826 -1.5408
 5524TIP3   OH240766   3.952   0.977   4.825 -0.2640 -0.6724 -0.1035
 5524TIP3    H140767   3.903   0.958   4.905 -0.7849  0.2458 -0.1869
 5524TIP3    H240768   3.992   1.062   4.842 -0.1735 -0.5876 -0.7318
 5525TIP3   OH240769   3.870   7.260   6.191  0.0829 -0.1949  0.2423
 5525TIP3    H140770   3.947   7.316   6.190  0.2833 -0.4188 -1.5279
 5525TIP3    H240771   3.798   7.317   6.219  0.7201  0.2633  0.9629
 5526TIP3   OH240772   0.575   0.011   4.981  0.2156  0.2126  0.0535
 5526TIP3    H140773   0.545  -0.040   4.906  0.8719  0.1939 -0.1985
 5526TIP3    H240774   0.671   0.004   4.979  0.2340 -0.0609  1.0819
 5527TIP3   OH240775   0.897   6.303   5.770 -0.4451  0.8147 -0.3360
 5527TIP3    H140776   0.883   6.218   5.812  1.2096 -0.6009 -2.4625
 5527TIP3    H240777   0.811   6.346   5.776 -0.8815 -0.2104  2.3251
 5528TIP3   OH240778   6.748   1.485   6.999 -0.5986  0.0062  0.0916
 5528TIP3    H140779   6.737   1.483   7.094  0.5848 -3.6872  0.3140
 5528TIP3    H240780   6.659   1.490   6.965 -1.1647 -0.3462  1.4399
 5529TIP3   OH240781   0.714   3.073  12.388 -0.2167  0.3992  0.4151
 5529TIP3    H140782   0.804   3.044  12.375 -0.0891  1.3795 -1.2674
 5529TIP3    H240783   0.710   3.103  12.479  1.3812  1.0390  0.3044
 5530TIP3   OH240784   5.714   0.586   5.942 -0.9179  0.3868  0.1909
 5530TIP3    H140785   5.639   0.644   5.930 -0.7293  0.0824 -4.1289
 5530TIP3    H240786   5.790   0.642   5.924 -0.4548 -0.3317 -0.1253
 5531TIP3   OH240787   0.253   3.009   4.953 -0.0834 -0.3211  0.7062
 5531TIP3    H140788   0.309   2.960   5.013 -0.1092 -1.7253 -0.3654
 5531TIP3    H240789   0.264   3.100   4.979  0.1720 -0.8556  2.5992
 5532TIP3   OH240790   3.946   1.946   6.517 -0.4545 -0.7572  0.3020
 5532TIP3    H140791   3.867   1.930   6.568  0.7351 -0.1315  2.4200
 5532TIP3    H240792   3.952   2.041   6.511 -0.4553 -0.8094 -0.8870
 5533TIP3   OH240793   0.912   1.797   5.589  0.1050 -0.2154 -0.0513
 5533TIP3    H140794   0.958   1.880   5.599  0.2107 -0.2650 -0.1261
 5533TIP3    H240795   0.893   1.790   5.496  0.4651 -0.4693 -0.1080
 5534TIP3   OH240796   4.546   3.953   6.683  0.3863 -0.0493  0.6807
 5534TIP3    H140797   4.586   3.950   6.769  0.9864 -1.1264  0.3764
 5534TIP3    H240798   4.465   3.902   6.692  0.6017 -0.4179  0.5308
 5535TIP3   OH240799   1.917   6.009   6.829  0.2524  0.4734  0.0583
 5535TIP3    H140800   1.822   6.019   6.839  0.2273  1.8138 -1.2049
 5535TIP3    H240801   1.953   6.091   6.862  1.0481 -0.2698  1.1071
 5536TIP3   OH240802   0.371   7.009   6.664 -0.0107  0.0383  0.0864
 5536TIP3    H140803   0.335   6.922   6.644  0.7800 -0.0236 -1.1678
 5536TIP3    H240804   0.453   6.990   6.710 -0.7751  0.1674  1.5693
 5537TIP3   OH240805   0.009   7.229   5.551 -0.1340  0.2826  0.2871
 5537TIP3    H140806  -0.030   7.145   5.575 -2.0902  1.5292  1.8127
 5537TIP3    H240807  -0.040   7.256   5.473 -0.1436  0.4088  0.3365
 5538TIP3   OH240808   2.192   5.048   6.044  0.0756 -0.0264 -0.1533
 5538TIP3    H140809   2.151   4.962   6.037  0.0425  0.0915 -1.6318
 5538TIP3    H240810   2.147   5.090   6.117 -0.7334 -0.8158 -0.1790
 5539TIP3   OH240811   5.523   2.029   5.668  0.2272  0.5002 -0.2066
 5539TIP3    H140812   5.527   1.982   5.584  1.1465  0.5611 -0.2126
 5539TIP3    H240813   5.555   1.965   5.732  1.8819  1.1975 -0.2737
 5540TIP3   OH240814   0.294   0.394   6.967  0.2157 -0.0754 -0.0224
 5540TIP3    H140815   0.369   0.377   6.911  0.9682  0.0508  0.9347
 5540TIP3    H240816   0.331   0.421   7.051 -0.7321 -3.2091  1.5940
 5541TIP3   OH240817   1.819   2.677   6.989  0.1615  0.0672 -0.3425
 5541TIP3    H140818   1.811   2.649   7.080  0.9817 -0.5038 -0.4366
 5541TIP3    H240819   1.850   2.600   6.942 -1.8704 -0.1646 -1.4420
 5542TIP3   OH240820   6.694   1.161   5.687  0.8460 -0.0870  0.2781
 5542TIP3    H140821   6.602   1.180   5.702  0.4033 -1.0996 -0.9892
 5542TIP3    H240822   6.740   1.237   5.722 -0.2788 -0.5574  3.0960
 5543TIP3   OH240823   6.625   6.623   5.543 -0.2199 -0.1531 -0.9418
 5543TIP3    H140824   6.663   6.607   5.629 -2.2240 -1.5913 -0.2660
 5543TIP3    H240825   6.661   6.555   5.487  1.4800  1.0839 -1.4307
 5544TIP3   OH240826   1.796   2.431   6.155 -0.2327 -0.4741 -0.7370
 5544TIP3    H140827   1.842   2.349   6.169  1.3199  0.2215 -1.4394
 5544TIP3    H240828   1.866   2.497   6.150 -1.0884  0.3549 -4.0280
 5545TIP3   OH240829   2.023   1.556   7.150  0.2090 -0.5763  0.0828
 5545TIP3    H140830   1.964   1.616   7.196 -0.8662  0.0529 -1.9925
 5545TIP3    H240831   2.111   1.585   7.173 -0.3063  0.3952  0.8502
 5546TIP3   OH240832   7.670   0.356   5.930 -0.5845  0.4448 -0.0095
 5546TIP3    H140833   7.688   0.264   5.910 -4.4472  0.1102 -3.1709
 5546TIP3    H240834   7.708   0.404   5.856 -0.6629  1.1280  0.3911
 5547TIP3   OH240835   6.019   1.401   5.945  0.1943 -0.2158 -0.0239
 5547TIP3    H140836   6.030   1.404   5.850  1.5512 -0.6914  0.0930
 5547TIP3    H240837   5.925   1.386   5.958  0.1780 -1.4991 -1.3301
 5548TIP3   OH240838   7.676   7.590   6.489 -0.2985 -0.0813 -0.3395
 5548TIP3    H140839   7.586   7.557   6.489 -0.2854 -0.2026 -2.1730
 5548TIP3    H240840   7.731   7.512   6.495 -0.2996 -0.0590 -0.0098
 5549TIP3   OH240841   2.099   6.327   4.886  0.2803  0.1171 -0.4254
 5549TIP3    H140842   2.012   6.342   4.849 -0.6276  0.9586  1.8477
 5549TIP3    H240843   2.087   6.257   4.950  1.6134 -0.7871 -1.1233
 5550TIP3   OH240844   4.533   1.681   5.210 -0.5961  0.0866  0.6970
 5550TIP3    H140845   4.445   1.643   5.205 -0.3690 -0.3039 -1.4443
 5550TIP3    H240846   4.584   1.616   5.258 -0.7435 -1.3155 -0.9556
 5551TIP3   OH240847   7.195   6.234   6.623  0.1151  0.7003 -0.4700
 5551TIP3    H140848   7.257   6.306   6.618  1.9514 -0.8468 -1.6138
 5551TIP3    H240849   7.205   6.200   6.713 -0.7569  1.8158  0.0688
 5552TIP3   OH240850   3.078   7.275   7.441 -0.2976 -0.7302  0.0912
 5552TIP3    H140851   3.002   7.280   7.384 -0.9511  0.7146  1.0377
 5552TIP3    H240852   3.076   7.187   7.476 -0.4771 -1.2997 -1.2800
 5553TIP3   OH240853   2.598   5.654   5.204  0.0623  0.2553 -0.6518
 5553TIP3    H140854   2.564   5.714   5.138  0.2593  0.0074 -0.9793
 5553TIP3    H240855   2.676   5.616   5.164  0.1467  0.0559 -0.3023
 5554TIP3   OH240856   5.372   3.583   5.073  0.2695 -0.2166  0.0968
 5554TIP3    H140857   5.426   3.518   5.027  1.1750  0.0759  0.7271
 5554TIP3    H240858   5.350   3.541   5.156  1.7495  0.6466  0.9730
 5555TIP3   OH240859   1.551   2.107   6.264  0.1369  0.1439 -0.0086
 5555TIP3    H140860   1.627   2.159   6.291 -0.0617 -0.1481  1.1616
 5555TIP3    H240861   1.576   2.016   6.282 -0.5709  0.0641  0.6274
 5556TIP3   OH240862   6.204   1.535   7.123 -0.0704  0.4279  0.0588
 5556TIP3    H140863   6.135   1.468   7.124  0.5251 -0.1920  0.3670
 5556TIP3    H240864   6.205   1.570   7.212  1.0615 -0.6781  0.5115
 5557TIP3   OH240865   0.114   3.495   7.143  0.3134 -0.3158 -0.2174
 5557TIP3    H140866   0.182   3.427   7.143 -0.1195 -0.8036 -2.0768
 5557TIP3    H240867   0.146   3.560   7.080  0.0404  0.5107  0.4838
 5558TIP3   OH240868   4.359   4.539   5.695  0.1608 -0.7030  0.1360
 5558TIP3    H140869   4.438   4.546   5.641 -0.2107  2.3707 -0.2287
 5558TIP3    H240870   4.316   4.459   5.665  2.0586 -1.3146 -1.1449
 5559TIP3   OH240871   5.533   6.137   5.386  0.7025  0.0592  0.3960
 5559TIP3    H140872   5.513   6.214   5.439 -0.9564  0.2158 -0.3909
 5559TIP3    H240873   5.614   6.103   5.423 -0.3948  0.1035  3.0714
 5560TIP3   OH240874   3.045   4.495   4.992  0.3948 -0.7106 -0.0092
 5560TIP3    H140875   2.960   4.513   4.953  0.5568  1.0095  0.3202
 5560TIP3    H240876   3.027   4.485   5.085  0.4608 -1.0633 -0.0348
 5561TIP3   OH240877   0.382   2.156   5.471  0.7704 -0.1400  0.4856
 5561TIP3    H140878   0.315   2.220   5.448 -0.0330 -0.7722  1.0310
 5561TIP3    H240879   0.460   2.208   5.490  0.7062  0.5609 -0.9940
 5562TIP3   OH240880   4.321   3.263   6.515  0.1532 -0.2974  0.1667
 5562TIP3    H140881   4.357   3.262   6.603  2.0862  0.6244 -0.5532
 5562TIP3    H240882   4.244   3.319   6.521 -0.8097 -1.7043  1.6059
 5563TIP3   OH240883   6.359   7.256   6.110  0.0806 -0.6739  0.0412
 5563TIP3    H140884   6.411   7.177   6.092 -0.3859 -0.9756 -0.0080
 5563TIP3    H240885   6.383   7.316   6.039 -1.1661 -1.5736 -1.2154
 5564TIP3   OH240886   1.103   4.931   5.938  0.1659  0.3094 -0.8050
 5564TIP3    H140887   1.030   4.951   5.879  1.1749 -1.5739 -2.8723
 5564TIP3    H240888   1.171   4.896   5.880  1.7263 -0.4636  1.3675
 5565TIP3   OH240889   1.838   0.761   6.314 -0.0233 -0.0778  0.1456
 5565TIP3    H140890   1.814   0.713   6.234  1.1313 -0.0737 -0.2293
 5565TIP3    H240891   1.846   0.852   6.285  0.9670 -0.1590  0.1112
 5566TIP3   OH240892   0.857   4.996   5.806  0.3948  0.0065  0.1566
 5566TIP3    H140893   0.861   5.067   5.741 -3.8025 -1.8319 -2.5549
 5566TIP3    H240894   0.819   5.038   5.884  0.8566  1.3318 -0.3064
 5567TIP3   OH240895   1.253   6.495   5.690 -0.3594  0.0828  0.4700
 5567TIP3    H140896   1.195   6.528   5.621 -1.4716 -3.8657 -0.7181
 5567TIP3    H240897   1.341   6.507   5.654 -0.8713 -0.9022 -1.2438
 5568TIP3   OH240898   6.351   5.824   5.313 -0.2658 -0.0306 -0.3051
 5568TIP3    H140899   6.325   5.797   5.401 -2.7307  1.6362 -0.4291
 5568TIP3    H240900   6.280   5.794   5.256 -0.3261  1.7448 -1.2272
 5569TIP3   OH240901   5.037   2.545   6.683  0.0963 -0.5916 -0.0862
 5569TIP3    H140902   4.946   2.517   6.692 -0.1036  0.5824  2.2846
 5569TIP3    H240903   5.035   2.640   6.698  1.4870 -0.2202 -1.9213
 5570TIP3   OH240904   3.061   0.687   7.041  0.2031  0.0395  0.3435
 5570TIP3    H140905   2.987   0.736   7.076  0.6533  0.5261  0.6208
 5570TIP3    H240906   3.120   0.675   7.116  0.8278  0.4436 -0.0741
 5571TIP3   OH240907   7.538   3.879   4.893 -0.0562  0.0976 -0.3783
 5571TIP3    H140908   7.622   3.864   4.850 -0.0396 -0.5351 -0.1368
 5571TIP3    H240909   7.545   3.967   4.929  0.4844  0.0695 -0.4065
 5572TIP3   OH240910   5.502   7.077   6.752 -0.4351  0.0089  0.5912
 5572TIP3    H140911   5.412   7.066   6.782 -0.7699  1.8755  0.4412
 5572TIP3    H240912   5.549   7.003   6.790 -1.8255 -0.4282  1.5659
 5573TIP3   OH240913   1.292   4.574   5.685  0.2021 -0.3254  0.0414
 5573TIP3    H140914   1.346   4.541   5.613 -0.1139  1.4584 -1.0804
 5573TIP3    H240915   1.202   4.561   5.655  0.0665  1.5286 -0.4924
 5574TIP3   OH240916   2.726   7.316   5.164  0.2491  0.1023 -0.2118
 5574TIP3    H140917   2.781   7.364   5.101  1.7829 -1.5319 -0.2045
 5574TIP3    H240918   2.637   7.336   5.137  0.7943  2.4764 -0.5315
 5575TIP3   OH240919   3.650   2.181   5.158  0.2521 -0.1081  0.0904
 5575TIP3    H140920   3.603   2.098   5.144  0.2571  0.0146 -0.6800
 5575TIP3    H240921   3.741   2.155   5.171  0.0930 -0.2958  0.9256
 5576TIP3   OH240922   1.972   0.513   5.857  0.1991  0.3551 -0.2816
 5576TIP3    H140923   1.955   0.427   5.896 -1.3509  0.6114 -0.3224
 5576TIP3    H240924   2.066   0.512   5.836  0.6776 -0.5164  1.6554
 5577TIP3   OH240925   6.644   6.067   4.823 -0.1873  0.2928  0.1489
 5577TIP3    H140926   6.658   6.104   4.910  2.2992 -1.2782  0.5060
 5577TIP3    H240927   6.622   5.975   4.839 -1.3031  0.3634 -0.8569
 5578TIP3   OH240928   0.897   5.952   4.925 -0.4248 -0.3564 -0.6541
 5578TIP3    H140929   0.873   6.040   4.896 -2.0320 -0.8238 -0.8283
 5578TIP3    H240930   0.840   5.893   4.876  0.0960 -1.4586  0.0084
 5579TIP3   OH240931   4.749   1.356   6.826  0.3049 -0.5970  0.2301
 5579TIP3    H140932   4.811   1.410   6.776 -0.1387 -1.5844 -1.4719
 5579TIP3    H240933   4.688   1.419   6.865 -1.1250  0.1871 -2.9445
 5580TIP3   OH240934   2.742   4.827   6.978  0.1062 -0.7340 -0.3745
 5580TIP3    H140935   2.808   4.818   7.046  0.7385 -0.5009 -0.9481
 5580TIP3    H240936   2.664   4.785   7.014 -0.0164  0.6756  1.0847
 5581TIP3   OH240937   3.197   6.954   4.797 -0.2930  0.3231  0.2218
 5581TIP3    H140938   3.147   6.877   4.769 -0.1947 -0.4432  2.0109
 5581TIP3    H240939   3.160   6.977   4.882  1.4918  0.5679  0.9717
 5582TIP3   OH240940   7.612   4.937   5.069  0.1494 -0.3861  0.5464
 5582TIP3    H140941   7.652   5.023   5.075 -0.6865  0.2786 -1.9824
 5582TIP3    H240942   7.683   4.878   5.044  0.2247  0.1930 -0.7220
 5583TIP3   OH240943   1.949   4.310   4.850  0.0059  0.0475 -0.1180
 5583TIP3    H140944   1.896   4.372   4.899 -0.0299  0.0325 -0.1377
 5583TIP3    H240945   1.980   4.359   4.774  0.3167  0.1618  0.0822
 5584TIP3   OH240946   3.773   0.017   5.475  0.5359  0.0822  0.0800
 5584TIP3    H140947   3.827  -0.053   5.437 -0.5690 -0.0870 -1.2531
 5584TIP3    H240948   3.812   0.098   5.443  0.7936  0.0197  0.2307
 5585TIP3   OH240949   4.066   6.481   5.747 -0.2654  0.3165 -0.0899
 5585TIP3    H140950   4.062   6.451   5.656  0.0431  0.8320 -0.2779
 5585TIP3    H240951   4.158   6.506   5.760 -0.6388  1.8091 -0.1555
 5586TIP3   OH240952   2.874   0.725   4.851  0.8121 -0.5935 -0.2961
 5586TIP3    H140953   2.846   0.644   4.807 -0.7716  0.1226 -0.6862
 5586TIP3    H240954   2.881   0.789   4.780  0.7055 -0.0479  0.1785
 5587TIP3   OH240955   6.569   5.814   4.914 -0.2934  0.5985  0.5838
 5587TIP3    H140956   6.550   5.771   4.998 -0.6253  3.3985  2.0868
 5587TIP3    H240957   6.655   5.781   4.889 -0.8250 -1.4195  1.2166
 5588TIP3   OH240958   5.847   4.950   6.562  0.5649 -0.2153 -0.4999
 5588TIP3    H140959   5.814   4.929   6.650  1.6873  0.0028 -0.0003
 5588TIP3    H240960   5.940   4.928   6.567  0.6182 -0.2697 -1.6706
 5589TIP3   OH240961   6.400   3.061   4.782  0.3319 -0.0670 -0.8543
 5589TIP3    H140962   6.432   3.014   4.858  0.1974  0.3068 -0.5645
 5589TIP3    H240963   6.305   3.048   4.782  0.1574  1.0680 -0.1662
 5590TIP3   OH240964   5.930   3.393   5.949  0.0395 -0.1638 -0.3997
 5590TIP3    H140965   5.912   3.349   6.033 -1.2401  2.1413  0.6367
 5590TIP3    H240966   6.019   3.366   5.927  0.4000 -0.9120  1.6647
 5591TIP3   OH240967   0.936   3.823   7.157  0.1451  0.2955 -0.3358
 5591TIP3    H140968   1.012   3.881   7.168  1.4474 -1.1898 -1.1346
 5591TIP3    H240969   0.866   3.867   7.205  1.7609  1.2391  1.3167
 5592TIP3   OH240970   3.999   0.313   6.043 -0.2684 -0.3920 -0.2622
 5592TIP3    H140971   4.040   0.330   5.958 -0.6950  0.3548 -0.3259
 5592TIP3    H240972   3.939   0.240   6.026 -0.9800  0.3056 -0.8160
 5593TIP3   OH240973   5.209   0.684   5.399 -0.3253 -0.0969 -0.0467
 5593TIP3    H140974   5.280   0.707   5.459 -0.0199 -1.3111  0.0950
 5593TIP3    H240975   5.236   0.720   5.315 -0.7316  1.5746  0.5116
 5594TIP3   OH240976   7.668   7.076   6.258  0.0275  0.4241  0.0716
 5594TIP3    H140977   7.737   7.040   6.202  1.8378 -0.1337  2.4828
 5594TIP3    H240978   7.687   7.040   6.344 -0.8891  3.4769  1.6708
 5595TIP3   OH240979   5.467   5.837   4.736 -0.0576 -0.0489  0.0626
 5595TIP3    H140980   5.410   5.865   4.808 -0.7033 -0.0479 -0.4327
 5595TIP3    H240981   5.409   5.836   4.660  0.4160 -0.8393 -0.2984
 5596TIP3   OH240982   4.020   3.172   5.154  0.3952  0.2258  0.2408
 5596TIP3    H140983   4.028   3.080   5.126  0.8555  0.6216 -0.9975
 5596TIP3    H240984   3.926   3.185   5.168  0.3973 -0.6441  1.2539
 5597TIP3   OH240985   2.780   0.845   5.323 -0.3309 -0.4087  0.1966
 5597TIP3    H140986   2.751   0.841   5.414 -0.0939  0.5358  0.3235
 5597TIP3    H240987   2.742   0.767   5.283 -2.7528  0.5563  0.4283
 5598TIP3   OH240988   6.743   7.379   5.556  0.3502  0.3389  0.6011
 5598TIP3    H140989   6.678   7.310   5.569  1.1240 -0.4441  0.3414
 5598TIP3    H240990   6.818   7.353   5.610  0.8366  0.7250  0.1288
 5599TIP3   OH240991   7.152   5.688   5.755 -0.2844  0.2808  0.4438
 5599TIP3    H140992   7.067   5.645   5.764  0.3701 -0.8911  1.3808
 5599TIP3    H240993   7.171   5.685   5.662 -0.2927 -1.4280  0.4747
 5600TIP3   OH240994   5.449   1.182   5.083  0.3204 -0.3891  0.3832
 5600TIP3    H140995   5.537   1.166   5.051 -0.5900 -1.5307 -1.7203
 5600TIP3    H240996   5.459   1.255   5.145  2.7639 -0.7882  0.5699
 5601TIP3   OH240997   0.508   7.213   5.638 -0.2270  0.0230  0.2848
 5601TIP3    H140998   0.523   7.185   5.548 -3.0051 -0.5302 -0.0982
 5601TIP3    H240999   0.452   7.290   5.631 -0.9495 -0.3556  1.4976
 5602TIP3   OH241000   0.248   2.092   4.866  0.9429  0.2546 -0.0689
 5602TIP3    H141001   0.181   2.146   4.822  0.7965  0.4423  0.3820
 5602TIP3    H241002   0.306   2.065   4.795  1.4215  1.5872 -0.2212
 5603TIP3   OH241003   7.156   4.252   6.665 -0.2205 -0.5113 -0.4291
 5603TIP3    H141004   7.111   4.293   6.739  0.9358 -0.4083  0.2308
 5603TIP3    H241005   7.150   4.158   6.682  0.5442 -0.4688  0.1049
 5604TIP3   OH241006   3.121   2.015   5.655  0.4708  0.0096 -0.1304
 5604TIP3    H141007   3.168   2.097   5.672  1.0896 -0.2525 -0.5214
 5604TIP3    H241008   3.117   2.010   5.559  3.4804 -2.0596 -0.2915
 5605TIP3   OH241009   4.836   7.239   5.749  0.3110  0.6421  0.1090
 5605TIP3    H141010   4.816   7.311   5.809 -0.0120  0.1448  0.6147
 5605TIP3    H241011   4.757   7.230   5.695  1.2751  2.2838 -1.6637
 5606TIP3   OH241012   0.781   0.530   7.540 -0.0810 -0.2605  0.5970
 5606TIP3    H141013   0.702   0.495   7.582  0.1973  0.1835  1.5185
 5606TIP3    H241014   0.780   0.491   7.452 -0.6062 -1.3301  1.0515
 5607TIP3   OH241015   1.293   6.625   6.689  0.2188 -0.3590 -0.3758
 5607TIP3    H141016   1.267   6.665   6.772  1.5844 -0.7376  0.2650
 5607TIP3    H241017   1.212   6.618   6.639 -0.5697  0.2012  0.7839
 5608TIP3   OH241018   1.129   1.314   5.489  0.8200  0.3928 -0.1143
 5608TIP3    H141019   1.070   1.367   5.435  0.9477  0.6509  0.0006
 5608TIP3    H241020   1.193   1.376   5.524  0.8075  0.2073  0.2415
 5609TIP3   OH241021   2.057   5.233   6.193  0.2915  0.1342  0.3992
 5609TIP3    H141022   1.998   5.183   6.250 -0.4880  0.8255  0.2221
 5609TIP3    H241023   2.119   5.275   6.253  0.9753 -1.0346  0.5469
 5610TIP3   OH241024   4.651   6.544   5.912  0.0555 -0.4523 -0.4732
 5610TIP3    H141025   4.584   6.548   5.980  1.0167 -1.9011  0.6385
 5610TIP3    H241026   4.668   6.450   5.901  1.2157 -0.1570 -1.4061
 5611TIP3   OH241027   5.935   3.909   6.613  0.2645 -0.3319 -0.1153
 5611TIP3    H141028   5.864   3.952   6.566 -3.1504 -2.3502  2.7493
 5611TIP3    H241029   5.927   3.938   6.703  3.8349  0.0941  0.2311
 5612TIP3   OH241030   2.995   2.646   6.282 -0.4535 -0.2859  0.2649
 5612TIP3    H141031   3.043   2.590   6.343 -0.1659 -2.2756 -1.6899
 5612TIP3    H241032   2.915   2.598   6.261 -0.5522  0.3393 -0.9001
 5613TIP3   OH241033   1.390   2.420   5.837 -0.0491  0.4254 -0.7946
 5613TIP3    H141034   1.375   2.486   5.905 -0.0121 -0.6075  0.2440
 5613TIP3    H241035   1.372   2.337   5.880 -1.0287 -0.2063 -2.3535
 5614TIP3   OH241036   4.233   1.895   5.652  0.2602 -0.6387 -0.4128
 5614TIP3    H141037   4.247   1.805   5.681  1.3236 -0.0113  1.1643
 5614TIP3    H241038   4.190   1.938   5.726  1.8919  0.7118 -0.1959
 5615TIP3   OH241039   7.473   6.823   5.451 -0.4865 -0.2355  0.3880
 5615TIP3    H141040   7.414   6.895   5.469  0.3286  0.8459 -1.0610
 5615TIP3    H241041   7.555   6.864   5.424 -0.3548 -1.6272 -1.6658
 5616TIP3   OH241042   3.416   4.877   5.695  0.0348  0.2343 -0.6002
 5616TIP3    H141043   3.455   4.790   5.701 -1.0547 -0.4723 -2.5683
 5616TIP3    H241044   3.327   4.866   5.729 -0.5880  0.1744 -2.1521
 5617TIP3   OH241045   2.229   6.525   4.458  0.1272  0.5701 -0.0027
 5617TIP3    H141046   2.266   6.475   4.385  0.2671 -1.0979  1.1450
 5617TIP3    H241047   2.243   6.469   4.534 -0.9315  1.8038  1.1464
 5618TIP3   OH241048   0.536   4.681   7.622 -0.0868 -0.0255  0.7049
 5618TIP3    H141049   0.504   4.726   7.543 -0.3182 -0.1649  0.7184
 5618TIP3    H241050   0.548   4.752   7.686 -1.0802 -0.0485  0.9360
 5619TIP3   OH241051   3.478   2.846   5.414 -0.0889 -0.3454 -0.1472
 5619TIP3    H141052   3.503   2.787   5.342  1.0675  0.4062 -0.3974
 5619TIP3    H241053   3.428   2.915   5.371  1.1113  0.4261 -0.3705
 5620TIP3   OH241054   4.950   1.625   5.340  0.3246 -0.0023 -0.4717
 5620TIP3    H141055   5.011   1.653   5.408  1.0266 -0.5663 -0.8570
 5620TIP3    H241056   4.996   1.640   5.258  0.8381 -2.3624 -0.7118
 5621TIP3   OH241057   5.383   2.599   5.947 -0.0412 -0.1172  0.3637
 5621TIP3    H141058   5.479   2.594   5.953 -0.0657  0.0438  0.9578
 5621TIP3    H241059   5.356   2.510   5.922  0.1148 -0.8413  2.5221
 5622TIP3   OH241060   0.755   5.405   6.155 -0.2975  0.5147 -0.2219
 5622TIP3    H141061   0.802   5.470   6.206 -1.2797 -0.2761  1.7988
 5622TIP3    H241062   0.679   5.452   6.120 -1.0678  0.4690  1.3279
 5623TIP3   OH241063   6.589   0.119   5.261  0.5353  0.2155 -0.5350
 5623TIP3    H141064   6.580   0.068   5.342  1.8462 -1.9941 -1.6983
 5623TIP3    H241065   6.499   0.146   5.241  0.0351 -0.1259  1.0500
 5624TIP3   OH241066   4.604   2.454   5.642 -0.1742  0.1999  0.1251
 5624TIP3    H141067   4.600   2.548   5.661  0.2341  0.3506 -0.5060
 5624TIP3    H241068   4.651   2.448   5.559  0.9077 -0.6395  0.7658
 5625TIP3   OH241069   1.886   0.054   5.415 -0.1057  0.5968 -0.1552
 5625TIP3    H141070   1.826   0.090   5.480 -0.5940 -0.9677  0.2947
 5625TIP3    H241071   1.939   0.130   5.387  0.2119  1.3080  2.1366
 5626TIP3   OH241072   1.505   6.515   5.573  0.3247  0.6567  0.0202
 5626TIP3    H141073   1.558   6.439   5.550 -1.9998 -0.8491 -0.7427
 5626TIP3    H241074   1.526   6.580   5.506  0.8319 -0.0840 -0.5505
 5627TIP3   OH241075   1.196   3.358   5.760  0.4471 -0.3273 -0.4270
 5627TIP3    H141076   1.285   3.335   5.733  0.4438 -0.2875 -0.4721
 5627TIP3    H241077   1.201   3.361   5.856  0.7575  0.7322 -0.4674
 5628TIP3   OH241078   6.670   4.051   6.129  0.3923  0.3203  0.0275
 5628TIP3    H141079   6.671   4.058   6.225 -1.8399  1.9634  0.0131
 5628TIP3    H241080   6.577   4.043   6.107  0.6237  2.4776 -2.1241
 5629TIP3   OH241081   2.581   6.985   5.220  0.2610  0.0199  0.2325
 5629TIP3    H141082   2.608   7.021   5.304 -0.0058  0.4492  0.1396
 5629TIP3    H241083   2.573   6.891   5.235  0.6703  0.0340  0.5606
 5630TIP3   OH241084   2.817   7.485   4.963 -0.0424  0.1791 -0.2357
 5630TIP3    H141085   2.897   7.477   4.911  0.2409 -1.1876  0.3724
 5630TIP3    H241086   2.828   7.568   5.010  1.6734 -0.5921  0.8641
 5631TIP3   OH241087   1.066   2.744   6.027 -0.0505  0.2256  0.2821
 5631TIP3    H141088   1.108   2.658   6.029  0.3969  0.4153 -0.5751
 5631TIP3    H241089   1.124   2.798   5.973 -1.4537  0.4590 -1.0639
 5632TIP3   OH241090   6.298   3.411   5.539 -0.1253 -0.0017 -0.3638
 5632TIP3    H141091   6.391   3.392   5.547 -0.6877 -2.5213  1.7473
 5632TIP3    H241092   6.286   3.436   5.448  2.6883  1.0760 -0.5269
 5633TIP3   OH241093   1.768   2.426   5.434 -0.2350  0.1880  0.1822
 5633TIP3    H141094   1.731   2.419   5.346 -0.2388  3.4057 -0.1778
 5633TIP3    H241095   1.697   2.398   5.492 -0.1505 -2.2123 -0.7609
 5634TIP3   OH241096   5.226   5.542   6.000  0.0105 -0.0193  0.2019
 5634TIP3    H141097   5.271   5.592   5.932  2.1619  1.4450  2.5386
 5634TIP3    H241098   5.287   5.473   6.023  0.3191  0.8311  2.1032
 5635TIP3   OH241099   6.522   1.794   5.079 -0.5958  0.2168 -0.7879
 5635TIP3    H141100   6.524   1.888   5.098 -0.9247  0.4421 -1.8212
 5635TIP3    H241101   6.437   1.780   5.037 -0.2289 -0.3971 -1.3436
 5636TIP3   OH241102   5.365   4.659   6.689 -0.4250 -0.4153 -0.4718
 5636TIP3    H141103   5.459   4.673   6.702 -0.3679  2.6354 -2.8404
 5636TIP3    H241104   5.325   4.735   6.732 -1.7404 -1.1518 -0.3715
 5637TIP3   OH241105   5.247   5.657   5.612 -0.4832 -0.1164  0.3866
 5637TIP3    H141106   5.206   5.592   5.668  2.1287 -0.1329  2.4626
 5637TIP3    H241107   5.206   5.740   5.637 -0.8326 -0.4155  0.8050
 5638TIP3   OH241108   7.095   0.892   5.656  0.0014 -0.1818 -0.3163
 5638TIP3    H141109   7.149   0.843   5.595 -0.8474 -0.0796 -1.1793
 5638TIP3    H241110   7.066   0.969   5.606  2.2409  1.8801  1.3443
 5639TIP3   OH241111   5.225   6.825   7.392 -0.9801  0.1191 -0.7710
 5639TIP3    H141112   5.179   6.745   7.367 -2.7237  0.9986 -0.5812
 5639TIP3    H241113   5.301   6.795   7.442 -1.9693 -1.4054 -0.1018
 5640TIP3   OH241114   3.617   1.372   6.632 -0.3578 -0.1636  0.4994
 5640TIP3    H141115   3.652   1.428   6.563 -0.9568 -0.1842  0.1713
 5640TIP3    H241116   3.693   1.322   6.663 -0.3765 -1.5583 -1.4681
 5641TIP3   OH241117   2.134   5.749   6.285 -0.0467  0.0198  0.2708
 5641TIP3    H141118   2.057   5.739   6.229  0.7860  1.0410 -1.1288
 5641TIP3    H241119   2.198   5.688   6.250 -0.2084 -0.8970  1.4897
 5642TIP3   OH241120   2.377   0.365   6.033  0.0630 -0.3262 -0.3702
 5642TIP3    H141121   2.436   0.415   5.976  1.5397 -1.6513 -0.0873
 5642TIP3    H241122   2.376   0.414   6.115 -0.6947  0.6628 -0.9420
 5643TIP3   OH241123   6.879   5.162   5.689  0.3977 -0.1322  0.8532
 5643TIP3    H141124   6.865   5.113   5.607 -0.4355 -1.1856  1.5955
 5643TIP3    H241125   6.887   5.253   5.661 -1.3434 -0.2816 -0.2965
 5644TIP3   OH241126   5.849   2.983   4.772  0.2297 -0.1284 -0.9022
 5644TIP3    H141127   5.873   2.940   4.854  0.5793  0.2450 -0.8075
 5644TIP3    H241128   5.802   3.062   4.798  1.2632  0.5414 -1.0325
 5645TIP3   OH241129   6.531   7.493   6.761 -0.0960 -0.4524 -0.1513
 5645TIP3    H141130   6.486   7.532   6.836  0.6884 -0.8760  0.5600
 5645TIP3    H241131   6.622   7.520   6.771 -0.2874  0.9804 -1.9695
 5646TIP3   OH241132   4.121   5.779   4.810  0.3191 -0.2302 -0.3444
 5646TIP3    H141133   4.079   5.829   4.740 -0.2572 -2.4484 -1.6817
 5646TIP3    H241134   4.050   5.751   4.866  0.5118 -0.4613 -0.2161
 5647TIP3   OH241135   7.021   0.915   6.213 -0.5680 -0.0865  0.2343
 5647TIP3    H141136   7.114   0.937   6.215 -0.3710 -0.9067  0.6627
 5647TIP3    H241137   6.981   0.983   6.159  0.5021 -0.5298 -1.1749
 5648TIP3   OH241138   6.395   7.331   7.087  0.0486 -0.0605 -0.2149
 5648TIP3    H141139   6.351   7.312   7.170  0.6544 -1.5963 -0.2144
 5648TIP3    H241140   6.485   7.349   7.112  0.3144 -0.8746 -0.5473
 5649TIP3   OH241141   4.514   7.257   6.742  0.7424  0.0916  0.1693
 5649TIP3    H141142   4.460   7.185   6.777  1.4909  0.0025  1.2005
 5649TIP3    H241143   4.603   7.222   6.742  1.1738  1.1296  1.0525
 5650TIP3   OH241144   5.310   5.975   4.957  0.4528 -0.2881 -0.0125
 5650TIP3    H141145   5.233   6.030   4.944  1.5802  1.7358  1.4089
 5650TIP3    H241146   5.376   6.034   4.994  2.6113 -2.0020 -0.8905
 5651TIP3   OH241147   1.098   7.054   6.851 -0.3703 -0.3475  0.4148
 5651TIP3    H141148   1.146   6.979   6.816 -0.3212 -0.9812  1.7559
 5651TIP3    H241149   1.143   7.131   6.817 -1.4241 -0.8507 -2.3759
 5652TIP3   OH241150   1.946   7.609   5.724  0.4225  0.4826 -0.1054
 5652TIP3    H141151   1.976   7.518   5.719 -0.8365  0.1133 -1.9138
 5652TIP3    H241152   2.012   7.658   5.674  1.3891  0.6774  1.3162
 5653TIP3   OH241153   0.184   1.280   7.137 -0.0822  0.1591 -0.3243
 5653TIP3    H141154   0.144   1.263   7.052 -0.3609 -0.1009 -0.1438
 5653TIP3    H241155   0.117   1.328   7.186  0.7011  1.8392 -0.8315
 5654TIP3   OH241156   6.969   4.229   6.278  0.3299  0.1764 -0.1549
 5654TIP3    H141157   6.942   4.171   6.349 -2.4445  1.0675 -0.3363
 5654TIP3    H241158   6.941   4.316   6.306  0.9630  0.8407 -1.4985
 5655TIP3   OH241159   3.579   5.254   6.120 -0.1058 -0.1044 -0.3124
 5655TIP3    H141160   3.596   5.236   6.027 -2.6687  0.7684 -1.0624
 5655TIP3    H241161   3.526   5.181   6.150  0.9148 -0.5067  0.5867
 5656TIP3   OH241162   3.216   6.692   6.782  0.2167  0.4424  0.4583
 5656TIP3    H141163   3.281   6.623   6.788 -0.2978 -0.1483 -0.5687
 5656TIP3    H241164   3.239   6.753   6.853  2.2350  0.5766 -0.2571
 5657TIP3   OH241165   1.469   1.601   5.817  0.6086  0.3226 -0.1043
 5657TIP3    H141166   1.443   1.630   5.905  0.9187 -0.0125  0.1024
 5657TIP3    H241167   1.461   1.505   5.820  0.9289  0.2860 -0.3376
 5658TIP3   OH241168   1.495   0.219   8.114  0.3702  0.7117 -0.5957
 5658TIP3    H141169   1.434   0.148   8.095  0.9908  0.1679 -0.5675
 5658TIP3    H241170   1.482   0.281   8.042  1.2946 -0.4165 -1.7990
 5659TIP3   OH241171   2.189   7.438   6.274  0.0442  0.7848  0.0793
 5659TIP3    H141172   2.163   7.513   6.221  1.0213  0.7483 -0.4673
 5659TIP3    H241173   2.263   7.470   6.325 -1.3564  1.0747  2.0861
 5660TIP3   OH241174   4.372   7.590   6.499  0.4807  0.2806 -0.1811
 5660TIP3    H141175   4.452   7.540   6.518 -0.6800 -1.7178 -0.2363
 5660TIP3    H241176   4.388   7.629   6.413  2.0492  1.4020  0.5758
 5661TIP3   OH241177   5.904   2.773   6.051  0.0745 -0.2370  0.0883
 5661TIP3    H141178   5.862   2.750   6.134 -0.2452 -1.4015 -0.3666
 5661TIP3    H241179   5.947   2.856   6.067 -0.4700 -0.1669  1.2526
 5662TIP3   OH241180   7.068   2.343   6.319  0.2283 -0.2017  0.4403
 5662TIP3    H141181   7.150   2.308   6.285  0.7170  0.7282  0.6349
 5662TIP3    H241182   7.038   2.277   6.381  0.9368 -0.4613  0.5164
 5663TIP3   OH241183   1.426   0.750   5.964  0.0124 -0.4925  0.4468
 5663TIP3    H141184   1.333   0.737   5.942 -0.2944 -0.3784  1.6411
 5663TIP3    H241185   1.438   0.845   5.957  0.4885 -0.6427 -1.3559
 5664TIP3   OH241186   7.246   1.614   7.065 -0.1734  0.4871 -0.3363
 5664TIP3    H141187   7.293   1.640   7.145 -1.4134  0.3220  0.4718
 5664TIP3    H241188   7.153   1.623   7.088 -0.6283 -2.0686 -0.8746
 5665TIP3   OH241189   1.225   4.583   4.955 -0.5248  0.4860 -0.0194
 5665TIP3    H141190   1.151   4.605   4.899  0.6404  0.3059 -1.7025
 5665TIP3    H241191   1.259   4.668   4.983 -1.1158  0.5769  0.4446
 5666TIP3   OH241192   4.304   1.187   5.061 -0.2325 -0.0359 -0.4073
 5666TIP3    H141193   4.314   1.099   5.024 -0.3545 -0.2014 -0.0529
 5666TIP3    H241194   4.391   1.226   5.055 -0.2511 -0.0612 -0.8651
 5667TIP3   OH241195   2.584   0.196   5.884  0.1941  0.4866 -0.3198
 5667TIP3    H141196   2.581   0.259   5.956 -0.1220 -1.6408  1.6816
 5667TIP3    H241197   2.671   0.156   5.892 -0.2354 -0.5026 -0.4044
 5668TIP3   OH241198   7.455   6.319   4.705  0.2296  0.2220 -0.0506
 5668TIP3    H141199   7.452   6.224   4.715  1.0718  0.0592 -1.0766
 5668TIP3    H241200   7.421   6.334   4.616 -2.1575  1.1003  0.9427
 5669TIP3   OH241201   6.828   0.142   5.545  0.1049  0.2210 -0.3762
 5669TIP3    H141202   6.789   0.128   5.459  0.1759  0.0486 -0.3800
 5669TIP3    H241203   6.898   0.077   5.551 -0.9242 -0.8649  0.4603
 5670TIP3   OH241204   5.913   6.872   7.301  0.0574  0.0924 -0.0876
 5670TIP3    H141205   5.881   6.961   7.314 -1.3705 -0.2350 -1.1772
 5670TIP3    H241206   5.835   6.817   7.306  0.9245 -1.1353  0.6845
 5671TIP3   OH241207   3.624   0.548   6.055 -0.2495  0.2296 -0.2158
 5671TIP3    H141208   3.703   0.527   6.105  1.2446  3.2730 -1.0563
 5671TIP3    H241209   3.635   0.501   5.972  0.5711  0.4555 -0.2411
 5672TIP3   OH241210   0.148   2.494   5.254  0.4631  0.6856  0.4245
 5672TIP3    H141211   0.153   2.399   5.262  0.1452  0.8083  3.1410
 5672TIP3    H241212   0.220   2.527   5.307  0.2308  1.9548 -0.0130
 5673TIP3   OH241213   4.146   2.351   5.658 -0.0005 -0.7760 -0.1972
 5673TIP3    H141214   4.209   2.350   5.730  0.1511 -1.6811 -0.3312
 5673TIP3    H241215   4.065   2.319   5.697 -0.0106 -0.9405 -0.3552
 5674TIP3   OH241216   4.293   1.576   4.707 -0.4849 -0.3175 -0.3935
 5674TIP3    H141217   4.235   1.652   4.711 -1.1065 -0.8081  1.7388
 5674TIP3    H241218   4.246   1.513   4.654 -0.6589  0.2477 -0.9223
 5675TIP3   OH241219   3.688   3.912   7.308  0.5017 -0.1566 -0.3223
 5675TIP3    H141220   3.727   3.891   7.224  1.5978  3.0035 -0.7377
 5675TIP3    H241221   3.718   4.001   7.328 -0.0527 -0.5894  3.2277
 5676TIP3   OH241222   4.144   3.005   4.913  1.0482  0.0863  0.0559
 5676TIP3    H141223   4.155   2.917   4.878  2.3531  0.2858 -0.0605
 5676TIP3    H241224   4.056   3.031   4.886  0.5045 -1.3163  0.4158
 5677TIP3   OH241225   6.476   2.059   5.132  0.1783 -0.1093  0.0636
 5677TIP3    H141226   6.487   2.095   5.219  1.5884 -1.8928  0.7039
 5677TIP3    H241227   6.385   2.030   5.128  0.6237 -1.9411  1.7821
 5678TIP3   OH241228   2.298   7.256   6.497 -0.0214 -0.1044  0.0527
 5678TIP3    H141229   2.265   7.192   6.561 -1.6066  0.0935 -0.5484
 5678TIP3    H241230   2.246   7.334   6.512 -0.5513 -0.1103 -1.5913
 5679TIP3   OH241231   4.770   1.197   5.948 -0.2573  0.1778 -0.6600
 5679TIP3    H141232   4.811   1.111   5.942 -0.1039  0.1551  0.3919
 5679TIP3    H241233   4.740   1.216   5.860  1.8007  0.0819 -1.4460
 5680TIP3   OH241234   6.246   2.749   6.620  0.1165  0.2723  0.2745
 5680TIP3    H141235   6.238   2.785   6.709 -0.5174 -0.1973  0.4154
 5680TIP3    H241236   6.260   2.656   6.633  0.2900  0.2428 -0.1179
 5681TIP3   OH241237   4.117   5.669   6.854  0.3991  0.3106 -0.0934
 5681TIP3    H141238   4.029   5.658   6.890  1.0819 -0.2749  1.4453
 5681TIP3    H241239   4.148   5.752   6.892  1.6191 -0.9529  1.8263
 5682TIP3   OH241240   2.593   0.387   6.899  0.3780 -0.1751 -0.2957
 5682TIP3    H141241   2.508   0.352   6.872  0.7777 -0.6395 -0.9879
 5682TIP3    H241242   2.574   0.442   6.975 -0.3325 -1.5861  0.5802
 5683TIP3   OH241243   1.004   4.775   4.893  0.6790 -0.1261 -0.2730
 5683TIP3    H141244   0.984   4.702   4.835 -0.5238 -0.9295  1.0970
 5683TIP3    H241245   0.938   4.841   4.872  0.6701 -0.1372 -0.2800
 5684TIP3   OH241246   0.344   2.971   6.644  0.0725  0.3746 -0.0715
 5684TIP3    H141247   0.412   2.939   6.584 -0.6667 -0.3518 -0.5540
 5684TIP3    H241248   0.316   3.055   6.606  1.0824  0.9513  0.4428
 5685TIP3   OH241249   4.017   5.320   5.384  0.3038 -0.0803  0.3307
 5685TIP3    H141250   4.047   5.408   5.406 -1.9328  0.8015  0.0300
 5685TIP3    H241251   3.968   5.330   5.303  0.9275 -1.8063 -0.3001
 5686TIP3   OH241252   7.592   0.769   6.100 -0.1266  0.2683 -0.2612
 5686TIP3    H141253   7.611   0.839   6.039 -0.7754 -0.6340 -1.5334
 5686TIP3    H241254   7.633   0.797   6.182  0.0720  1.8653 -0.8765
 5687TIP3   OH241255   2.418   5.905   4.794  0.4761  0.2648  0.4187
 5687TIP3    H141256   2.385   5.862   4.873 -1.2356  1.6609  0.5104
 5687TIP3    H241257   2.497   5.950   4.822  1.3056 -1.3046  0.7165
 5688TIP3   OH241258   4.864   0.865   5.124 -0.4302 -1.1083  0.0079
 5688TIP3    H141259   4.800   0.936   5.131 -1.0417 -1.5009 -1.2977
 5688TIP3    H241260   4.817   0.794   5.080  0.3609 -2.0956  0.7054
 5689TIP3   OH241261   3.668   5.919   6.357 -0.5889  0.4498  0.1080
 5689TIP3    H141262   3.680   5.826   6.376 -1.2716  0.0466 -1.3090
 5689TIP3    H241263   3.757   5.953   6.345 -0.3212  0.0588  0.9285
 5690TIP3   OH241264   5.861   5.904   4.638  0.2130  0.2831 -0.0995
 5690TIP3    H141265   5.898   5.820   4.612 -0.4191 -0.7196  2.0277
 5690TIP3    H241266   5.937   5.955   4.668  0.3454 -0.3891  0.7457
 5691TIP3   OH241267   5.631   2.362   7.424  0.1503  0.0988  0.1238
 5691TIP3    H141268   5.713   2.364   7.375  0.3200 -1.1201  0.3354
 5691TIP3    H241269   5.575   2.301   7.376 -0.4538  0.5334  0.2671
 5692TIP3   OH241270   0.977   4.546   6.599  0.5143  0.8998  0.5184
 5692TIP3    H141271   0.891   4.553   6.641  0.4367  0.3000  0.4799
 5692TIP3    H241272   1.030   4.615   6.639  1.0770 -0.8999  3.1869
 5693TIP3   OH241273   3.088   6.337   6.835  0.0179 -0.2928 -0.3590
 5693TIP3    H141274   3.092   6.253   6.790 -0.2670 -1.3854  1.5291
 5693TIP3    H241275   3.047   6.396   6.772 -0.8487 -1.8668 -1.3409
 5694TIP3   OH241276   3.633   6.491   5.763  0.4261  0.3113 -0.2241
 5694TIP3    H141277   3.715   6.482   5.716  0.7933  0.2597  0.4118
 5694TIP3    H241278   3.653   6.461   5.852 -0.8064 -1.8521 -0.5848
 5695TIP3   OH241279   3.838   0.382   6.513  0.0629  0.4980  0.0106
 5695TIP3    H141280   3.829   0.344   6.425  1.3790  1.5458 -0.5999
 5695TIP3    H241281   3.860   0.307   6.569 -2.2853 -0.4531 -0.2212
 5696TIP3   OH241282   4.398   0.448   5.361 -0.0073  0.4144 -0.2022
 5696TIP3    H141283   4.468   0.423   5.300  1.2086  2.3461  0.3305
 5696TIP3    H241284   4.340   0.371   5.363  2.0331 -1.2315 -0.7180
 5697TIP3   OH241285   6.593   4.834   6.701 -0.2416 -0.0995  0.3406
 5697TIP3    H141286   6.558   4.922   6.714 -0.6070 -0.0158 -1.0570
 5697TIP3    H241287   6.593   4.795   6.788  0.6362  1.5312  1.1186
 5698TIP3   OH241288   2.329   3.025   6.090  0.4201 -0.5548 -0.0644
 5698TIP3    H141289   2.290   3.102   6.131  1.5482 -0.7187  1.4023
 5698TIP3    H241290   2.385   3.061   6.021 -0.0591 -0.1446 -0.2456
 5699TIP3   OH241291   6.228   6.462   5.338 -0.0882  0.6465  0.1384
 5699TIP3    H141292   6.303   6.444   5.395  0.1416 -0.7851 -0.5586
 5699TIP3    H241293   6.157   6.485   5.398  0.7542  1.4617  0.8420
 5700TIP3   OH241294   5.514   6.366   5.561 -0.5666  0.4235  0.6175
 5700TIP3    H141295   5.599   6.379   5.519 -0.3581  2.7155  1.6008
 5700TIP3    H241296   5.529   6.386   5.653 -1.5860 -1.9318  1.3528
 5701TIP3   OH241297   3.864   1.895   4.682 -0.3521  0.7120 -0.2101
 5701TIP3    H141298   3.813   1.964   4.640  1.9162  1.0888 -2.5886
 5701TIP3    H241299   3.844   1.816   4.632  1.0138  0.7955 -0.9561
 5702TIP3   OH241300   1.485   7.468   7.718  0.2458  0.2651  0.2514
 5702TIP3    H141301   1.432   7.393   7.746 -0.1956  0.4095 -0.1917
 5702TIP3    H241302   1.467   7.536   7.783  0.2729  0.1506  0.3788
 5703TIP3   OH241303   7.629   5.000   4.628  0.6878  0.0075  0.0983
 5703TIP3    H141304   7.584   4.919   4.650 -1.3084  1.4953  1.8515
 5703TIP3    H241305   7.618   5.008   4.533 -0.6051 -0.9186  0.1420
 5704TIP3   OH241306   6.774   2.702   6.026  0.6975  0.5603 -0.6293
 5704TIP3    H141307   6.787   2.788   5.986 -0.8222  1.0771 -0.0872
 5704TIP3    H241308   6.681   2.700   6.049  0.8650 -0.9480  0.0273
 5705TIP3   OH241309   1.452   0.873   6.762 -0.7391  0.0379  0.5683
 5705TIP3    H141310   1.459   0.849   6.670 -1.9954 -0.0586  0.4918
 5705TIP3    H241311   1.416   0.962   6.761 -1.7761 -0.3716  0.9849
 5706TIP3   OH241312   0.014   5.067   5.450 -0.6843 -0.5931  0.5256
 5706TIP3    H141313   0.076   5.140   5.448  1.9337 -2.6941  0.1574
 5706TIP3    H241314  -0.048   5.086   5.379  1.2451  0.2286 -1.0295
 5707TIP3   OH241315   5.034   6.849   6.510 -0.0925  0.1390  0.2460
 5707TIP3    H141316   5.023   6.778   6.445  0.7466  1.2712 -1.1863
 5707TIP3    H241317   5.114   6.826   6.557 -0.3664 -0.3697  0.4764
 5708TIP3   OH241318   1.318   2.950   5.266  0.2164 -0.1372  0.4168
 5708TIP3    H141319   1.251   3.011   5.296  0.7951  0.9946 -0.5298
 5708TIP3    H241320   1.276   2.903   5.194  0.7592  1.3965 -0.9708
 5709TIP3   OH241321   0.015   5.262   6.493  0.1109  0.2253 -0.1829
 5709TIP3    H141322   0.011   5.191   6.429 -0.8821  0.5807 -0.5409
 5709TIP3    H241323  -0.012   5.220   6.576  4.2501 -0.9793  0.8103
 5710TIP3   OH241324   2.792   1.388   5.009 -0.0328  0.6633 -0.4880
 5710TIP3    H141325   2.805   1.470   4.961  0.4905  0.4331 -0.7401
 5710TIP3    H241326   2.880   1.357   5.029 -0.1962 -0.2733 -1.1429
 5711TIP3   OH241327   1.136   3.420   5.394 -0.0253  0.2524 -0.1826
 5711TIP3    H141328   1.223   3.379   5.399  0.0149  0.3569 -0.0026
 5711TIP3    H241329   1.102   3.395   5.309  0.1348  0.1128 -0.2048
 5712TIP3   OH241330   7.016   3.433   5.264 -0.1146  0.3773 -0.5390
 5712TIP3    H141331   7.095   3.410   5.313 -0.8387 -2.7047 -0.6135
 5712TIP3    H241332   6.947   3.437   5.330 -0.2465  1.1106 -0.7157
 5713TIP3   OH241333   0.877   0.369   4.857 -0.1806 -0.3739 -0.0470
 5713TIP3    H141334   0.782   0.368   4.846 -0.4385  0.6855  1.6748
 5713TIP3    H241335   0.896   0.292   4.911 -0.2781  0.2067  0.8443
 5714TIP3   OH241336   4.783   4.635   7.197  0.0013 -0.2146 -0.0188
 5714TIP3    H141337   4.848   4.565   7.187 -0.6775 -0.7337 -0.8763
 5714TIP3    H241338   4.779   4.650   7.292 -0.6363 -2.0935  0.2909
 5715TIP3   OH241339   5.299   1.721   6.864  0.1355 -0.2131 -0.0097
 5715TIP3    H141340   5.276   1.640   6.909 -0.7483  0.0997  0.1193
 5715TIP3    H241341   5.360   1.765   6.923  0.1745 -0.5167  0.1801
 5716TIP3   OH241342   0.105   0.960   4.705 -0.5205 -0.4404 -0.2616
 5716TIP3    H141343   0.027   0.973   4.759 -0.6768  0.3832 -0.6740
 5716TIP3    H241344   0.110   0.865   4.693 -0.4530 -0.6520  1.2398
 5717TIP3   OH241345   6.437   5.089   6.697  0.1204 -0.5033  0.5094
 5717TIP3    H141346   6.477   5.158   6.751 -0.7402 -0.2324  0.8177
 5717TIP3    H241347   6.349   5.121   6.679  0.9928  0.3564 -2.7814
 5718TIP3   OH241348   2.762   5.876   7.110 -0.0898 -0.5261  0.0054
 5718TIP3    H141349   2.668   5.893   7.108  0.0157  0.0142 -2.3184
 5718TIP3    H241350   2.797   5.946   7.165 -0.9554 -0.3529  0.3571
 5719TIP3   OH241351   7.569   7.088   6.688 -0.5467  0.0118 -0.3739
 5719TIP3    H141352   7.476   7.065   6.691 -0.8457  1.1920  0.2605
 5719TIP3    H241353   7.605   7.052   6.769 -0.7031  0.5191 -0.0748
 5720TIP3   OH241354   6.191   6.185   6.068 -0.0455 -0.2599 -0.0746
 5720TIP3    H141355   6.145   6.266   6.086  0.6446  0.1400 -0.0752
 5720TIP3    H241356   6.158   6.123   6.133  0.3596  0.3834  0.7672
 5721TIP3   OH241357   7.341   4.159   4.707 -0.3005  0.3642 -0.0265
 5721TIP3    H141358   7.310   4.084   4.656 -0.6630  1.4467 -1.4715
 5721TIP3    H241359   7.298   4.149   4.792  0.5900 -1.6840  0.2384
 5722TIP3   OH241360   7.223   3.104   7.284  0.2780 -0.2354 -0.2458
 5722TIP3    H141361   7.212   3.192   7.250 -0.9997 -0.9621 -1.8143
 5722TIP3    H241362   7.138   3.062   7.271  1.1939 -2.0535 -0.6424
 5723TIP3   OH241363   6.403   5.500   4.619 -0.1620  0.6268  0.1959
 5723TIP3    H141364   6.393   5.576   4.676 -0.3918  0.9206 -0.2202
 5723TIP3    H241365   6.487   5.462   4.642 -0.3260  0.6481  0.8342
 5724TIP3   OH241366   7.405   0.025   6.688 -0.1080 -0.1962 -0.1888
 5724TIP3    H141367   7.362   0.079   6.754 -1.1956 -0.1101 -0.9549
 5724TIP3    H241368   7.422   0.085   6.615  2.8586  0.2119  0.6780
 5725TIP3   OH241369   0.794   6.493   6.405  0.7391  0.4591 -0.1975
 5725TIP3    H141370   0.731   6.546   6.454  1.3756  0.6760  0.4029
 5725TIP3    H241371   0.849   6.558   6.360  1.5691  0.3337  0.6007
 5726TIP3   OH241372   6.977   7.320   6.423  0.0482 -1.1042  0.5554
 5726TIP3    H141373   6.928   7.385   6.474 -0.7167 -1.3046  0.0996
 5726TIP3    H241374   6.909   7.274   6.373  0.7197 -1.3428 -0.1441
 5727TIP3   OH241375   3.403   3.329   5.970  0.4318 -0.2271 -0.1631
 5727TIP3    H141376   3.417   3.252   5.915  2.0180 -0.7098  0.8306
 5727TIP3    H241377   3.310   3.324   5.995 -0.1730 -0.2992 -2.2462
 5728TIP3   OH241378   3.758   4.750   6.150 -0.4392 -0.3140 -0.3023
 5728TIP3    H141379   3.756   4.680   6.215 -0.7268  0.6244  0.7356
 5728TIP3    H241380   3.824   4.722   6.086  1.4525 -0.2792  1.5458
 5729TIP3   OH241381   2.953   5.658   5.236 -0.0164  0.0214 -0.3334
 5729TIP3    H141382   3.037   5.664   5.280  0.6506 -0.2569 -1.5433
 5729TIP3    H241383   2.943   5.566   5.214 -1.2375 -0.1838  0.9072
 5730TIP3   OH241384   4.278   6.759   4.879  0.7296 -0.2521 -0.1059
 5730TIP3    H141385   4.306   6.822   4.945  1.5198 -1.0386  0.3345
 5730TIP3    H241386   4.321   6.787   4.799 -0.4738  0.8847 -0.3878
 5731TIP3   OH241387   6.969   2.703   5.024  0.1522 -0.9782  0.6929
 5731TIP3    H141388   6.891   2.651   5.002 -1.2521  2.4447 -3.9451
 5731TIP3    H241389   6.935   2.780   5.068  1.3751 -0.8895  1.5247
 5732TIP3   OH241390   1.544   6.902   5.006 -0.6072 -0.5172 -0.2060
 5732TIP3    H141391   1.540   6.997   5.013  0.0336 -0.3250 -1.9321
 5732TIP3    H241392   1.470   6.871   5.057 -0.7389  0.8958  0.5113
 5733TIP3   OH241393   1.931   1.455   6.906 -0.2752 -0.1434 -0.0235
 5733TIP3    H141394   1.887   1.370   6.909  0.9459 -0.7820  0.4076
 5733TIP3    H241395   1.935   1.483   6.998  0.3673 -0.1808 -0.0356
 5734TIP3   OH241396   1.125   6.637   5.485  0.6707 -0.7200  0.4258
 5734TIP3    H141397   1.192   6.610   5.423  0.7818 -0.2618  0.3415
 5734TIP3    H241398   1.066   6.693   5.434  0.9787 -0.0242  0.8239
 5735TIP3   OH241399   1.763   0.976   6.742 -0.4199 -0.0648  0.0548
 5735TIP3    H141400   1.712   0.954   6.664 -0.6572  1.0633 -0.1279
 5735TIP3    H241401   1.728   0.919   6.810 -0.3523 -0.9200 -0.6037
 5736TIP3   OH241402   3.162   6.404   5.351  0.3657  0.4979 -0.3912
 5736TIP3    H141403   3.132   6.470   5.414  1.5566  1.8317 -1.1613
 5736TIP3    H241404   3.244   6.371   5.388 -0.9974 -1.8189  0.8054
 5737TIP3   OH241405   4.569   1.433   7.291  0.3038 -0.0523  0.0393
 5737TIP3    H141406   4.496   1.375   7.312 -0.2490  0.2186 -1.1015
 5737TIP3    H241407   4.619   1.438   7.373 -0.0147 -1.5818  0.3628
 5738TIP3   OH241408   5.637   6.319   4.835  0.2225 -0.0329  0.0998
 5738TIP3    H141409   5.677   6.241   4.797  0.4095  0.4100 -0.6229
 5738TIP3    H241410   5.675   6.392   4.786  0.1328  0.5230  0.8414
 5739TIP3   OH241411   1.257   1.536   5.610 -0.1213 -0.0661  0.0061
 5739TIP3    H141412   1.313   1.585   5.671 -2.0075 -0.8072  2.5060
 5739TIP3    H241413   1.299   1.547   5.525  1.2980  3.1753  0.9628
 5740TIP3   OH241414   4.710   4.663   5.910  0.3977 -0.6506 -0.5279
 5740TIP3    H141415   4.638   4.723   5.892  0.9437  0.9992  2.2126
 5740TIP3    H241416   4.784   4.699   5.862  0.6246  0.7661  0.7980
 5741TIP3   OH241417   5.888   7.602   6.036  0.1758  0.6556  0.9665
 5741TIP3    H141418   5.841   7.519   6.024 -1.3675  1.5685  0.3985
 5741TIP3    H241419   5.980   7.577   6.035 -0.1860 -0.8741 -0.7485
 5742TIP3   OH241420   0.182   4.743   5.012  0.5419 -0.0859 -0.0661
 5742TIP3    H141421   0.128   4.699   4.946 -0.7155 -0.9791  1.4805
 5742TIP3    H241422   0.202   4.674   5.076 -0.0398  1.1577  1.5503
 5743TIP3   OH241423   0.591   1.959  13.696 -0.1493  0.0620  0.1204
 5743TIP3    H141424   0.629   1.898  13.759  1.0458  0.0178 -0.6087
 5743TIP3    H241425   0.524   1.908  13.650  1.4315 -1.0255 -1.0858
 5744TIP3   OH241426   7.562   1.049   6.029 -0.2545  0.1877  0.2424
 5744TIP3    H141427   7.575   1.012   5.942  0.1419  0.0230  0.3694
 5744TIP3    H241428   7.639   1.103   6.045  1.1102 -2.0181  1.6201
 5745TIP3   OH241429   7.593   4.432   5.878  0.2962 -0.1057 -0.0108
 5745TIP3    H141430   7.579   4.337   5.879  1.0951 -0.2491  2.5291
 5745TIP3    H241431   7.654   4.446   5.806  1.0366 -1.6799  0.2683
 5746TIP3   OH241432   0.025   3.230   4.684  0.0343 -0.1803  0.2748
 5746TIP3    H141433   0.027   3.323   4.664 -0.4319 -0.5189 -1.5453
 5746TIP3    H241434  -0.042   3.221   4.752 -0.2823  0.7590  0.1022
 5747TIP3   OH241435   3.316   3.957   6.698 -0.0950 -0.2853 -0.1604
 5747TIP3    H141436   3.314   3.867   6.730 -1.3523 -0.1878  0.0947
 5747TIP3    H241437   3.273   4.008   6.768  2.0794  0.7886  0.4694
 5748TIP3   OH241438   2.763   1.597   4.857 -0.3624 -0.7182  0.0162
 5748TIP3    H141439   2.674   1.565   4.845 -0.9993  1.0613 -0.4136
 5748TIP3    H241440   2.764   1.682   4.813  1.7512 -0.9799 -0.5551
 5749TIP3   OH241441   6.628   7.591   5.463 -0.1914 -0.4139  0.1617
 5749TIP3    H141442   6.677   7.520   5.505  0.9162  1.4114  2.1688
 5749TIP3    H241443   6.549   7.549   5.429  1.2106 -2.9008 -0.3238
 5750TIP3   OH241444   6.255   6.914   6.447 -0.3109 -0.3283 -0.0466
 5750TIP3    H141445   6.244   6.971   6.372  0.4375 -0.1310 -0.0133
 5750TIP3    H241446   6.166   6.902   6.481 -0.6818 -0.5855 -1.0694
 5751TIP3   OH241447   3.910   1.355   6.665  0.4864 -0.2438 -0.5136
 5751TIP3    H141448   3.950   1.323   6.584 -0.2186  0.4223 -1.1515
 5751TIP3    H241449   3.900   1.449   6.651 -0.3385 -0.2325  0.0314
 5752TIP3   OH241450   5.754   6.374   5.118  0.2897 -0.1094 -0.1104
 5752TIP3    H141451   5.699   6.349   5.043  0.1781 -2.3668  0.6624
 5752TIP3    H241452   5.738   6.468   5.128 -0.5147  0.0446 -2.2349
 5753TIP3   OH241453   6.280   0.919   5.902  0.5432 -0.5166  0.0848
 5753TIP3    H141454   6.365   0.875   5.904  0.1558 -1.3161 -0.4381
 5753TIP3    H241455   6.262   0.941   5.993  0.9668 -1.0096  0.2914
 5754TIP3   OH241456   0.159   6.904   5.771 -0.8761  0.4331 -0.2272
 5754TIP3    H141457   0.082   6.956   5.749 -0.4796  0.7072 -1.0069
 5754TIP3    H241458   0.134   6.814   5.746 -1.1510  0.4257  0.0676
 5755TIP3   OH241459   3.341   4.164   7.474  0.3214 -0.6568  0.4384
 5755TIP3    H141460   3.337   4.108   7.397  3.5082  0.6409 -0.8072
 5755TIP3    H241461   3.252   4.161   7.510 -1.0222 -2.0902 -2.6742
 5756TIP3   OH241462   4.712   5.944   6.487  0.0920 -0.7574 -0.3011
 5756TIP3    H141463   4.670   6.029   6.492 -0.6428 -1.1865  1.2398
 5756TIP3    H241464   4.734   5.934   6.394  2.1043  1.9862 -0.2495
 5757TIP3   OH241465   7.502   0.763   7.193  0.3935  0.2381  0.2186
 5757TIP3    H141466   7.543   0.842   7.226  1.3373 -0.3387  0.4726
 5757TIP3    H241467   7.497   0.705   7.269 -2.7610  0.9794  0.7104
 5758TIP3   OH241468   3.750   6.741   5.634 -0.2642  0.3503  0.3906
 5758TIP3    H141469   3.707   6.673   5.583 -0.5886 -0.7403  2.0487
 5758TIP3    H241470   3.679   6.797   5.666 -0.4917 -1.0426  2.5406
 5759TIP3   OH241471   0.966   1.659   6.332 -0.0752  0.0645 -0.4287
 5759TIP3    H141472   0.911   1.622   6.262  0.0938 -0.1908 -0.4300
 5759TIP3    H241473   1.048   1.611   6.324 -0.3469 -0.5766  0.4993
 5760TIP3   OH241474   7.552   3.324   7.454  0.1073  0.3644 -0.0433
 5760TIP3    H141475   7.507   3.405   7.429 -0.2273  0.3278  0.4185
 5760TIP3    H241476   7.634   3.354   7.494  0.5674  0.4266 -1.0098
 5761TIP3   OH241477   6.660   2.420   5.951 -1.0154  0.2736  0.1716
 5761TIP3    H141478   6.708   2.392   6.028  0.5620 -0.2085 -0.9375
 5761TIP3    H241479   6.684   2.512   5.940 -0.2522  0.0082 -0.4353
 5762TIP3   OH241480   4.150   1.058   6.283  0.1390 -0.1778 -0.2198
 5762TIP3    H141481   4.113   0.981   6.241  0.5722 -0.4503 -0.1094
 5762TIP3    H241482   4.177   1.114   6.210 -1.7514  0.6547 -0.3093
 5763TIP3   OH241483   1.304   0.517   5.717  0.6004  0.5276  0.1894
 5763TIP3    H141484   1.257   0.461   5.655  1.1478  1.7251 -1.3800
 5763TIP3    H241485   1.242   0.531   5.789 -1.0581  1.1152 -1.2814
 5764TIP3   OH241486   6.642   1.531   6.674  0.4954  0.3154  0.1448
 5764TIP3    H141487   6.604   1.570   6.753 -0.4668 -0.3539  0.0255
 5764TIP3    H241488   6.640   1.437   6.690 -1.3669  0.0475 -1.3715
 5765TIP3   OH241489   2.882   0.145   5.844  0.5584  0.6645 -0.3298
 5765TIP3    H141490   2.958   0.161   5.901 -1.3242  3.0958  1.6859
 5765TIP3    H241491   2.876   0.223   5.789 -0.5144  0.5180 -0.4370
 5766TIP3   OH241492   0.828   6.230   6.303 -0.3171 -0.3260  0.3249
 5766TIP3    H141493   0.819   6.312   6.351 -0.8029 -0.6644  0.8243
 5766TIP3    H241494   0.873   6.255   6.222 -0.4283  0.4271  0.4832
 5767TIP3   OH241495   5.607   7.409   7.698 -0.0104 -0.0808 -0.3193
 5767TIP3    H141496   5.634   7.319   7.717 -3.3558 -0.9492  0.9722
 5767TIP3    H241497   5.661   7.463   7.756  0.1912 -1.4912  0.8490
 5768TIP3   OH241498   6.739   2.072   5.538 -0.0056  0.1014  0.2339
 5768TIP3    H141499   6.770   1.991   5.579 -1.1206 -0.3746  0.1606
 5768TIP3    H241500   6.817   2.110   5.498  1.3136  0.9419  3.3105
 5769TIP3   OH241501   3.783   1.889   4.944  0.6698 -0.1758 -0.3090
 5769TIP3    H141502   3.787   1.896   4.848 -0.3749 -0.3553 -0.3785
 5769TIP3    H241503   3.873   1.871   4.970  1.6587  3.0283 -0.9837
 5770TIP3   OH241504   0.975   4.909   6.351  0.3663 -0.0473 -0.0139
 5770TIP3    H141505   1.041   4.918   6.420  0.9780 -2.3883 -0.2173
 5770TIP3    H241506   0.891   4.908   6.398  0.7343 -0.9929  0.6396
 5771TIP3   OH241507   7.446   0.911   6.309  0.1122 -0.3213 -0.1790
 5771TIP3    H141508   7.429   0.823   6.342  2.3301 -0.9087 -0.4313
 5771TIP3    H241509   7.381   0.924   6.240 -1.7403 -0.7983  1.3906
 5772TIP3   OH241510   2.435   2.384   5.972  0.3992 -0.1301 -0.2523
 5772TIP3    H141511   2.369   2.393   5.904 -0.1666  0.6194  0.3845
 5772TIP3    H241512   2.390   2.405   6.053  1.3323  0.0519  0.2348
 5773TIP3   OH241513   4.132   1.501   4.950  0.6626 -0.1193 -0.1022
 5773TIP3    H141514   4.216   1.545   4.940  0.1207  1.3560  1.3549
 5773TIP3    H241515   4.101   1.527   5.037  0.5064 -3.8418  1.1066
 5774TIP3   OH241516   6.968   7.186   5.138 -0.2512  0.3725  0.0929
 5774TIP3    H141517   6.955   7.173   5.045 -0.6417  4.2515 -0.5421
 5774TIP3    H241518   6.881   7.175   5.177 -0.0138 -1.6829  0.1758
 5775TIP3   OH241519   5.574   6.410   5.816  0.2829 -0.6323 -0.0878
 5775TIP3    H141520   5.600   6.374   5.901 -0.3436  0.1809  0.4718
 5775TIP3    H241521   5.631   6.486   5.804 -0.0648 -0.3668 -0.0806
 5776TIP3   OH241522   7.184   0.669   5.512  0.4483 -0.1832  0.2761
 5776TIP3    H141523   7.203   0.582   5.479 -1.8233 -0.2980 -0.9481
 5776TIP3    H241524   7.108   0.658   5.569 -1.9612  1.2875 -2.3983
 5777TIP3   OH241525   4.292   6.449   4.939  0.0082  0.0792  0.5293
 5777TIP3    H141526   4.382   6.445   4.909 -0.2043 -1.4855 -0.0141
 5777TIP3    H241527   4.254   6.525   4.893  0.6186 -0.2226 -0.4951
 5778TIP3   OH241528   7.130   0.732   6.532 -0.3319  0.5210 -0.2217
 5778TIP3    H141529   7.129   0.670   6.605 -1.5888 -0.7229 -1.2469
 5778TIP3    H241530   7.223   0.753   6.519  0.2002 -1.6286 -0.2218
 5779TIP3   OH241531   5.949   1.780   4.908  0.2344  0.8367 -0.1070
 5779TIP3    H141532   5.864   1.798   4.869  0.4548 -1.0164 -1.6274
 5779TIP3    H241533   5.939   1.695   4.951  1.2598  0.6809 -0.1295
 5780TIP3   OH241534   6.091   6.008   4.742  0.2402 -0.1593 -0.4180
 5780TIP3    H141535   6.179   5.983   4.713  0.2644  0.2092 -0.6645
 5780TIP3    H241536   6.104   6.043   4.830  0.1749 -1.2268  0.0405
 5781TIP3   OH241537   0.034   6.028   6.416  0.0069  0.0133 -0.5920
 5781TIP3    H141538   0.002   6.116   6.398 -1.0517 -0.6565 -2.1542
 5781TIP3    H241539  -0.032   5.990   6.474 -0.5199 -0.3441 -1.3987
 5782TIP3   OH241540   6.125   6.038   6.280  0.0913  0.0867  1.0546
 5782TIP3    H141541   6.092   5.964   6.330  2.1353 -0.4190  1.7442
 5782TIP3    H241542   6.178   6.088   6.342  0.5990  0.8695  0.0318
 5783TIP3   OH241543   3.313   2.136   5.368 -0.0693 -0.5805 -0.0409
 5783TIP3    H141544   3.231   2.174   5.400  0.0435 -1.5598  1.4696
 5783TIP3    H241545   3.325   2.176   5.281 -0.8787  1.4244  0.7069
 5784TIP3   OH241546   3.225   1.215   4.800  0.2800  0.3736 -0.5455
 5784TIP3    H141547   3.180   1.210   4.884 -0.0728  1.2522 -0.6635
 5784TIP3    H241548   3.272   1.132   4.792 -1.1577 -0.4804 -0.3308
 5785TIP3   OH241549   2.761   2.502   6.583  0.4084  0.4002  0.5334
 5785TIP3    H141550   2.753   2.426   6.525  0.4213  1.0156 -0.3057
 5785TIP3    H241551   2.839   2.484   6.635  0.3195 -0.2319  0.4528
 5786TIP3   OH241552   0.622   6.790   7.450  0.3540  0.3264 -0.0074
 5786TIP3    H141553   0.634   6.799   7.545  2.7023  0.0432 -0.2062
 5786TIP3    H241554   0.605   6.697   7.437 -0.9542  0.5191  0.1808
 5787TIP3   OH241555   0.300   1.875   5.462  0.0385  0.2478 -0.1990
 5787TIP3    H141556   0.284   1.847   5.372  0.5459 -2.1995  0.4226
 5787TIP3    H241557   0.345   1.959   5.452 -0.1900  0.1991 -2.2167
 5788TIP3   OH241558   7.610   3.794   5.721  0.0940  0.3511 -0.8529
 5788TIP3    H141559   7.687   3.848   5.733  0.0976 -0.1904  2.1255
 5788TIP3    H241560   7.640   3.721   5.666  1.8693 -0.1300  0.6682
 5789TIP3   OH241561   1.664   0.608   5.101  0.0523  0.9668 -0.4481
 5789TIP3    H141562   1.639   0.680   5.159 -0.7123  0.0551  0.3998
 5789TIP3    H241563   1.751   0.582   5.132  0.3795  1.5747 -0.8274
 5790TIP3   OH241564   3.743   3.219   4.931  0.1777  0.4028 -0.9804
 5790TIP3    H141565   3.718   3.206   5.023 -4.2816 -0.6435 -2.1169
 5790TIP3    H241566   3.741   3.314   4.920  1.9068  0.6198  0.1965
 5791TIP3   OH241567   4.275   4.489   6.010  0.0281 -0.0852 -0.0791
 5791TIP3    H141568   4.318   4.499   5.925  0.2259 -1.1212 -0.1047
 5791TIP3    H241569   4.303   4.567   6.060  0.3793  0.2249 -0.7505
 5792TIP3   OH241570   7.669   5.024   6.322  0.5297 -1.3107  0.0340
 5792TIP3    H141571   7.575   5.016   6.336  0.4367 -1.5185 -0.6534
 5792TIP3    H241572   7.683   4.993   6.232  1.3655 -2.0814  0.4072
 5793TIP3   OH241573   6.501   6.882   5.519  0.2655  0.1461 -0.0316
 5793TIP3    H141574   6.553   6.806   5.544  0.4100 -0.2362 -1.4115
 5793TIP3    H241575   6.418   6.846   5.488  0.6374  0.4484 -1.4914
 5794TIP3   OH241576   7.556   3.124   6.592  0.1854  0.0842 -0.0675
 5794TIP3    H141577   7.465   3.111   6.566 -0.0815  1.5361  0.0336
 5794TIP3    H241578   7.601   3.045   6.562 -1.2958 -1.2199  0.9242
 5795TIP3   OH241579   3.974   4.698   5.657 -0.2985 -0.4578  1.3004
 5795TIP3    H141580   3.974   4.603   5.646 -3.3246 -1.0381  4.4533
 5795TIP3    H241581   4.056   4.717   5.703  1.5125 -1.0333 -1.4463
 5796TIP3   OH241582   0.634   1.297   6.900 -0.0572  0.2715 -0.1657
 5796TIP3    H141583   0.575   1.299   6.975  1.0034  1.2361  0.6777
 5796TIP3    H241584   0.716   1.262   6.935  0.3703  0.4811 -0.9367
 5797TIP3   OH241585   2.846   7.008   4.933  0.3964  0.2264 -0.1999
 5797TIP3    H141586   2.804   7.038   5.014 -1.0087 -0.1357 -0.7631
 5797TIP3    H241587   2.786   7.035   4.864  0.6447 -1.1299 -0.9734
 5798TIP3   OH241588   0.366   4.457   4.866 -0.0745 -0.2480  0.0794
 5798TIP3    H141589   0.320   4.397   4.807  1.6723 -1.3991 -0.1962
 5798TIP3    H241590   0.413   4.399   4.926  2.6838  0.7392 -0.9762
 5799TIP3   OH241591   5.804   6.137   5.875  0.2115  0.1090 -0.3702
 5799TIP3    H141592   5.735   6.101   5.820  1.8788  0.6526 -3.0042
 5799TIP3    H241593   5.759   6.195   5.936 -1.7349 -0.3638 -1.2935
 5800TIP3   OH241594   2.382   5.258   7.305  0.7654 -0.0013 -0.0616
 5800TIP3    H141595   2.372   5.293   7.393  2.6705  0.6798 -0.0848
 5800TIP3    H241596   2.469   5.285   7.277  1.3306 -2.5821 -1.0863
 5801TIP3   OH241597   6.174   3.177   6.658 -0.2945 -0.1229  0.6311
 5801TIP3    H141598   6.224   3.138   6.586 -0.1806  1.9572 -0.4650
 5801TIP3    H241599   6.214   3.139   6.737  0.6380 -1.2190 -0.3187
 5802TIP3   OH241600   6.918   5.610   5.453  0.1213 -0.8132 -0.5646
 5802TIP3    H141601   6.841   5.622   5.510 -0.2953  2.1139 -1.5911
 5802TIP3    H241602   6.886   5.632   5.365  1.8954 -0.5915 -1.1805
 5803TIP3   OH241603   3.372   0.372   6.456  0.5945  0.1895  0.1734
 5803TIP3    H141604   3.438   0.358   6.523  0.3313 -2.2905 -0.0061
 5803TIP3    H241605   3.417   0.354   6.373  0.1080  0.0278 -0.0639
 5804TIP3   OH241606   5.091   1.854   5.770 -0.0457 -0.1620  0.4274
 5804TIP3    H141607   5.086   1.782   5.832 -1.4875 -1.2580 -0.8800
 5804TIP3    H241608   5.006   1.856   5.727  0.5136  1.2598 -0.7439
 5805TIP3   OH241609   1.634   4.833   6.618 -0.1013 -0.4141  0.5831
 5805TIP3    H141610   1.649   4.739   6.613  2.0282 -0.1190  0.6528
 5805TIP3    H241611   1.714   4.872   6.582 -1.9305  1.3719 -1.9301
 5806TIP3   OH241612   0.655   0.470   6.955 -0.2933  0.0115  0.0157
 5806TIP3    H141613   0.617   0.401   7.010  0.0130 -0.2401 -0.0910
 5806TIP3    H241614   0.732   0.430   6.915 -0.9098 -0.0432 -1.1687
 5807TIP3   OH241615   4.474   1.282   5.401 -0.2761  0.2441 -0.7851
 5807TIP3    H141616   4.492   1.190   5.421  0.5296  0.4628 -0.4722
 5807TIP3    H241617   4.452   1.282   5.308 -0.8828 -0.3426 -0.6542
 5808TIP3   OH241618   5.568   5.364   6.860 -0.4111  0.0635  0.0393
 5808TIP3    H141619   5.541   5.284   6.815 -1.9649  0.4937  0.1531
 5808TIP3    H241620   5.562   5.343   6.953 -1.2757  0.4401  0.0758
 5809TIP3   OH241621   5.708   0.245   7.822 -0.5988 -0.0335 -0.3493
 5809TIP3    H141622   5.699   0.247   7.726 -0.9705  1.6309 -0.3018
 5809TIP3    H241623   5.649   0.314   7.853  1.7697  1.5361  0.8850
 5810TIP3   OH241624   0.867   2.276   5.963 -0.2620  0.5742  0.2310
 5810TIP3    H141625   0.820   2.360   5.965 -2.7565 -0.6822 -0.5309
 5810TIP3    H241626   0.838   2.235   5.882 -0.1251 -1.5463  1.1937
 5811TIP3   OH241627   1.947   0.710   5.213 -0.8914 -0.0735  0.4994
 5811TIP3    H141628   2.022   0.750   5.170 -0.6779 -0.2663  0.6944
 5811TIP3    H241629   1.886   0.783   5.225  0.2122  0.6011  2.4315
 5812TIP3   OH241630   0.169   7.300   7.387  0.0306 -0.5514  0.4560
 5812TIP3    H141631   0.151   7.222   7.335 -2.6906 -0.7965  1.5721
 5812TIP3    H241632   0.122   7.371   7.342  0.5653 -0.0447  0.6833
 5813TIP3   OH241633   3.246   0.420   7.461  0.0132  0.0506  0.2485
 5813TIP3    H141634   3.221   0.478   7.533  1.9064 -0.8837  1.7462
 5813TIP3    H241635   3.284   0.478   7.395 -0.0815  0.7275  0.7823
 5814TIP3   OH241636   7.433   7.502   6.485  0.3316  0.0761 -0.4638
 5814TIP3    H141637   7.401   7.539   6.567  2.0353 -0.2352  0.4032
 5814TIP3    H241638   7.367   7.437   6.460 -0.4480  0.5190  0.4067
 5815TIP3   OH241639   2.274   3.985   4.820  0.0239  0.0170  0.2438
 5815TIP3    H141640   2.214   4.051   4.856  1.4853  0.6341  1.6605
 5815TIP3    H241641   2.312   3.943   4.897  0.2193 -1.4988 -0.6408
 5816TIP3   OH241642   1.423   7.671   7.890 -0.4054  0.1108  0.5519
 5816TIP3    H141643   1.346   7.667   7.948 -1.0136 -0.8229 -0.2855
 5816TIP3    H241644   1.426   7.762   7.860  0.6162  0.9390  2.9270
 5817TIP3   OH241645   1.816   2.139   4.791  0.1752 -0.2556 -0.0106
 5817TIP3    H141646   1.888   2.179   4.841 -0.1199  0.4006 -0.0986
 5817TIP3    H241647   1.796   2.204   4.723 -1.5823  0.3194  0.9837
 5818TIP3   OH241648   6.479   0.592   7.311 -0.6538  0.4528 -0.3458
 5818TIP3    H141649   6.428   0.530   7.259  0.6880  1.0000 -2.4021
 5818TIP3    H241650   6.481   0.552   7.399 -0.5241 -2.0168 -1.3813
 5819TIP3   OH241651   6.576   7.300   4.976  0.0675  0.0983  0.1094
 5819TIP3    H141652   6.606   7.295   5.067  1.0666 -1.4054 -0.2678
 5819TIP3    H241653   6.582   7.210   4.944 -4.1929 -0.2498 -0.2499
 5820TIP3   OH241654   0.336   5.912   4.891 -0.0793 -0.3588 -0.3196
 5820TIP3    H141655   0.396   5.922   4.965 -1.7836  1.5491  0.9243
 5820TIP3    H241656   0.323   5.818   4.882  1.4904 -0.7002  0.6702
 5821TIP3   OH241657   2.394   1.032   5.816 -0.0353  0.1639  0.2011
 5821TIP3    H141658   2.369   1.002   5.903  1.5791  0.3987  0.7853
 5821TIP3    H241659   2.490   1.033   5.818  0.0193  0.8582 -1.3489
 5822TIP3   OH241660   0.805   7.110   4.699 -0.2313 -0.0032 -0.0693
 5822TIP3    H141661   0.734   7.124   4.636  0.7756 -0.4368 -1.3249
 5822TIP3    H241662   0.760   7.080   4.779 -1.6327  1.6629 -0.1697
 5823TIP3   OH241663   7.259   6.978   6.875  0.0975 -0.2821  0.1976
 5823TIP3    H141664   7.196   6.923   6.921 -1.5783  0.8583 -0.6095
 5823TIP3    H241665   7.267   7.057   6.930 -0.2178  0.1468 -0.3621
 5824TIP3   OH241666   4.122   0.590   5.325 -0.0154 -0.0285 -0.3126
 5824TIP3    H141667   4.057   0.529   5.290 -0.7261  1.1140 -1.0410
 5824TIP3    H241668   4.204   0.540   5.326 -0.3520 -0.6615 -1.9536
 5825TIP3   OH241669   1.349   0.235   7.060  0.0106  0.6812  0.2408
 5825TIP3    H141670   1.331   0.278   6.977 -0.0647  2.1613  0.9887
 5825TIP3    H241671   1.263   0.226   7.101  0.0400 -0.0947  0.1440
 5826TIP3   OH241672   7.120   7.650   7.335 -0.0801  0.4646  0.5054
 5826TIP3    H141673   7.192   7.686   7.386  0.0878  0.2074  0.4550
 5826TIP3    H241674   7.064   7.724   7.316 -0.2072  0.5437  1.1634
 5827TIP3   OH241675   2.079   2.108   5.128  0.1090  0.1867  0.0831
 5827TIP3    H141676   2.031   2.185   5.159 -1.5209  0.6955 -3.2655
 5827TIP3    H241677   2.118   2.071   5.207 -1.0739  3.0322  2.1807
 5828TIP3   OH241678   2.957   6.848   5.819  0.4268 -0.1674 -0.1902
 5828TIP3    H141679   2.874   6.835   5.866  1.1559 -2.8066  0.5387
 5828TIP3    H241680   3.007   6.769   5.837  2.0076  0.0866 -2.9167
 5829TIP3   OH241681   0.161   1.183   5.427  0.0682  0.2165 -0.1099
 5829TIP3    H141682   0.082   1.236   5.412  0.4841  0.1709 -3.2093
 5829TIP3    H241683   0.157   1.115   5.359  0.6840 -2.4485  2.3281
 5830TIP3   OH241684   4.404   3.783   4.813 -0.4958 -0.4011 -0.2691
 5830TIP3    H141685   4.386   3.870   4.777  1.3075 -0.1211 -0.5851
 5830TIP3    H241686   4.454   3.799   4.893 -2.5919 -1.0973  1.2788
 5831TIP3   OH241687   2.070   3.082   5.117 -0.4188 -0.2280 -0.1415
 5831TIP3    H141688   1.983   3.056   5.147 -0.6286  1.3376  0.7222
 5831TIP3    H241689   2.124   3.078   5.196  0.4940 -1.7805 -0.7810
 5832TIP3   OH241690   6.854   1.120   7.205  0.3576  0.2677 -0.3217
 5832TIP3    H141691   6.845   1.064   7.282 -0.0268 -0.3689 -0.8269
 5832TIP3    H241692   6.904   1.195   7.237 -0.5200  0.4270  0.7611
 5833TIP3   OH241693   0.347   0.930   6.752 -0.2122  0.2015  0.1427
 5833TIP3    H141694   0.414   0.994   6.774  0.0925 -0.5567  1.5493
 5833TIP3    H241695   0.394   0.859   6.709 -0.4006  0.4626 -0.5093
 5834TIP3   OH241696   2.807   5.222   5.278 -0.6893  0.3827  0.0528
 5834TIP3    H141697   2.779   5.166   5.351  0.6302 -3.1745 -1.8732
 5834TIP3    H241698   2.728   5.233   5.225 -1.0102  0.4562  0.5382
 5835TIP3   OH241699   3.114   2.489   6.982  0.4985 -0.0756  0.5847
 5835TIP3    H141700   3.107   2.395   6.965  1.3375  0.0419 -0.5636
 5835TIP3    H241701   3.065   2.502   7.063  1.3152 -1.6927  1.4019
 5836TIP3   OH241702   4.249   1.596   5.216 -1.1079 -0.4124 -0.0788
 5836TIP3    H141703   4.195   1.594   5.295 -0.0984 -0.3303  0.6374
 5836TIP3    H241704   4.242   1.686   5.185  0.5268  0.3086  1.4210
 5837TIP3   OH241705   1.694   0.602   7.012  0.1062  0.0318  0.6577
 5837TIP3    H141706   1.789   0.588   7.018  0.0810 -0.4286  0.0695
 5837TIP3    H241707   1.660   0.567   7.094  0.2301 -1.8506 -0.0266
 5838TIP3   OH241708   1.166   2.770   5.125  0.1576 -0.0325  0.0770
 5838TIP3    H141709   1.095   2.722   5.082  1.0860 -0.1386 -1.4010
 5838TIP3    H241710   1.241   2.711   5.121  0.1066 -0.4081  2.6953
 5839TIP3   OH241711   5.436   5.595   5.396 -0.0900 -0.0588 -0.1254
 5839TIP3    H141712   5.418   5.676   5.348  2.1644  0.6705  0.1583
 5839TIP3    H241713   5.391   5.606   5.480 -0.0430  0.7866 -0.2073
 5840TIP3   OH241714   1.923   4.577   6.819  0.1479 -0.0682  0.6360
 5840TIP3    H141715   1.841   4.540   6.853 -0.1864  1.3287  1.4679
 5840TIP3    H241716   1.971   4.604   6.897  0.4743  0.9961  0.0849
 5841TIP3   OH241717   0.622   1.671   5.622  0.5470  0.0118 -0.0171
 5841TIP3    H141718   0.615   1.712   5.536  1.1449 -0.4927 -0.3165
 5841TIP3    H241719   0.663   1.587   5.605  0.2522 -0.2850  0.7141
 5842TIP3   OH241720   5.553   4.505   7.538 -0.3856 -0.4464 -0.5477
 5842TIP3    H141721   5.643   4.506   7.570  0.2017 -2.4165 -1.9203
 5842TIP3    H241722   5.557   4.548   7.453 -1.0123  0.5169 -0.1127
 5843TIP3   OH241723   5.341   3.856   7.248  0.6591 -0.5447 -0.3490
 5843TIP3    H141724   5.280   3.827   7.315  0.1413 -0.5068 -0.7978
 5843TIP3    H241725   5.330   3.951   7.244 -0.2804 -0.6813 -1.4038
 5844TIP3   OH241726   1.572   2.592   6.032  0.1311  0.4232  0.0202
 5844TIP3    H141727   1.616   2.531   6.091 -1.0763  1.3836  1.9863
 5844TIP3    H241728   1.574   2.676   6.077 -1.8085  0.9513 -0.7778
 5845TIP3   OH241729   6.083   0.393   5.980  0.3628 -0.1741  0.8383
 5845TIP3    H141730   6.046   0.447   5.911  1.3426  0.4497  0.7859
 5845TIP3    H241731   6.127   0.322   5.934 -0.2483 -0.5995  0.8856
 5846TIP3   OH241732   5.288   6.199   5.651  0.0903  0.0930  0.2471
 5846TIP3    H141733   5.256   6.202   5.561 -0.2645  0.4941  0.3805
 5846TIP3    H241734   5.361   6.261   5.653 -1.6565  2.2257  0.8867
 5847TIP3   OH241735   2.613   6.006   6.377  0.3931 -0.5883 -0.4528
 5847TIP3    H141736   2.650   5.959   6.302  1.1393 -1.9721  0.7382
 5847TIP3    H241737   2.689   6.049   6.417  0.2572 -1.1128  0.3814
 5848TIP3   OH241738   5.227   4.650   5.003 -0.1487 -0.0796  0.3465
 5848TIP3    H141739   5.299   4.668   4.942  1.0615  0.3865  1.8450
 5848TIP3    H241740   5.266   4.663   5.090 -1.8266 -0.6874  1.2221
 5849TIP3   OH241741   5.361   7.459   7.595 -0.5774  0.7008  0.1897
 5849TIP3    H141742   5.442   7.447   7.644 -1.1442 -0.1916  0.9303
 5849TIP3    H241743   5.309   7.519   7.649 -0.7660  0.5889  0.1325
 5850TIP3   OH241744   5.827   3.969   6.328 -0.2564  0.0932  0.0918
 5850TIP3    H141745   5.871   3.948   6.246 -0.8266 -2.5445  0.3723
 5850TIP3    H241746   5.734   3.975   6.305 -0.4715 -1.1076  0.5775
 5851TIP3   OH241747   1.841   4.166   5.663  0.2117  0.1903 -0.7046
 5851TIP3    H141748   1.895   4.150   5.741  1.5882  0.9104 -1.4975
 5851TIP3    H241749   1.772   4.225   5.694 -0.0740 -0.6213  0.2791
 5852TIP3   OH241750   2.679   4.667   6.507  0.5733 -0.2144  0.0441
 5852TIP3    H141751   2.738   4.599   6.542 -0.0409 -0.4154  0.7033
 5852TIP3    H241752   2.695   4.743   6.563  0.2748 -0.2391  0.1625
 5853TIP3   OH241753   6.029   5.264   4.643 -0.0062  0.5773 -0.2372
 5853TIP3    H141754   6.072   5.324   4.704  0.4376 -0.9260  0.9753
 5853TIP3    H241755   6.097   5.245   4.577  0.5137 -0.1097  0.4787
 5854TIP3   OH241756   5.402   3.186   6.291 -0.3195 -1.1349 -0.0525
 5854TIP3    H141757   5.383   3.199   6.384 -1.0092 -1.0187 -0.2104
 5854TIP3    H241758   5.317   3.178   6.249 -0.0869  0.3417 -0.8989
 5855TIP3   OH241759   5.555   5.447   5.721 -0.4543  0.3425 -0.1667
 5855TIP3    H141760   5.486   5.460   5.786  1.7443 -1.0074  2.6101
 5855TIP3    H241761   5.604   5.530   5.722 -0.1236  0.1445  0.2981
 5856TIP3   OH241762   2.805   0.447   5.550  0.1763  0.4894  0.3384
 5856TIP3    H141763   2.709   0.449   5.546  0.1915  0.2085 -0.2568
 5856TIP3    H241764   2.832   0.452   5.458  0.7306  0.5125  0.5045
 5857TIP3   OH241765   5.505   4.095   5.320  0.1032 -0.6103 -0.6605
 5857TIP3    H141766   5.517   4.186   5.292 -0.5470  0.2690  1.6748
 5857TIP3    H241767   5.424   4.067   5.278 -1.2514  0.9070  0.8244
 5858TIP3   OH241768   2.639   4.286   5.599  0.2272 -0.2717  0.0578
 5858TIP3    H141769   2.655   4.268   5.692  0.6082  0.5610  0.1723
 5858TIP3    H241770   2.696   4.225   5.553  0.4092 -0.3578  0.3887
 5859TIP3   OH241771   2.372   3.163   7.210  0.2224 -0.1136 -0.3579
 5859TIP3    H141772   2.278   3.151   7.198  0.1621  0.0769 -0.0859
 5859TIP3    H241773   2.386   3.258   7.208  0.3776 -0.1307 -0.1753
 5860TIP3   OH241774   5.321   2.543   5.557 -0.2425 -0.0667  0.1775
 5860TIP3    H141775   5.412   2.560   5.535  0.1125 -0.2170  1.4713
 5860TIP3    H241776   5.309   2.450   5.537  0.3214 -0.4158  1.3797
 5861TIP3   OH241777   4.317   4.052   5.795 -0.7348 -0.1629 -0.0170
 5861TIP3    H141778   4.334   4.046   5.889  0.1690 -0.2866 -0.1863
 5861TIP3    H241779   4.264   4.132   5.786 -1.4942 -0.5697  0.6752
 5862TIP3   OH241780   4.515   0.110   5.733  0.2950 -0.3013 -0.1578
 5862TIP3    H141781   4.558   0.132   5.650 -1.0395  1.9765 -0.3387
 5862TIP3    H241782   4.584   0.113   5.798  0.9086  0.4646 -0.8282
 5863TIP3   OH241783   7.553   0.592   6.429  0.2258  0.2706  0.3657
 5863TIP3    H141784   7.466   0.624   6.406  1.4005  3.5179 -0.1179
 5863TIP3    H241785   7.585   0.551   6.348 -0.5043 -0.1385  0.2725
 5864TIP3   OH241786   7.240   0.416   5.376 -0.2717 -1.0166  0.1599
 5864TIP3    H141787   7.181   0.344   5.353 -3.4193  1.9428 -1.9034
 5864TIP3    H241788   7.250   0.466   5.295 -0.5242  2.3419  2.0103
 5865TIP3   OH241789   3.225   3.582   4.811  0.7792 -0.8642  0.2792
 5865TIP3    H141790   3.131   3.598   4.801  0.8673 -1.1412 -1.3165
 5865TIP3    H241791   3.256   3.654   4.865 -0.0226  0.4027 -0.8855
 5866TIP3   OH241792   5.428   1.318   6.383 -0.1510 -0.2735  0.2560
 5866TIP3    H141793   5.465   1.406   6.394 -1.0219  0.2032 -0.4869
 5866TIP3    H241794   5.394   1.317   6.293 -3.0872 -0.2137  1.2409
 5867TIP3   OH241795   0.405   5.492   4.243 -0.0029  0.4220  0.4795
 5867TIP3    H141796   0.362   5.577   4.246 -0.1241  0.3441  3.4068
 5867TIP3    H241797   0.348   5.435   4.295  0.6061 -1.2288 -0.5717
 5868TIP3   OH241798   3.953   5.709   5.563 -0.1074  0.2662 -0.0052
 5868TIP3    H141799   4.007   5.657   5.622  2.0458  2.2008 -0.1444
 5868TIP3    H241800   3.962   5.667   5.478 -0.1262 -0.3306  0.2806
 5869TIP3   OH241801   6.883   5.565   4.470  0.2987  0.4105  0.0091
 5869TIP3    H141802   6.910   5.583   4.380  1.4110  1.8411  0.6034
 5869TIP3    H241803   6.964   5.548   4.517 -0.2145  0.3734  0.9028
 5870TIP3   OH241804   2.443   5.325   5.805  0.2775 -0.3798 -0.3959
 5870TIP3    H141805   2.405   5.346   5.891 -0.4114  0.1729 -0.8281
 5870TIP3    H241806   2.478   5.236   5.816  0.0523 -0.3761  0.4136
 5871TIP3   OH241807   3.729   2.551   4.920  0.0837 -0.0328  0.4608
 5871TIP3    H141808   3.673   2.544   4.843  2.0866  2.1842 -1.3508
 5871TIP3    H241809   3.710   2.639   4.954  3.0556  1.2397 -0.8532
 5872TIP3   OH241810   3.799   5.433   5.669  0.3350 -0.1770 -0.1172
 5872TIP3    H141811   3.780   5.383   5.590  3.1500 -0.6008 -0.6263
 5872TIP3    H241812   3.810   5.523   5.639  2.5247 -0.5128 -0.4878
 5873TIP3   OH241813   0.847   6.631   5.573 -0.2825  0.5353 -0.0125
 5873TIP3    H141814   0.864   6.686   5.649  1.8397  1.4723 -1.0810
 5873TIP3    H241815   0.926   6.579   5.562  0.5487  2.1642 -2.9174
 5874TIP3   OH241816   3.918   3.558   5.367 -0.2010  0.5013  0.3369
 5874TIP3    H141817   3.879   3.518   5.445  0.9727 -0.5777  0.4071
 5874TIP3    H241818   3.886   3.505   5.295  1.1584 -0.4449  0.4040
 5875TIP3   OH241819   3.742   1.669   5.244  0.4044  0.3131 -0.0528
 5875TIP3    H141820   3.777   1.582   5.223  1.6520  0.7874  0.0011
 5875TIP3    H241821   3.771   1.686   5.334  2.2170  1.7456 -0.8471
 5876TIP3   OH241822   5.242   7.041   6.835 -0.6259  0.0909 -0.7073
 5876TIP3    H141823   5.228   7.042   6.930  1.8515  0.6810 -0.2862
 5876TIP3    H241824   5.164   7.082   6.798 -1.3042  0.5236  1.1246
 5877TIP3   OH241825   4.146   0.276   6.283  0.1222 -0.1073  0.1381
 5877TIP3    H141826   4.105   0.294   6.198 -1.8035  1.0492  1.2282
 5877TIP3    H241827   4.088   0.319   6.346  0.7674 -2.0289  2.1468
 5878TIP3   OH241828   1.953   3.857   6.332  0.2666 -0.4057 -0.7526
 5878TIP3    H141829   1.868   3.900   6.324 -0.6056 -2.0625 -0.9524
 5878TIP3    H241830   1.993   3.868   6.246  1.1686  2.0928 -0.0876
 5879TIP3   OH241831   7.418   5.038   5.791 -0.0647 -0.3434 -0.2670
 5879TIP3    H141832   7.478   5.109   5.768 -0.2387  0.2598  1.0404
 5879TIP3    H241833   7.342   5.082   5.830 -0.4825 -1.2059 -0.0724
 5880TIP3   OH241834   6.548   7.152   5.441 -0.1869  0.2666 -0.2700
 5880TIP3    H141835   6.520   7.063   5.464 -0.3245  0.3861  0.0254
 5880TIP3    H241836   6.489   7.209   5.490  0.0395  0.5213 -0.2942
 5881TIP3   OH241837   4.422   6.226   5.282  0.0387  0.0357  0.2612
 5881TIP3    H141838   4.464   6.155   5.235  0.9355  0.6250  0.1380
 5881TIP3    H241839   4.355   6.184   5.336 -0.2661 -0.7558 -0.7182
 5882TIP3   OH241840   5.764   1.686   6.078  0.4013  0.1872  0.0894
 5882TIP3    H141841   5.797   1.749   6.142 -0.3600  1.6726 -0.9140
 5882TIP3    H241842   5.841   1.663   6.026  0.5730  0.7411  0.0963
 5883TIP3   OH241843   3.659   5.545   6.795 -0.5333 -0.3259 -0.2712
 5883TIP3    H141844   3.661   5.462   6.842  0.5541 -0.2601 -0.1812
 5883TIP3    H241845   3.734   5.594   6.828  0.6480 -0.5076 -2.4494
 5884TIP3   OH241846   3.591   5.044   4.706  0.0788 -0.2233  0.4024
 5884TIP3    H141847   3.581   4.960   4.751 -1.9738  0.3631  1.1551
 5884TIP3    H241848   3.597   5.108   4.777  1.1647  0.3301 -0.1633
 5885TIP3   OH241849   6.525   7.019   6.865 -0.2548 -0.0085  0.1533
 5885TIP3    H141850   6.489   6.963   6.797  0.3300 -2.1389  1.4934
 5885TIP3    H241851   6.450   7.043   6.920 -0.4917  0.4991 -0.3806
 5886TIP3   OH241852   1.939   0.889   5.654  0.1598 -0.6400  0.0875
 5886TIP3    H141853   1.986   0.964   5.619  0.3590 -1.1253 -0.7160
 5886TIP3    H241854   2.007   0.835   5.695 -0.3124  0.9833  3.3433
 5887TIP3   OH241855   6.202   4.186   5.010  0.0834 -0.5250 -0.4182
 5887TIP3    H141856   6.176   4.265   5.057 -1.9776 -0.5860 -1.3550
 5887TIP3    H241857   6.258   4.139   5.071  0.7736  1.3057  0.4268
 5888TIP3   OH241858   1.662   4.288   5.835  0.9508 -0.7327 -0.2030
 5888TIP3    H141859   1.671   4.205   5.883  2.5540 -0.0214  0.8510
 5888TIP3    H241860   1.583   4.329   5.872 -0.8919 -2.4894 -1.9704
 5889TIP3   OH241861   5.809   2.526   6.577  0.0585 -0.1046 -0.5123
 5889TIP3    H141862   5.843   2.594   6.636  2.2150 -0.0413 -1.7242
 5889TIP3    H241863   5.723   2.558   6.550  0.6140  1.6873 -0.2976
 5890TIP3   OH241864   3.050   0.002   7.314 -0.1740  0.0575  0.0735
 5890TIP3    H141865   3.115   0.072   7.313  0.5570 -0.6084 -1.1533
 5890TIP3    H241866   3.070  -0.048   7.393  1.1864 -0.4528 -0.5569
 5891TIP3   OH241867   0.484   1.162   7.601  0.0762  0.1654  0.4255
 5891TIP3    H141868   0.538   1.130   7.674 -0.6572  0.1567  0.9790
 5891TIP3    H241869   0.438   1.084   7.570  1.4240 -0.1163 -0.9854
 5892TIP3   OH241870   3.072   4.394   6.086  0.1975  0.0655  0.3327
 5892TIP3    H141871   3.145   4.370   6.029 -1.4378 -2.7997 -0.7966
 5892TIP3    H241872   3.051   4.484   6.062  2.5369  0.5538 -0.1362
 5893TIP3   OH241873   5.218   5.322   6.842  0.0966 -0.3143  0.4181
 5893TIP3    H141874   5.239   5.282   6.927 -0.1050  1.5577  1.4230
 5893TIP3    H241875   5.138   5.279   6.813  2.0674 -3.5965 -0.7064
 5894TIP3   OH241876   3.138   5.100   6.390 -0.6319  0.0387  0.4715
 5894TIP3    H141877   3.049   5.071   6.408 -0.4316  0.0524  1.5911
 5894TIP3    H241878   3.184   5.022   6.361  0.2015 -1.2241  4.5362
 5895TIP3   OH241879   1.833   5.168   5.687 -0.0841  0.1366 -0.1264
 5895TIP3    H141880   1.900   5.201   5.745  1.1632  1.6020 -2.2473
 5895TIP3    H241881   1.769   5.239   5.681  0.0980  0.2407 -0.9641
 5896TIP3   OH241882   7.080   0.999   4.931  0.4099 -0.0574 -0.8848
 5896TIP3    H141883   7.042   0.928   4.879  1.7164 -0.6197 -1.1138
 5896TIP3    H241884   7.010   1.027   4.989  0.1874 -2.3613  0.0785
 5897TIP3   OH241885   1.275   1.032   7.133  0.4129 -0.4744 -0.4111
 5897TIP3    H141886   1.369   1.044   7.145  0.2700  3.0033 -1.6300
 5897TIP3    H241887   1.235   1.100   7.187 -1.5083 -2.2480  0.5445
 5898TIP3   OH241888   5.313   6.385   6.128  0.4138 -0.4681  0.0643
 5898TIP3    H141889   5.321   6.309   6.071  0.3056 -0.8600  0.5639
 5898TIP3    H241890   5.367   6.363   6.204  0.6795  0.1112  0.0485
 5899TIP3   OH241891   5.110   6.185   5.142  0.2178 -0.1718 -0.2277
 5899TIP3    H141892   5.099   6.149   5.054 -0.1154 -0.3604 -0.1142
 5899TIP3    H241893   5.029   6.234   5.158  0.6293  0.5534 -0.3417
 5900TIP3   OH241894   6.978   4.056   6.526  0.1165 -0.1381 -0.4052
 5900TIP3    H141895   6.892   4.092   6.548 -0.3318 -1.9859  1.1427
 5900TIP3    H241896   7.015   4.029   6.610  1.0959 -1.7561 -1.3138
 5901TIP3   OH241897   4.863   5.986   7.253 -0.0085  0.3590 -0.0229
 5901TIP3    H141898   4.812   6.068   7.252  0.5058  0.6965 -1.7390
 5901TIP3    H241899   4.824   5.933   7.184 -0.2476 -0.8243  0.9888
 5902TIP3   OH241900   7.672   4.510   5.544 -0.3003  0.0331 -0.0381
 5902TIP3    H141901   7.658   4.603   5.531 -1.1586 -0.1531 -0.5323
 5902TIP3    H241902   7.767   4.500   5.551 -0.1833  0.8898 -0.3615
 5903TIP3   OH241903   0.377   7.655   6.141 -0.0891  0.5544  0.4858
 5903TIP3    H141904   0.288   7.623   6.157  0.3915 -0.0890  2.0038
 5903TIP3    H241905   0.433   7.582   6.164  0.8310  0.2004 -2.4224
 5904TIP3   OH241906   5.147   0.559   6.057 -0.1298 -0.1729  0.0408
 5904TIP3    H141907   5.122   0.598   5.973  1.3986  1.4568  0.2752
 5904TIP3    H241908   5.210   0.490   6.034 -0.0801 -0.0544 -0.1844
 5905TIP3   OH241909   0.739   4.033   4.808 -0.3630  0.0860 -0.1012
 5905TIP3    H141910   0.804   3.991   4.864 -0.1012  0.5109 -0.0800
 5905TIP3    H241911   0.772   4.122   4.796 -0.1806 -0.1115 -1.2720
 5906TIP3   OH241912   6.558   5.272   7.222 -0.2308  0.0420 -0.4065
 5906TIP3    H141913   6.466   5.296   7.235 -0.4115  0.2124 -1.8986
 5906TIP3    H241914   6.567   5.189   7.269 -1.2026 -0.0912 -0.4283
 5907TIP3   OH241915   6.609   3.425   5.173 -0.0404  0.1189 -0.7893
 5907TIP3    H141916   6.582   3.346   5.221  0.6912 -0.1358 -0.7908
 5907TIP3    H241917   6.681   3.395   5.117  1.4585  1.1572  0.4965
 5908TIP3   OH241918   4.729   0.502   4.907 -0.7278 -0.3042 -0.0613
 5908TIP3    H141919   4.663   0.433   4.912 -0.4836 -0.6093 -0.8598
 5908TIP3    H241920   4.702   0.556   4.833  0.4986 -1.0761 -1.1134
 5909TIP3   OH241921   1.374   2.664   6.765  0.3021  0.0171 -0.3872
 5909TIP3    H141922   1.358   2.735   6.702  0.1957  0.4217  0.0877
 5909TIP3    H241923   1.286   2.640   6.796  0.4149  0.5787  0.4183
 5910TIP3   OH241924   5.589   5.606   4.912  0.3205 -0.3208  0.2487
 5910TIP3    H141925   5.579   5.681   4.852  0.7788  0.3028  0.9358
 5910TIP3    H241926   5.500   5.572   4.922  0.1440 -0.0395 -0.2882
 5911TIP3   OH241927   2.468   5.698   6.457  0.8058 -0.0179 -0.2212
 5911TIP3    H141928   2.493   5.788   6.435  1.0081 -0.4267 -1.7841
 5911TIP3    H241929   2.438   5.661   6.374 -2.8726 -0.2929  1.0196
 5912TIP3   OH241930   4.466   4.892   6.836  0.1084  0.0238 -0.5380
 5912TIP3    H141931   4.432   4.876   6.924 -1.9310 -0.2370 -1.2956
 5912TIP3    H241932   4.424   4.825   6.782  0.4161  0.8774 -1.8884
 5913TIP3   OH241933   2.407   2.685   5.203  0.3693 -0.9255 -0.2918
 5913TIP3    H141934   2.420   2.763   5.149 -0.3987 -0.5133  0.0992
 5913TIP3    H241935   2.375   2.619   5.141 -3.0363  0.2703 -0.0206
 5914TIP3   OH241936   0.267   7.341   5.560 -0.3547 -0.2104 -0.3359
 5914TIP3    H141937   0.196   7.277   5.568 -0.2902 -0.3862 -1.1249
 5914TIP3    H241938   0.256   7.379   5.473  0.0939  0.2807 -0.1860
 5915TIP3   OH241939   4.781   1.791   5.632  0.1767  0.1690 -0.0902
 5915TIP3    H141940   4.752   1.844   5.706  0.3663  0.1328  0.0097
 5915TIP3    H241941   4.709   1.797   5.569  0.7178  1.5814 -0.6173
 5916TIP3   OH241942   3.019   2.524   5.550  0.0163  0.0184  0.3746
 5916TIP3    H141943   2.973   2.605   5.571 -0.6649 -0.8697  2.5370
 5916TIP3    H241944   3.108   2.553   5.527 -0.4473  1.4280  0.2616
 5917TIP3   OH241945   5.667   6.676   6.288 -0.3329 -0.1945 -0.1425
 5917TIP3    H141946   5.629   6.741   6.348  1.2456 -0.6391  1.3939
 5917TIP3    H241947   5.601   6.606   6.284 -0.0703 -0.6056  1.8702
 5918TIP3   OH241948   3.125   5.860   6.224  0.0171 -0.2931 -0.2195
 5918TIP3    H141949   3.130   5.791   6.290  1.3926 -0.9712 -0.9757
 5918TIP3    H241950   3.210   5.905   6.230  0.3517 -0.6331 -1.7598
 5919TIP3   OH241951   1.441   1.551   4.575 -0.0440  0.1511 -0.1054
 5919TIP3    H141952   1.460   1.594   4.492 -0.5615  0.3795 -0.1075
 5919TIP3    H241953   1.527   1.530   4.611  0.2193  1.2277 -0.0762
 5920TIP3   OH241954   2.883   7.592   7.121 -0.4598  0.7084 -0.4557
 5920TIP3    H141955   2.946   7.617   7.188  0.4541 -0.3483 -0.8911
 5920TIP3    H241956   2.860   7.501   7.143 -0.3747  0.4485 -1.3901
 5921TIP3   OH241957   3.823   3.746   6.225 -0.0338 -0.2608  0.0237
 5921TIP3    H141958   3.869   3.735   6.142 -0.8938  1.0471 -0.6686
 5921TIP3    H241959   3.876   3.699   6.289  1.3747 -0.1626 -1.0332
 5922TIP3   OH241960   0.845   0.644   8.112  0.2327 -0.0690 -0.1599
 5922TIP3    H141961   0.822   0.720   8.060 -1.8100  0.9108  1.9699
 5922TIP3    H241962   0.907   0.677   8.177  0.1933 -0.4576  0.0812
 5923TIP3   OH241963   4.654   2.895   5.113 -0.0244  0.1085  0.0884
 5923TIP3    H141964   4.566   2.891   5.075 -1.0482 -1.1293  2.3403
 5923TIP3    H241965   4.643   2.951   5.191  0.7280 -1.3998  1.3412
 5924TIP3   OH241966   3.680   3.832   6.483  0.7286 -0.6922 -0.7568
 5924TIP3    H141967   3.691   3.790   6.568  0.5758 -0.1870 -0.4857
 5924TIP3    H241968   3.754   3.801   6.431  1.6417  0.1321  0.0226
 5925TIP3   OH241969   5.508   4.472   6.139 -0.2535 -0.7501  0.7476
 5925TIP3    H141970   5.480   4.447   6.227  1.3344  1.9289  2.1326
 5925TIP3    H241971   5.429   4.506   6.098 -0.8021 -1.0240  1.5420
 5926TIP3   OH241972   7.003   1.429   6.862 -0.0027 -0.4201  0.3968
 5926TIP3    H141973   7.007   1.493   6.792  0.9680  0.3355  1.1174
 5926TIP3    H241974   6.932   1.459   6.919 -1.7036 -1.7557 -0.8907
 5927TIP3   OH241975   5.332   5.811   6.546 -0.0196 -0.0732  0.2900
 5927TIP3    H141976   5.331   5.789   6.453  0.6519  0.9294  0.0357
 5927TIP3    H241977   5.243   5.791   6.577 -0.1370 -0.7674 -0.4676
 5928TIP3   OH241978   3.029   7.028   6.285 -0.1078 -0.1434 -0.0825
 5928TIP3    H141979   2.968   6.969   6.240 -1.0890  1.8774 -1.5549
 5928TIP3    H241980   2.972   7.093   6.326  0.9886  1.2932 -0.7574
 5929TIP3   OH241981   5.406   0.007   7.126 -0.3356  0.1225  0.2818
 5929TIP3    H141982   5.359  -0.016   7.206  2.5578  0.2401  2.2001
 5929TIP3    H241983   5.487   0.047   7.157  1.5929 -1.1231 -2.6637
 5930TIP3   OH241984   4.393   0.674   5.556 -0.4187 -0.4973 -0.4084
 5930TIP3    H141985   4.303   0.645   5.565 -0.4475 -1.0729 -2.0858
 5930TIP3    H241986   4.434   0.607   5.501  1.3108 -0.7677  1.1052
 5931TIP3   OH241987   6.264   3.180   6.067  0.1539 -0.5492  0.1808
 5931TIP3    H141988   6.328   3.165   6.136 -0.6232 -1.5279  0.7137
 5931TIP3    H241989   6.310   3.236   6.003  2.0261 -2.3659 -0.1649
 5932TIP3   OH241990   2.508   5.021   5.476 -0.4080  0.2308 -0.4014
 5932TIP3    H141991   2.450   4.956   5.436 -0.7221  0.0545  0.3123
 5932TIP3    H241992   2.489   5.102   5.430  1.3855 -0.5513 -2.6532
 5933TIP3   OH241993   3.013   1.173   5.004 -0.7553  0.0961  0.4994
 5933TIP3    H141994   2.961   1.093   5.014 -0.6423  0.2587  2.9908
 5933TIP3    H241995   3.035   1.199   5.093  0.1746  2.3048 -0.2949
 5934TIP3   OH241996   5.904   7.148   5.706 -0.3131 -0.2553 -0.5683
 5934TIP3    H141997   5.981   7.159   5.761  0.6831 -3.4872 -1.1147
 5934TIP3    H241998   5.867   7.236   5.698  1.3116  0.8464  2.5519
 5935TIP3   OH241999   4.724   4.233   6.154 -0.2951 -0.2770 -0.0632
 5935TIP3    H142000   4.707   4.229   6.060 -0.5899  3.0764 -0.2398
 5935TIP3    H242001   4.638   4.237   6.195 -0.1494 -0.8577  0.3205
 5936TIP3   OH242002   2.984   6.790   6.987  0.0786 -0.4548  0.4769
 5936TIP3    H142003   2.942   6.819   7.068  0.8359  0.5288  0.5390
 5936TIP3    H242004   3.010   6.700   7.004 -0.9260 -0.6800  0.8599
 5937TIP3   OH242005   1.175   4.005   7.178  0.3792 -0.1045  0.1398
 5937TIP3    H142006   1.147   4.074   7.238  1.4989 -0.3977  1.0239
 5937TIP3    H242007   1.245   4.044   7.127 -0.1936 -0.0379 -0.6184
 5938TIP3   OH242008   6.544   6.829   4.997  0.8052 -0.3612  0.1396
 5938TIP3    H142009   6.464   6.851   4.949  0.7037 -0.0711  0.4388
 5938TIP3    H242010   6.517   6.827   5.089  1.2586  0.2821  0.2952
 5939TIP3   OH242011   5.467   3.797   5.971 -0.0478  0.0879 -0.5013
 5939TIP3    H142012   5.535   3.736   5.998  0.3059  0.9806  0.7011
 5939TIP3    H242013   5.409   3.804   6.047 -0.6278  0.5062 -0.9721
 5940TIP3   OH242014   4.750   0.132   5.595 -0.5299 -0.9763 -0.1981
 5940TIP3    H142015   4.791   0.126   5.682  0.2705  0.6794 -0.4249
 5940TIP3    H242016   4.824   0.133   5.534 -0.9395  0.6154 -0.7129
 5941TIP3   OH242017   5.415   7.393   7.335  0.1869  0.1542  0.4001
 5941TIP3    H142018   5.404   7.408   7.429  1.2900  0.9366  0.4278
 5941TIP3    H242019   5.510   7.383   7.323  0.1222  0.6518 -0.7077
 5942TIP3   OH242020   3.286   3.993   7.217 -0.3007 -0.2750 -0.2503
 5942TIP3    H142021   3.206   3.992   7.163  0.0273 -0.1650 -0.7465
 5942TIP3    H242022   3.357   3.988   7.153  0.0703 -1.6726  0.2427
 5943TIP3   OH242023   2.590   5.099   5.855 -0.0852 -0.2720 -0.3144
 5943TIP3    H142024   2.674   5.103   5.901  0.4889 -2.0461 -1.1128
 5943TIP3    H242025   2.548   5.020   5.888 -1.6836  0.8116  0.3803
 5944TIP3   OH242026   2.123   2.087   5.410 -0.7836  0.2629 -0.0192
 5944TIP3    H142027   2.175   2.156   5.369 -1.1139  1.0584  0.8719
 5944TIP3    H242028   2.186   2.037   5.461 -0.4608 -0.4107 -1.0434
 5945TIP3   OH242029   2.317   7.507   6.961 -0.0890  0.2673 -0.5034
 5945TIP3    H142030   2.285   7.585   7.006 -0.0448 -1.1038  2.0815
 5945TIP3    H242031   2.243   7.446   6.962  0.3935 -0.3520 -0.9459
 5946TIP3   OH242032   6.693   3.106   6.362 -0.0039 -0.9210 -0.5122
 5946TIP3    H142033   6.703   3.046   6.435 -0.7075 -1.4598 -0.8530
 5946TIP3    H242034   6.713   3.192   6.399  1.0996 -1.3639 -0.0490
 5947TIP3   OH242035   1.418   0.714   6.990  0.1676 -0.2703 -0.1540
 5947TIP3    H142036   1.423   0.779   6.920  0.0618 -0.6471 -0.5244
 5947TIP3    H242037   1.493   0.656   6.974  0.8876  0.3732  0.8144
 5948TIP3   OH242038   4.094   6.864   5.763 -0.4586  0.5372 -0.1288
 5948TIP3    H142039   4.030   6.810   5.810  0.4888 -0.5951 -0.1053
 5948TIP3    H242040   4.047   6.946   5.746 -1.7056 -0.0240  0.4345
 5949TIP3   OH242041   0.672   3.160   5.349 -0.0286  0.5467  0.8036
 5949TIP3    H142042   0.711   3.225   5.291 -0.6898  0.2564  0.0024
 5949TIP3    H242043   0.601   3.206   5.394  0.6621  0.8446  1.5997
 5950TIP3   OH242044   7.595   0.784   6.918  0.5264  0.8920 -0.5555
 5950TIP3    H142045   7.683   0.820   6.932 -0.2652  2.1903  1.5434
 5950TIP3    H242046   7.559   0.774   7.006 -1.7422  1.2250 -1.3946
 5951TIP3   OH242047   5.658   2.662   5.983 -0.0070 -0.7651 -0.2705
 5951TIP3    H142048   5.689   2.578   6.018  1.8808  0.6076  1.6054
 5951TIP3    H242049   5.737   2.715   5.974 -1.2800  1.2514 -0.1736
 5952TIP3   OH242050   0.996   4.178   4.889 -0.1013  0.9973 -0.1193
 5952TIP3    H142051   1.089   4.191   4.871  0.0627 -1.1282 -1.0220
 5952TIP3    H242052   0.990   4.088   4.921 -1.7545  1.3757  0.7369
 5953TIP3   OH242053   2.978   3.516   5.362  0.3713 -0.0610  0.1569
 5953TIP3    H142054   2.941   3.603   5.375 -0.2426 -0.4488  1.1232
 5953TIP3    H242055   3.050   3.529   5.300  0.8813  1.2784  1.0040
 5954TIP3   OH242056   6.768   7.298   6.224  0.1762  0.3714 -0.0181
 5954TIP3    H142057   6.798   7.237   6.157  0.8968  0.2915  0.3660
 5954TIP3    H242058   6.779   7.384   6.185  1.0823  0.3538  0.1717
 5955TIP3   OH242059   7.414   0.189   5.442 -0.1370 -0.2283 -0.4455
 5955TIP3    H142060   7.337   0.193   5.385  1.6435 -0.8629 -3.0863
 5955TIP3    H242061   7.472   0.258   5.408 -0.1267  1.4202  2.5782
 5956TIP3   OH242062   2.731   4.880  11.753  0.6309 -0.1403 -0.8997
 5956TIP3    H142063   2.714   4.952  11.813 -0.5251 -0.3116 -0.9947
 5956TIP3    H242064   2.644   4.853  11.723  1.2126  0.9328 -3.8402
 5957TIP3   OH242065   1.617   5.920   5.412 -0.3138 -0.5662  0.3112
 5957TIP3    H142066   1.603   5.920   5.506  1.0210 -0.2807  0.5378
 5957TIP3    H242067   1.670   5.841   5.396 -0.4066 -0.5313 -0.1771
 5958TIP3   OH242068   2.161   3.378   5.534 -0.3091 -0.3598 -0.5629
 5958TIP3    H142069   2.164   3.342   5.445  1.4031 -0.3881 -0.5326
 5958TIP3    H242070   2.203   3.312   5.588 -1.1143 -0.2266  0.2409
 5959TIP3   OH242071   0.948   2.045   6.088 -0.3274 -1.0093 -0.4657
 5959TIP3    H142072   1.014   2.033   6.020 -0.4025 -0.6187 -0.6105
 5959TIP3    H242073   0.914   2.134   6.073 -0.1462 -0.8139  0.2512
 5960TIP3   OH242074   7.446   3.270   6.022  0.2917 -0.1897 -0.2813
 5960TIP3    H142075   7.454   3.267   6.118  0.1502  0.4434 -0.2444
 5960TIP3    H242076   7.448   3.179   5.995  0.1868 -0.3829  0.3447
 5961TIP3   OH242077   0.054   0.618   5.016 -0.0404  0.4537  0.5210
 5961TIP3    H142078   0.145   0.617   4.988 -0.1297  2.3453  0.0075
 5961TIP3    H242079   0.028   0.526   5.017  2.0335 -0.1715  1.2759
 5962TIP3   OH242080   0.302   0.182   5.953 -0.0143  0.2089  0.0681
 5962TIP3    H142081   0.338   0.121   6.017 -0.1159 -0.7504 -0.7680
 5962TIP3    H242082   0.213   0.151   5.936 -0.3378  1.0354  0.1866
 5963TIP3   OH242083   3.729   4.645   7.319  0.6468 -0.3565  0.4717
 5963TIP3    H142084   3.766   4.648   7.231  2.8281 -0.5528  1.3087
 5963TIP3    H242085   3.805   4.638   7.377 -0.7589 -1.7243  2.3016
 5964TIP3   OH242086   6.360   4.076   6.383  0.7245  0.3745 -0.3616
 5964TIP3    H142087   6.355   4.050   6.291 -2.3304  1.0426 -0.4795
 5964TIP3    H242088   6.368   4.171   6.381  1.0301  0.3604  0.0687
 5965TIP3   OH242089   4.980   4.798   5.800  0.1417 -0.4180 -0.3716
 5965TIP3    H142090   5.020   4.751   5.727 -0.3409 -0.6166 -0.5109
 5965TIP3    H242091   5.049   4.803   5.866  0.1571 -1.4413 -0.2958
 5966TIP3   OH242092   3.887   2.623   5.821 -0.1238  0.2259 -0.0414
 5966TIP3    H142093   3.847   2.598   5.738 -1.9010 -1.1232  1.1546
 5966TIP3    H242094   3.825   2.593   5.888  0.8457  2.0095  1.7612
 5967TIP3   OH242095   1.653   7.426   4.577 -0.0745 -0.1699 -0.3335
 5967TIP3    H142096   1.692   7.376   4.649 -0.3414 -1.9077 -1.3398
 5967TIP3    H242097   1.718   7.494   4.557  0.9930 -1.0356  0.1045
 5968TIP3   OH242098   6.903   4.419   4.649  0.1086  0.4545 -0.4206
 5968TIP3    H142099   6.996   4.396   4.659  0.4857  2.0073 -0.0556
 5968TIP3    H242100   6.863   4.340   4.613  1.6805 -0.0513 -1.1771
 5969TIP3   OH242101   4.968   1.334   6.483 -0.0176 -0.3738  0.1811
 5969TIP3    H142102   5.030   1.358   6.414 -1.1682 -0.1591 -0.7999
 5969TIP3    H242103   4.912   1.267   6.444 -0.8678 -0.0437  0.7959
 5970TIP3   OH242104   4.376   3.746   5.207 -0.3564  0.6226 -0.0874
 5970TIP3    H142105   4.307   3.714   5.149 -0.2987 -1.6159  0.9421
 5970TIP3    H242106   4.438   3.790   5.149  0.2050 -2.3623 -1.9895
 5971TIP3   OH242107   0.752   6.029   4.615 -0.4863 -0.3396 -0.2277
 5971TIP3    H142108   0.706   6.004   4.535 -0.5081 -0.3302 -0.2184
 5971TIP3    H242109   0.682   6.056   4.675 -0.5455 -1.1506  0.0872
 5972TIP3   OH242110   3.054   6.583   5.821  0.0159 -0.2934  0.0953
 5972TIP3    H142111   3.146   6.592   5.848  0.3058 -1.6423 -0.3419
 5972TIP3    H242112   3.017   6.520   5.883 -0.5388  0.0299  0.0950
 5973TIP3   OH242113   1.357   5.169   5.446 -0.6973  0.1910 -0.7751
 5973TIP3    H142114   1.358   5.241   5.508  0.9066  1.0488 -1.7326
 5973TIP3    H242115   1.303   5.200   5.373 -0.7190  0.0914 -0.8026
 5974TIP3   OH242116   2.521   1.469   7.104 -0.0718 -0.7646 -0.2986
 5974TIP3    H142117   2.459   1.429   7.166  0.7732 -0.5410  0.7181
 5974TIP3    H242118   2.538   1.556   7.141  0.6045 -0.7078 -0.7399
 5975TIP3   OH242119   6.866   5.067   6.861 -0.2584 -0.2152  0.3152
 5975TIP3    H142120   6.878   5.155   6.895  0.9160 -0.2574  0.0525
 5975TIP3    H242121   6.851   5.012   6.938 -2.0430  0.3462  0.4129
 5976TIP3   OH242122   1.169   1.283   4.581  0.1338 -0.3719 -0.0237
 5976TIP3    H142123   1.107   1.271   4.653  0.8787 -1.9426  0.4113
 5976TIP3    H242124   1.148   1.213   4.520 -1.8148  2.0923 -2.4439
 5977TIP3   OH242125   0.712   6.279   7.180 -0.2838 -0.2288 -0.8267
 5977TIP3    H142126   0.676   6.190   7.189  0.6066 -0.6575 -1.3290
 5977TIP3    H242127   0.800   6.272   7.217 -0.2943  0.5115 -0.6592
 5978TIP3   OH242128   1.332   5.462   5.082 -0.1329  0.6331  0.2429
 5978TIP3    H142129   1.417   5.497   5.108 -0.5373  0.9284  1.1832
 5978TIP3    H242130   1.269   5.503   5.141 -0.9580  0.5538 -0.5508
 5979TIP3   OH242131   1.497   7.650   6.651  0.2145 -0.5175 -0.6246
 5979TIP3    H142132   1.590   7.634   6.632  0.0998 -1.3350 -0.5015
 5979TIP3    H242133   1.491   7.745   6.658  1.2837 -0.5116  0.5956
 5980TIP3   OH242134   0.856   7.445   5.749 -0.1216  0.1189 -0.1599
 5980TIP3    H142135   0.786   7.507   5.769 -0.7483 -0.5724 -0.1511
 5980TIP3    H242136   0.935   7.499   5.742 -0.8705  1.1075 -1.5323
 5981TIP3   OH242137   7.094   1.653   6.656 -0.1558  0.3210 -0.1558
 5981TIP3    H142138   7.168   1.593   6.654 -0.7427 -0.4402  0.6167
 5981TIP3    H242139   7.019   1.602   6.625 -0.6404  0.6727  0.4049
 5982TIP3   OH242140   4.349   4.750   6.099  0.3124  1.2306  0.0717
 5982TIP3    H142141   4.435   4.785   6.124  0.1572  2.5217 -1.0876
 5982TIP3    H242142   4.305   4.823   6.055 -0.6166 -0.0063 -1.1467
 5983TIP3   OH242143   4.582   2.743   6.061  0.1248  0.0394  0.4920
 5983TIP3    H142144   4.654   2.696   6.019 -0.2715  1.2710 -1.6975
 5983TIP3    H242145   4.602   2.737   6.155  1.4003 -2.2706  0.1671
 5984TIP3   OH242146   1.589   5.704   6.436  0.3977 -0.6319  0.0410
 5984TIP3    H142147   1.632   5.711   6.522  1.7291  0.0933 -0.6440
 5984TIP3    H242148   1.636   5.767   6.381 -1.6663  0.2994 -0.7437
 5985TIP3   OH242149   7.370   6.415   5.115 -0.0783  0.4073 -0.9953
 5985TIP3    H142150   7.428   6.377   5.182  0.2052  0.5907 -1.1347
 5985TIP3    H242151   7.334   6.339   5.070 -0.6824  0.2631 -0.2972
 5986TIP3   OH242152   6.921   1.159   6.083  0.8341 -0.1023 -0.3571
 5986TIP3    H142153   6.986   1.191   6.020 -0.3278  0.3632 -1.3457
 5986TIP3    H242154   6.861   1.232   6.095  0.0374 -0.7873 -0.0679
 5987TIP3   OH242155   2.111   1.150   7.801 -0.3853 -0.1058 -0.7535
 5987TIP3    H142156   2.092   1.243   7.809 -1.5349 -0.3453 -0.5838
 5987TIP3    H242157   2.126   1.137   7.707 -0.1252  0.2558 -0.7666
 5988TIP3   OH242158   3.457   5.050   6.267  0.5148  0.5117  0.4619
 5988TIP3    H142159   3.384   5.002   6.227 -0.0405  0.6412  1.3139
 5988TIP3    H242160   3.423   5.082   6.350  1.0825  1.8347  0.2145
 5989TIP3   OH242161   2.136   3.601   5.376  0.1263  0.0260 -0.5323
 5989TIP3    H142162   2.126   3.524   5.433 -1.7870  0.0376 -0.7744
 5989TIP3    H242163   2.159   3.564   5.290  0.3800 -0.1864 -0.3735
 5990TIP3   OH242164   6.222   4.098   6.641  0.2835 -0.1988 -0.3095
 5990TIP3    H142165   6.133   4.063   6.646  0.4362 -0.7586 -1.2167
 5990TIP3    H242166   6.255   4.067   6.557  1.4550 -0.2745  0.1561
 5991TIP3   OH242167   0.210   4.526   6.662  0.1841  1.1900  0.2980
 5991TIP3    H142168   0.284   4.551   6.718 -0.4358  0.4567  1.4784
 5991TIP3    H242169   0.191   4.605   6.611  0.9675  1.7801  0.9003
 5992TIP3   OH242170   2.700   6.301   5.961  0.2631  0.0892 -0.6364
 5992TIP3    H142171   2.768   6.242   5.927  1.3421 -0.6230  2.4042
 5992TIP3    H242172   2.620   6.249   5.959  0.2350  0.1463 -2.1500
 5993TIP3   OH242173   6.545   5.332   6.142 -0.3188  0.2709  0.2449
 5993TIP3    H142174   6.483   5.290   6.083 -2.2018  0.9842  1.6440
 5993TIP3    H242175   6.543   5.278   6.221  0.3381  0.7066  0.5680
 5994TIP3   OH242176   0.871   2.317   6.949  1.0225  0.3077  0.3878
 5994TIP3    H142177   0.877   2.244   7.011 -2.6686 -0.9800 -0.5268
 5994TIP3    H242178   0.897   2.279   6.865  3.8012  1.4585  0.6204
 5995TIP3   OH242179   0.120   2.961   4.690  0.1335 -0.3997  0.0139
 5995TIP3    H142180   0.155   2.962   4.780 -0.4023 -1.1393  0.2415
 5995TIP3    H242181   0.108   3.053   4.668  1.7066 -0.1313  0.1226
 5996TIP3   OH242182   5.047   3.908   5.905 -0.1849 -0.5824  0.1696
 5996TIP3    H142183   5.025   3.858   5.826 -0.7613  0.4706 -0.3625
 5996TIP3    H242184   5.107   3.852   5.953 -0.1825 -1.4420 -0.8031
 5997TIP3   OH242185   2.622   1.254   6.386  0.0070  0.3976  0.5644
 5997TIP3    H142186   2.528   1.253   6.406 -0.6129  2.7750 -1.6874
 5997TIP3    H242187   2.634   1.180   6.326 -0.9992  1.4828 -1.0469
 5998TIP3   OH242188   4.392   2.678   5.049  0.0311  0.0449  0.4685
 5998TIP3    H142189   4.376   2.771   5.063 -0.7050  0.2172 -1.2429
 5998TIP3    H242190   4.451   2.675   4.974 -0.0645 -0.8579  0.4176
 5999TIP3   OH242191   3.597   3.588   6.261  0.3361 -0.2795 -0.1127
 5999TIP3    H142192   3.672   3.646   6.248  1.2356 -1.5441 -0.6619
 5999TIP3    H242193   3.523   3.637   6.223  1.0889  0.4496 -0.6765
 6000TIP3   OH242194   0.916   5.245   4.992 -0.2105 -0.5383  0.3314
 6000TIP3    H142195   0.984   5.265   4.928  0.9180 -2.0739  0.9881
 6000TIP3    H242196   0.910   5.150   4.992 -0.8095 -0.5352  1.8692
 6001TIP3   OH242197   5.738   3.930   5.942 -0.2753  0.2198 -0.3296
 6001TIP3    H142198   5.687   3.942   6.023 -0.3768  2.6984 -0.6854
 6001TIP3    H242199   5.704   3.849   5.905 -2.5626  0.7178  0.4860
 6002TIP3   OH242200   7.413   2.936   6.083  0.2150  0.4641  0.3714
 6002TIP3    H142201   7.358   2.873   6.036  1.1063 -0.0658  0.0218
 6002TIP3    H242202   7.497   2.935   6.036  1.3159 -0.4636  2.2575
 6003TIP3   OH242203   1.740   6.776   5.253  0.1796  0.6291  0.5632
 6003TIP3    H142204   1.658   6.750   5.295 -0.8863  0.0275 -1.7643
 6003TIP3    H242205   1.740   6.731   5.169  2.6052  1.1538  0.1907
 6004TIP3   OH242206   3.453   3.929   6.977  0.0002  0.3080  0.0128
 6004TIP3    H142207   3.533   3.906   7.024 -0.5064  1.7258  1.6679
 6004TIP3    H242208   3.431   3.851   6.927  2.2113 -0.2397 -0.2124
 6005TIP3   OH242209   1.301   7.334   8.051  0.0779  1.4900  0.1896
 6005TIP3    H142210   1.352   7.313   7.973 -0.5038  0.4670  0.0706
 6005TIP3    H242211   1.342   7.281   8.121  0.1568  1.8638  0.4295
 6006TIP3   OH242212   5.271   2.552   4.915 -0.2381 -0.5385  0.5456
 6006TIP3    H142213   5.291   2.643   4.935  0.8119 -0.2212 -1.7105
 6006TIP3    H242214   5.180   2.552   4.886 -0.3667 -0.2944  0.9461
 6007TIP3   OH242215   6.390   0.957   7.872 -0.3551 -0.0952 -0.3130
 6007TIP3    H142216   6.304   0.981   7.906  0.5952 -1.4805  3.6715
 6007TIP3    H242217   6.429   1.040   7.844 -2.5598  0.6811 -1.2530
 6008TIP3   OH242218   7.325   3.825   6.365  0.1458 -0.4182  0.0729
 6008TIP3    H142219   7.316   3.909   6.321  1.4366 -0.0200  0.5236
 6008TIP3    H242220   7.318   3.760   6.295  2.8243  0.2281 -0.8924
 6009TIP3   OH242221   1.449   7.205   6.941 -0.1608  0.1299  0.4682
 6009TIP3    H142222   1.371   7.242   6.900 -0.3417 -2.0903 -1.3792
 6009TIP3    H242223   1.522   7.249   6.898 -0.3873 -0.1614 -0.2298
 6010TIP3   OH242224   1.031   3.281   5.190 -0.1155 -0.8432 -0.3674
 6010TIP3    H142225   0.955   3.332   5.161  1.0307  0.5168 -1.1213
 6010TIP3    H242226   1.026   3.200   5.139 -0.1377 -0.0203 -1.7301
 6011TIP3   OH242227   2.678   3.750   6.758 -0.5979 -0.6031 -0.8628
 6011TIP3    H142228   2.749   3.767   6.821 -1.1795 -0.1362 -0.3252
 6011TIP3    H242229   2.644   3.664   6.783 -0.9043 -0.3663 -0.4715
 6012TIP3   OH242230   2.989   1.913   7.172  0.4782  0.3765 -0.0141
 6012TIP3    H142231   3.079   1.900   7.141  1.0353 -0.2472  1.7765
 6012TIP3    H242232   2.954   1.825   7.185 -0.1935  0.6195 -0.1061
 6013TIP3   OH242233   6.998   3.748   5.094 -0.4075  0.2574  0.2802
 6013TIP3    H142234   7.065   3.794   5.144 -0.3364  0.0804  0.3470
 6013TIP3    H242235   7.005   3.657   5.121  0.9852 -0.2264 -1.5035
 6014TIP3   OH242236   4.840   6.992   5.115 -0.1131 -0.5732  0.1609
 6014TIP3    H142237   4.890   6.975   5.035 -3.8122 -1.7574 -2.1727
 6014TIP3    H242238   4.866   6.922   5.175 -1.7091 -3.7464 -2.5003
 6015TIP3   OH242239   3.226   3.078   6.207 -0.5396  0.1369  0.2510
 6015TIP3    H142240   3.299   3.050   6.152 -0.3790  0.2760  0.3956
 6015TIP3    H242241   3.181   2.997   6.230 -0.1435  0.0055  0.5705
 6016TIP3   OH242242   5.284   3.566   5.798 -0.3799 -0.3539  0.1591
 6016TIP3    H142243   5.232   3.510   5.739  0.4490 -0.3708 -0.5703
 6016TIP3    H242244   5.375   3.543   5.779  0.1001  2.3910 -1.3840
 6017TIP3   OH242245   1.494   4.197   6.559  0.3264  0.0550 -0.1657
 6017TIP3    H142246   1.522   4.262   6.494 -0.2128 -1.1421 -1.6559
 6017TIP3    H242247   1.399   4.195   6.552 -0.0389  1.8109  2.6224
 6018TIP3   OH242248   5.790   0.461   5.564  0.2385  0.4989  0.0015
 6018TIP3    H142249   5.800   0.552   5.538 -0.2124  0.5138 -0.1193
 6018TIP3    H242250   5.722   0.426   5.507  1.4585 -0.3337 -1.0068
 6019TIP3   OH242251   6.494   6.357   6.564 -0.2473  0.1031  0.4374
 6019TIP3    H142252   6.538   6.333   6.645  1.0704  0.8594 -0.0205
 6019TIP3    H242253   6.535   6.439   6.538 -0.2043 -0.4272 -1.3083
 6020TIP3   OH242254   2.162   2.056   4.693 -0.3206 -0.6168  0.1662
 6020TIP3    H142255   2.167   1.984   4.630  2.6846  0.3230 -0.8263
 6020TIP3    H242256   2.084   2.104   4.668 -0.3386 -1.4450 -1.5246
 6021TIP3   OH242257   5.564   2.981   4.999  0.0583  0.3094 -0.4940
 6021TIP3    H142258   5.564   3.054   4.937  0.2889  1.4028  0.7638
 6021TIP3    H242259   5.652   2.944   4.992 -0.3113 -0.3995 -1.7298
 6022TIP3   OH242260   0.726   7.066   7.360 -0.1394  0.7097 -0.0374
 6022TIP3    H142261   0.756   7.099   7.445  1.7019  0.2876 -0.4871
 6022TIP3    H242262   0.685   6.982   7.380  1.0435  0.2133  0.3583
 6023TIP3   OH242263   3.583   1.369   6.076  0.5695 -0.6241 -0.4435
 6023TIP3    H142264   3.581   1.456   6.038 -1.1769 -0.2272  0.4573
 6023TIP3    H242265   3.639   1.378   6.153  0.7398 -0.4103 -0.5901
 6024TIP3   OH242266   1.311   3.397   6.508 -0.1171 -0.1226  0.3654
 6024TIP3    H142267   1.313   3.343   6.587  0.9499  0.6724  0.9089
 6024TIP3    H242268   1.238   3.458   6.522  1.0401  1.0675  1.4966
 6025TIP3   OH242269   4.175   7.088   6.273 -0.4484  0.4750 -0.6745
 6025TIP3    H142270   4.207   7.158   6.330  0.1192  0.6013 -1.1328
 6025TIP3    H242271   4.085   7.073   6.301 -0.2652  0.7280  0.0605
 6026TIP3   OH242272   6.898   0.674   7.134  0.4109 -0.6580  0.6524
 6026TIP3    H142273   6.833   0.728   7.088  2.1018  1.6982  0.8325
 6026TIP3    H242274   6.903   0.593   7.083 -0.6391  0.2410 -0.9614
 6027TIP3   OH242275   4.788   4.001   5.571  0.0287  0.2000  0.4037
 6027TIP3    H142276   4.880   4.027   5.570  0.4756 -1.2410  1.0277
 6027TIP3    H242277   4.771   3.975   5.662 -0.3136 -1.7202 -0.1512
 6028TIP3   OH242278   0.538   4.698   5.930  0.1003 -0.0132  0.0912
 6028TIP3    H142279   0.507   4.784   5.957  1.4812  0.6348 -0.3217
 6028TIP3    H242280   0.592   4.715   5.852 -0.4630 -1.3732 -0.6346
 6029TIP3   OH242281   7.415   1.537   5.235  0.6310  0.0455  0.2146
 6029TIP3    H142282   7.417   1.538   5.331  0.2545  0.6069  0.2199
 6029TIP3    H242283   7.331   1.497   5.213  1.1251 -0.9593  0.1068
 6030TIP3   OH242284   6.974   3.239   6.709  0.1837 -0.0513 -0.2817
 6030TIP3    H142285   7.011   3.276   6.789  0.0855 -0.4008 -0.0716
 6030TIP3    H242286   6.899   3.294   6.689 -0.5640 -0.7217  0.5888
 6031TIP3   OH242287   1.478   6.526   5.957  0.1423  0.5954  0.0313
 6031TIP3    H142288   1.556   6.572   5.928 -0.2995  0.2398 -1.8338
 6031TIP3    H242289   1.441   6.487   5.877 -0.5647 -1.3603  1.2301
 6032TIP3   OH242290   0.721   2.617   6.652  0.2517  0.1773 -0.0996
 6032TIP3    H142291   0.734   2.646   6.562  1.4606  0.0373  0.0039
 6032TIP3    H242292   0.738   2.695   6.705  0.1355  0.1148  0.0303
 6033TIP3   OH242293   5.692   5.486   5.372  0.3796  0.0049 -0.2210
 6033TIP3    H142294   5.600   5.510   5.358 -0.2608 -1.2761  1.4780
 6033TIP3    H242295   5.715   5.528   5.455  1.1194 -0.2575 -0.2915
 6034TIP3   OH242296   3.364   0.546   5.691 -0.4038 -0.0424  0.0796
 6034TIP3    H142297   3.384   0.638   5.711  3.1520 -0.5815 -0.2660
 6034TIP3    H242298   3.375   0.539   5.596 -2.2266 -0.5424 -0.1158
 6035TIP3   OH242299   2.719   2.887   5.393 -0.4005  0.0840  0.0549
 6035TIP3    H142300   2.662   2.916   5.464 -2.5765  1.4162 -2.0727
 6035TIP3    H242301   2.667   2.899   5.314  1.5471 -2.2497 -1.7401
 6036TIP3   OH242302   1.938   2.344   5.803  0.0827 -0.2400  1.0322
 6036TIP3    H142303   1.934   2.274   5.737  1.5526  1.4018 -0.9180
 6036TIP3    H242304   1.847   2.358   5.828 -0.8449  0.5504 -2.3606
 6037TIP3   OH242305   0.484   2.821   4.591  0.0756  0.5332 -0.0405
 6037TIP3    H142306   0.530   2.892   4.635  0.1499 -1.2077  2.9337
 6037TIP3    H242307   0.397   2.856   4.572  0.4007  1.6773  0.5082
 6038TIP3   OH242308   1.719   5.620   4.509  0.1213  0.6617 -0.3098
 6038TIP3    H142309   1.746   5.692   4.453  0.3125 -0.2288 -1.4091
 6038TIP3    H242310   1.629   5.641   4.534  0.4444  1.6644  0.0656
 6039TIP3   OH242311   2.306   5.009   6.771  0.2545 -0.2151  0.2068
 6039TIP3    H142312   2.281   5.061   6.847  1.7465 -1.5584  1.6746
 6039TIP3    H242313   2.346   4.930   6.807 -1.5197 -2.2358 -1.9438
 6040TIP3   OH242314   5.998   1.924   5.436  0.2302  0.0036 -0.3084
 6040TIP3    H142315   5.919   1.973   5.458 -1.7908 -1.6087 -3.3156
 6040TIP3    H242316   6.003   1.854   5.502 -1.0541 -0.0746 -0.2796
 6041TIP3   OH242317   1.666   5.104   4.754 -0.2355 -0.1401 -0.2192
 6041TIP3    H142318   1.665   5.069   4.844  0.1198 -0.6087 -0.3912
 6041TIP3    H242319   1.591   5.164   4.751  0.7832  1.2393  0.9144
 6042TIP3   OH242320   1.382   5.477   5.638 -0.0304 -0.3875 -0.0962
 6042TIP3    H142321   1.400   5.534   5.564  0.6498 -1.8499 -1.0950
 6042TIP3    H242322   1.316   5.524   5.689  1.3766  1.8526 -0.1956
 6043TIP3   OH242323   7.477   0.849   7.564  0.1491 -0.4277 -0.0328
 6043TIP3    H142324   7.383   0.854   7.578  0.4019 -0.0290  1.7327
 6043TIP3    H242325   7.496   0.918   7.500 -0.4802  1.0212  1.2892
 6044TIP3   OH242326   1.384   1.807   5.460 -0.0440 -0.4494  0.2854
 6044TIP3    H142327   1.472   1.776   5.436 -0.0507 -0.3948  0.1888
 6044TIP3    H242328   1.368   1.881   5.400 -0.1419 -0.4381  0.3260
 6045TIP3   OH242329   3.900   4.002   5.318  0.6495  0.2003 -0.4970
 6045TIP3    H142330   3.941   4.057   5.386  1.4063 -0.2577 -0.5718
 6045TIP3    H242331   3.974   3.960   5.274  0.0468 -2.5655  0.9422
 6046TIP3   OH242332   1.148   1.993   6.544 -0.2026 -0.3473  0.7923
 6046TIP3    H142333   1.118   1.984   6.634 -0.2264 -0.5232  0.7668
 6046TIP3    H242334   1.136   2.086   6.524 -0.0901 -0.2866  1.0075
 6047TIP3   OH242335   5.137   2.900   6.683  0.5368 -0.7247 -0.0919
 6047TIP3    H142336   5.166   2.928   6.770 -1.1653  0.6510  0.0697
 6047TIP3    H242337   5.202   2.937   6.623  0.1764  0.7495  0.3970
 6048TIP3   OH242338   6.847   6.235   6.788 -0.0983  0.2316 -0.3067
 6048TIP3    H142339   6.875   6.197   6.705  1.8403 -1.4552  1.0437
 6048TIP3    H242340   6.927   6.269   6.828 -0.9110  0.5908  1.0875
 6049TIP3   OH242341   5.840   5.254   6.500 -0.5010  0.4231 -0.1056
 6049TIP3    H142342   5.753   5.254   6.461 -0.8833  0.0884  0.7286
 6049TIP3    H242343   5.852   5.165   6.534  0.1078  0.5077 -0.0758
 6050TIP3   OH242344   2.848   4.987   6.431 -0.0326  0.8466 -0.4444
 6050TIP3    H142345   2.822   5.034   6.352 -1.0714 -0.3468 -0.8457
 6050TIP3    H242346   2.775   4.999   6.492 -1.8684 -2.6596 -1.6377
 6051TIP3   OH242347   6.790   0.928   7.949 -0.4478  0.9295  0.3115
 6051TIP3    H142348   6.796   0.915   7.854 -0.9990  1.6866  0.1691
 6051TIP3    H242349   6.828   1.014   7.964  2.8824 -0.5371  1.2183
 6052TIP3   OH242350   4.726   3.059   6.264  0.3730  0.6403 -0.0926
 6052TIP3    H142351   4.710   3.077   6.171  1.4345 -0.2816 -0.4770
 6052TIP3    H242352   4.816   3.086   6.278  0.1004  1.1157  0.7757
 6053TIP3   OH242353   0.404   3.095   5.578 -0.0633 -1.0914  0.4200
 6053TIP3    H142354   0.313   3.074   5.556  0.4243 -2.2186 -0.6076
 6053TIP3    H242355   0.418   3.056   5.664 -0.6450 -0.5817  0.7599
 6054TIP3   OH242356   3.444   6.033   7.328 -0.3840 -0.2571  0.2830
 6054TIP3    H142357   3.416   5.957   7.379  1.0446  0.0904  1.6483
 6054TIP3    H242358   3.366   6.090   7.325 -1.0130 -1.0865  0.5309
 6055TIP3   OH242359   1.989   3.229   5.837 -0.0238 -0.3928  0.0022
 6055TIP3    H142360   2.040   3.309   5.842 -1.0445  0.2856 -0.1540
 6055TIP3    H242361   1.959   3.214   5.927 -1.1929  0.3336 -0.2406
 6056TIP3   OH242362   2.281   1.649   7.198 -0.2094  0.2635 -0.3145
 6056TIP3    H142363   2.341   1.641   7.272 -0.7505  0.7850  0.2028
 6056TIP3    H242364   2.243   1.737   7.208 -1.2454 -0.1501 -0.4711
 6057TIP3   OH242365   4.376   7.576   5.574  0.3282  0.1984 -0.2128
 6057TIP3    H142366   4.393   7.501   5.631  0.6740 -0.5149 -1.2379
 6057TIP3    H242367   4.419   7.649   5.618  0.2071 -0.2410  0.6674
 6058TIP3   OH242368   3.791   6.113   5.387  0.1374 -0.5942 -0.4499
 6058TIP3    H142369   3.745   6.035   5.358 -1.9905  1.8240 -4.5950
 6058TIP3    H242370   3.852   6.133   5.316  0.7419  1.4045  0.5332
 6059TIP3   OH242371   2.740   0.078   6.949  0.1132 -0.1048  0.1735
 6059TIP3    H142372   2.656   0.123   6.954  0.4349  0.6806 -1.0196
 6059TIP3    H242373   2.746   0.028   7.030 -2.0072 -1.0882 -0.2205
 6060TIP3   OH242374   0.156   2.514   6.431 -0.4698  0.3632  0.1302
 6060TIP3    H142375   0.142   2.573   6.357  3.2910  0.7242 -0.4800
 6060TIP3    H242376   0.118   2.431   6.402  0.6563  0.5628 -2.1735
 6061TIP3   OH242377   2.585   1.532   6.818  0.1526 -0.3720 -0.0501
 6061TIP3    H142378   2.575   1.517   6.912 -1.5472  0.2561 -0.0969
 6061TIP3    H242379   2.680   1.536   6.804  0.4943  2.7909  2.2108
 6062TIP3   OH242380   0.922   5.842   5.176 -0.5504  0.4379  0.4693
 6062TIP3    H142381   0.919   5.869   5.085 -2.1615 -1.0790 -0.0079
 6062TIP3    H242382   0.875   5.911   5.223  2.1116  2.3301  0.5731
 6063TIP3   OH242383   2.413   2.774   5.733 -0.1980  0.0857 -0.2252
 6063TIP3    H142384   2.479   2.708   5.710 -0.8594  0.2226 -2.8255
 6063TIP3    H242385   2.441   2.853   5.687 -2.0705  0.1562 -1.3447
 6064TIP3   OH242386   4.810   1.829   5.225 -0.9698 -0.6352 -0.5061
 6064TIP3    H142387   4.723   1.789   5.227 -2.4792  2.3970  0.8743
 6064TIP3    H242388   4.862   1.777   5.285 -1.9667 -2.1647 -0.9031
 6065TIP3   OH242389   7.472   7.158   7.541  0.2619 -0.6709  0.5619
 6065TIP3    H142390   7.377   7.150   7.533  0.3927 -0.4051 -2.0261
 6065TIP3    H242391   7.485   7.247   7.572 -0.3351 -0.7576  1.0881
 6066TIP3   OH242392   0.940   5.167   5.363  0.0024 -0.0591 -0.0955
 6066TIP3    H142393   0.868   5.216   5.324  0.1400 -1.0924 -1.6942
 6066TIP3    H242394   0.990   5.234   5.411 -1.5534  0.7993  0.4117
 6067TIP3   OH242395   5.277   3.851   4.888 -0.2952 -0.0919  0.2831
 6067TIP3    H142396   5.217   3.925   4.879 -2.7863 -2.1782 -2.5452
 6067TIP3    H242397   5.226   3.776   4.856  3.5152 -2.2321 -1.4152
 6068TIP3   OH242398   1.966   7.553   6.450  0.3139 -0.6480 -0.4508
 6068TIP3    H142399   2.060   7.565   6.459  0.1200  1.1695 -0.6392
 6068TIP3    H242400   1.952   7.540   6.356  0.2942 -0.0265 -0.5376
 6069TIP3   OH242401   1.131   1.784   4.835 -0.4209  0.1172 -0.1985
 6069TIP3    H142402   1.155   1.709   4.781  1.8902  0.8447 -0.2598
 6069TIP3    H242403   1.134   1.858   4.775 -0.7236  0.5431  0.3041
 6070TIP3   OH242404   7.224   1.982   7.191  0.4339 -0.3893 -0.3957
 6070TIP3    H142405   7.183   2.028   7.118 -0.4566  0.9742  0.8970
 6070TIP3    H242406   7.184   1.895   7.190 -0.1094 -0.1435 -1.0967
 6071TIP3   OH242407   6.422   4.933   5.585 -0.0366 -0.5216  0.1440
 6071TIP3    H142408   6.373   4.902   5.661 -0.3647 -0.0913  0.1143
 6071TIP3    H242409   6.372   4.902   5.509 -0.2711 -0.0710  0.1136
 6072TIP3   OH242410   5.369   0.222   6.750 -0.2394  0.0721  0.3543
 6072TIP3    H142411   5.416   0.204   6.668  1.1740 -1.4907  1.4412
 6072TIP3    H242412   5.287   0.261   6.722  0.3574 -0.0776 -1.7951
 6073TIP3   OH242413   0.424   2.233   5.191 -0.0244  0.1550 -0.7859
 6073TIP3    H142414   0.378   2.155   5.222  1.2682 -1.1802 -2.0280
 6073TIP3    H242415   0.450   2.279   5.271  0.1630 -1.2987  0.0182
 6074TIP3   OH242416   1.323   2.604   6.188 -0.5622 -0.2783  0.0036
 6074TIP3    H142417   1.288   2.517   6.170 -0.3176 -0.6852  1.3484
 6074TIP3    H242418   1.396   2.588   6.249 -0.1621  0.8212 -0.1660
 6075TIP3   OH242419   7.055   0.824   7.278 -0.6535 -0.0514  0.5140
 6075TIP3    H142420   6.984   0.863   7.329 -1.4650 -0.0218 -0.6055
 6075TIP3    H242421   7.010   0.777   7.208  0.4544  0.2736 -0.4260
 6076TIP3   OH242422   2.672   4.028   4.769 -0.0002 -0.7284  0.1155
 6076TIP3    H142423   2.740   3.961   4.767 -0.1991 -0.9231 -0.1131
 6076TIP3    H242424   2.618   4.010   4.692  0.4047  0.1657 -0.3980
 6077TIP3   OH242425   5.369   3.124   5.150  0.2997  0.3765  0.5256
 6077TIP3    H142426   5.413   3.060   5.093  0.5074 -0.1956  1.3150
 6077TIP3    H242427   5.426   3.201   5.146 -0.2341  0.7311 -0.8610
 6078TIP3   OH242428   4.438   0.237   6.276  0.0380  0.0222 -0.4302
 6078TIP3    H142429   4.467   0.145   6.273 -1.3499 -0.4903  0.7765
 6078TIP3    H242430   4.349   0.233   6.310  0.4129  1.9344  0.9298
 6079TIP3   OH242431   3.526   4.637   7.058 -0.0827 -0.1124 -0.4865
 6079TIP3    H142432   3.509   4.675   7.144 -2.1196  1.7414 -1.6101
 6079TIP3    H242433   3.621   4.637   7.050  0.3495 -2.5091  2.6143
 6080TIP3   OH242434   7.055   5.399   6.365  0.7791 -0.1166  0.4656
 6080TIP3    H142435   7.059   5.483   6.319 -2.4520 -0.3723 -0.5371
 6080TIP3    H242436   7.118   5.344   6.319  2.2335  1.4062  0.5068
 6081TIP3   OH242437   5.085   5.872   7.354 -0.3454 -0.6478 -0.4563
 6081TIP3    H142438   5.147   5.902   7.287 -0.0563  0.9710  0.4752
 6081TIP3    H242439   5.001   5.911   7.328 -0.2753 -0.1859 -0.0037
 6082TIP3   OH242440   0.966   0.783   6.718 -0.4740  0.2818  0.0704
 6082TIP3    H142441   1.033   0.748   6.777 -0.1127  0.0910 -0.4464
 6082TIP3    H242442   1.013   0.841   6.659 -0.1810 -2.0669 -2.2051
 6083TIP3   OH242443   1.418   0.017   5.812 -0.5311  0.2987 -0.5889
 6083TIP3    H142444   1.415   0.050   5.722 -1.3998  0.9893 -0.3149
 6083TIP3    H242445   1.436  -0.077   5.803  1.9520  0.7621 -1.3921
 6084TIP3   OH242446   1.077   7.404   7.102 -0.5651  0.6245  0.7691
 6084TIP3    H142447   1.081   7.327   7.160 -1.3840  0.5298  0.6998
 6084TIP3    H242448   1.006   7.457   7.137 -0.5841  0.9241  0.2846
 6085TIP3   OH242449   0.986   1.528   5.692 -0.3838 -0.0700  0.1658
 6085TIP3    H142450   0.954   1.617   5.683 -0.5761 -0.2254 -0.6920
 6085TIP3    H242451   1.075   1.530   5.656  0.1044  0.0482  1.3012
 6086TIP3   OH242452   4.330   1.212   6.587 -0.0091  0.2841  0.7298
 6086TIP3    H142453   4.382   1.219   6.667  1.2947 -0.2716 -0.0356
 6086TIP3    H242454   4.386   1.164   6.526 -1.2477  0.0802 -0.2936
 6087TIP3   OH242455   6.698   6.538   5.287 -0.2950  0.4898  0.2782
 6087TIP3    H142456   6.731   6.523   5.199  1.2466  1.6991  0.6002
 6087TIP3    H242457   6.721   6.458   5.335  0.3181  0.4776 -0.0252
 6088TIP3   OH242458   6.787   5.450   6.088 -0.1085 -0.2342  0.1917
 6088TIP3    H142459   6.691   5.456   6.088 -0.1440 -0.6176 -0.8288
 6088TIP3    H242460   6.806   5.384   6.155 -0.4496  0.9755  1.5386
 6089TIP3   OH242461   6.568   1.252   6.663 -0.6013  0.4607  0.4271
 6089TIP3    H142462   6.537   1.173   6.708  0.0798 -0.0997 -0.0636
 6089TIP3    H242463   6.642   1.222   6.610 -0.2958  1.4433  0.2723
 6090TIP3   OH242464   6.843   4.915   6.616 -0.4951  0.1464  0.2750
 6090TIP3    H142465   6.834   4.998   6.662 -1.6858 -0.5184  1.2714
 6090TIP3    H242466   6.762   4.868   6.633 -0.2700 -0.8149 -1.1267
 6091TIP3   OH242467   1.811   4.681   7.290 -0.7463  0.2821 -0.3507
 6091TIP3    H142468   1.768   4.753   7.244 -1.2757 -1.6512 -3.1294
 6091TIP3    H242469   1.743   4.614   7.300  0.1713 -0.5611  0.5085
 6092TIP3   OH242470   0.445   2.896   5.769 -0.1867 -0.1869  1.0240
 6092TIP3    H142471   0.362   2.849   5.776 -1.0738  1.1700  0.0961
 6092TIP3    H242472   0.473   2.910   5.859 -1.6911  0.5624  1.4012
 6093TIP3   OH242473   6.833   5.983   6.627 -0.0086  0.3592  0.0174
 6093TIP3    H142474   6.863   6.062   6.583  0.8924  0.0135 -0.0073
 6093TIP3    H242475   6.826   5.917   6.557  0.3743  0.1048  0.2154
 6094TIP3   OH242476   1.078   2.420   5.247  0.1963 -0.6129  0.5178
 6094TIP3    H142477   1.039   2.468   5.174  0.5529 -1.7720 -0.4657
 6094TIP3    H242478   1.106   2.488   5.308 -2.5622  0.2860  0.8947
 6095TIP3   OH242479   6.204   6.741   5.470  0.2798 -0.4566 -0.0125
 6095TIP3    H142480   6.159   6.741   5.555 -0.7607 -0.1559 -0.5411
 6095TIP3    H242481   6.267   6.670   5.477  1.7684  0.9297  1.7920
 6096TIP3   OH242482   6.877   0.339   5.728 -0.6242  0.3339 -0.4152
 6096TIP3    H142483   6.854   0.275   5.661 -1.6686 -1.3425  1.4242
 6096TIP3    H242484   6.961   0.309   5.762 -0.0238  1.2637 -1.0480
 6097TIP3   OH242485   5.821   4.240   5.710  0.2062  0.1719 -0.0918
 6097TIP3    H142486   5.749   4.228   5.647 -0.7703 -0.3215  1.0784
 6097TIP3    H242487   5.845   4.151   5.735 -0.1642  0.3802  1.0383
 6098TIP3   OH242488   2.959   0.699   5.622 -0.0107  0.5506 -0.3181
 6098TIP3    H142489   2.887   0.640   5.600  0.3801  0.0402 -0.2557
 6098TIP3    H242490   2.948   0.717   5.715 -0.0498  0.4640 -0.3058
 6099TIP3   OH242491   6.991   5.826   4.717 -0.3144 -0.0412  0.0791
 6099TIP3    H142492   6.923   5.765   4.686 -0.9419  1.0741 -0.7909
 6099TIP3    H242493   6.963   5.849   4.806 -1.5131  0.9708 -0.5219
 6100TIP3   OH242494   7.056   7.189   5.839 -0.0499 -0.0552  0.3554
 6100TIP3    H142495   7.073   7.263   5.897  0.6962 -1.8108  2.5096
 6100TIP3    H242496   7.142   7.149   5.825 -0.4910 -0.7806 -0.3964
 6101TIP3   OH242497   1.545   2.571   4.956  0.3198 -0.2566  0.1392
 6101TIP3    H142498   1.630   2.546   4.920  0.3396 -1.0220  0.6803
 6101TIP3    H242499   1.524   2.654   4.913  0.8532 -0.5808 -0.7881
 6102TIP3   OH242500   0.930   6.485   4.626  0.0828 -0.2282 -0.2881
 6102TIP3    H142501   0.849   6.535   4.623 -0.7361 -1.5215 -0.4982
 6102TIP3    H242502   0.977   6.519   4.702 -0.3195  1.0170 -0.5754
 6103TIP3   OH242503   7.567   3.984   6.847 -0.1484 -0.1108  0.0152
 6103TIP3    H142504   7.592   3.902   6.889 -4.2412 -0.7543  1.6899
 6103TIP3    H242505   7.500   3.959   6.784 -2.1408  1.8825  1.1802
 6104TIP3   OH242506   4.690   6.744   4.894  0.3764 -0.2947  0.1467
 6104TIP3    H142507   4.701   6.706   4.981 -0.1649  0.7959  0.7175
 6104TIP3    H242508   4.773   6.790   4.878  0.5563 -0.6701 -0.0091
 6105TIP3   OH242509   1.792   6.593   5.032 -0.2824 -0.0907  0.3630
 6105TIP3    H142510   1.776   6.587   4.938 -2.1033 -0.9948  0.6899
 6105TIP3    H242511   1.728   6.534   5.072  1.8079 -1.3742  2.0811
 6106TIP3   OH242512   0.978   2.876   7.043  0.0335 -0.0976  0.1057
 6106TIP3    H142513   1.039   2.898   6.973  0.4263  1.2712  0.8286
 6106TIP3    H242514   0.911   2.945   7.039  0.0466 -0.0216  1.0439
 6107TIP3   OH242515   1.179   5.010   6.510  0.6120 -0.1490  0.0121
 6107TIP3    H142516   1.270   4.999   6.535 -0.0095  0.2398  2.7403
 6107TIP3    H242517   1.171   5.103   6.488  0.3726  0.4815  2.4635
 6108TIP3   OH242518   2.852   3.846   4.837  0.3552 -0.4054 -0.1017
 6108TIP3    H142519   2.918   3.894   4.887 -2.4037  1.7226  1.8192
 6108TIP3    H242520   2.900   3.773   4.797  4.3201  2.3812 -1.0227
 6109TIP3   OH242521   5.214   0.217   7.396  0.2826 -0.4572 -0.4594
 6109TIP3    H142522   5.306   0.241   7.385  0.4318 -0.9075 -0.2030
 6109TIP3    H242523   5.167   0.280   7.342  0.5139  1.6233  1.5855
 6110TIP3   OH242524   2.507   6.118   5.084  0.2659  0.5644  0.1552
 6110TIP3    H142525   2.549   6.196   5.119  2.6280 -1.1508  1.4765
 6110TIP3    H242526   2.424   6.112   5.132  1.2260  0.9147  1.9837
 6111TIP3   OH242527   3.086   0.722   5.367 -0.0106  0.3326 -0.0571
 6111TIP3    H142528   3.011   0.677   5.404  1.2425 -1.5402  0.3526
 6111TIP3    H242529   3.069   0.725   5.273 -1.3490  1.5003  0.1833
 6112TIP3   OH242530   1.646   5.392   5.010  0.4625 -0.2465  0.5232
 6112TIP3    H142531   1.613   5.465   5.063  0.6305  0.6906 -0.6259
 6112TIP3    H242532   1.740   5.405   5.007  0.4830 -0.4643  0.2308
 6113TIP3   OH242533   1.876   0.543   6.663 -1.0131 -0.3690  0.1824
 6113TIP3    H142534   1.914   0.612   6.609 -1.0374  0.0312  0.6788
 6113TIP3    H242535   1.782   0.561   6.662 -0.9796 -0.1694  0.6296
 6114TIP3   OH242536   2.589   7.488   6.787  0.3434  0.0428 -0.1629
 6114TIP3    H142537   2.498   7.459   6.794 -0.6507  2.8540  0.0568
 6114TIP3    H242538   2.633   7.449   6.862 -0.7855 -1.0449 -0.0348
 6115TIP3   OH242539   5.557   4.225   5.980 -0.1427 -0.2036 -0.0248
 6115TIP3    H142540   5.512   4.203   6.061  0.0633 -1.4073 -0.2120
 6115TIP3    H242541   5.534   4.316   5.963 -0.0598  0.1127  1.4568
 6116TIP3   OH242542   6.267   6.606   5.887 -0.2227  0.1605  0.7613
 6116TIP3    H142543   6.219   6.678   5.847  0.1760  0.5181  0.9221
 6116TIP3    H242544   6.352   6.643   5.911 -0.1270 -0.2803  1.1299
 6117TIP3   OH242545   5.570   1.648   6.822  0.5214 -0.4321  0.3439
 6117TIP3    H142546   5.479   1.679   6.822  0.3456 -0.9033 -0.5085
 6117TIP3    H242547   5.592   1.637   6.914 -0.9574 -2.2008  0.5363
 6118TIP3   OH242548   0.443   7.328   6.791 -0.3181 -0.3373 -0.1811
 6118TIP3    H142549   0.499   7.257   6.821  0.1985 -0.3039 -1.0305
 6118TIP3    H242550   0.393   7.290   6.718  1.8524  0.8295 -2.4328
 6119TIP3   OH242551   1.629   3.607   5.169 -0.8495  0.6729 -0.1816
 6119TIP3    H142552   1.717   3.632   5.198  0.4313 -2.3050 -1.1683
 6119TIP3    H242553   1.603   3.679   5.110  2.4475  0.1342 -2.6064
 6120TIP3   OH242554   6.252   2.459   6.471 -0.3998 -0.2731  0.0922
 6120TIP3    H142555   6.220   2.450   6.560  0.0621  0.8560  0.3823
 6120TIP3    H242556   6.263   2.369   6.440  0.2001 -0.6687  1.4403
 6121TIP3   OH242557   1.927   2.159   5.602  0.3776 -0.0133 -0.2972
 6121TIP3    H142558   1.846   2.176   5.553  1.2844  0.7070 -1.6128
 6121TIP3    H242559   1.987   2.124   5.536  0.7743 -1.7266  0.9263
 6122TIP3   OH242560   3.540   7.639   6.085  0.4231  0.3294  0.2159
 6122TIP3    H142561   3.597   7.610   6.015 -0.4947  0.6806 -0.7074
 6122TIP3    H242562   3.487   7.708   6.046  0.6573  1.3168  1.5815
 6123TIP3   OH242563   2.291   1.345   7.156 -0.3635  0.8051  0.0467
 6123TIP3    H142564   2.237   1.393   7.220  0.3964  1.8277 -0.0538
 6123TIP3    H242565   2.243   1.353   7.074  0.1597  2.1482 -0.1516
 6124TIP3   OH242566   1.608   1.730   4.795 -0.1476 -0.3763 -0.3071
 6124TIP3    H142567   1.611   1.778   4.713  0.6689 -0.0001 -0.0632
 6124TIP3    H242568   1.667   1.656   4.782  0.0749 -0.2522 -0.0240
 6125TIP3   OH242569   5.246   2.587   6.501 -0.0565  0.0512 -0.6919
 6125TIP3    H142570   5.178   2.555   6.561  0.6198  0.1476  0.1388
 6125TIP3    H242571   5.231   2.538   6.420 -1.7152  0.7526 -0.8614
 6126TIP3   OH242572   2.559   6.220   5.480  0.3817  0.3770  0.3372
 6126TIP3    H142573   2.488   6.161   5.457  0.1966  1.2365 -1.4223
 6126TIP3    H242574   2.598   6.245   5.397  1.1173  1.9249  1.1018
 6127TIP3   OH242575   4.713   6.804   6.040  0.0338 -0.4856 -0.4512
 6127TIP3    H142576   4.702   6.718   6.001  0.3961 -0.2255 -1.1526
 6127TIP3    H242577   4.804   6.827   6.021 -0.2119  0.2727 -0.7480
 6128TIP3   OH242578   3.429   1.426   4.809  0.0646  0.3122 -0.6010
 6128TIP3    H142579   3.405   1.453   4.898  0.6400 -0.6110 -0.1476
 6128TIP3    H242580   3.364   1.360   4.786 -0.3642  0.8869 -1.0595
 6129TIP3   OH242581   2.087   5.515   5.723 -0.2465 -0.1782 -0.3750
 6129TIP3    H142582   2.074   5.477   5.810  0.2782  1.1584  0.3170
 6129TIP3    H242583   2.158   5.464   5.684 -2.1982 -2.4778 -1.0915
 6130TIP3   OH242584   6.366   2.449   7.006 -0.8627 -0.3554 -0.0868
 6130TIP3    H142585   6.429   2.439   7.078 -0.2880 -0.7143 -0.6311
 6130TIP3    H242586   6.320   2.530   7.026 -0.5177 -0.3067  0.5462
 6131TIP3   OH242587   6.589   5.085   7.774  0.3063 -0.1702  0.5319
 6131TIP3    H142588   6.600   5.008   7.717 -1.1271 -0.9483  1.2326
 6131TIP3    H242589   6.497   5.110   7.762  0.1174 -0.0233  2.0633
 6132TIP3   OH242590   1.734   5.718   6.054  0.4554 -0.1913  0.5150
 6132TIP3    H142591   1.789   5.669   6.115  1.7276  0.2840 -0.1996
 6132TIP3    H242592   1.794   5.745   5.984 -0.4822  1.1921  0.1928
 6133TIP3   OH242593   0.881   4.135   7.122  0.6528 -0.9435  0.4002
 6133TIP3    H142594   0.839   4.119   7.038  1.1845 -0.4574  0.0338
 6133TIP3    H242595   0.973   4.109   7.108  1.2657  1.1999  0.1492
 6134TIP3   OH242596   0.331   0.886   6.314 -0.7746 -0.1213 -0.9635
 6134TIP3    H142597   0.359   0.821   6.249 -1.6968 -1.1469 -0.3615
 6134TIP3    H242598   0.235   0.887   6.307 -1.0699 -1.5750  1.5637
 6135TIP3   OH242599   2.077   5.442   6.896  0.5172  0.2600 -0.2379
 6135TIP3    H142600   2.048   5.417   6.984  2.2776 -1.0201  0.0385
 6135TIP3    H242601   2.002   5.486   6.857 -1.3002 -1.6590  0.9023
 6136TIP3   OH242602   4.405   3.783   6.401 -0.1890 -0.3077  0.3395
 6136TIP3    H142603   4.312   3.764   6.414 -0.6837  0.3774 -1.8423
 6136TIP3    H242604   4.410   3.879   6.401  0.3687 -0.3295 -0.4265
 6137TIP3   OH242605   7.025   4.910   4.788  0.0223 -0.1571  0.0836
 6137TIP3    H142606   6.931   4.923   4.778 -0.0753  1.0036  1.9633
 6137TIP3    H242607   7.049   4.850   4.718 -1.6773  1.3881 -1.9686
 6138TIP3   OH242608   0.982   3.673   6.794 -0.0895  0.0253 -0.1809
 6138TIP3    H142609   0.941   3.656   6.878 -1.3075  0.3304 -0.6977
 6138TIP3    H242610   0.991   3.587   6.753  1.6123 -0.2733  0.7220
 6139TIP3   OH242611   2.305   5.238   6.632  0.4681 -0.5538 -0.8732
 6139TIP3    H142612   2.328   5.152   6.667 -0.2423 -1.2102 -1.9482
 6139TIP3    H242613   2.389   5.284   6.627  0.6567 -0.6184  1.1234
 6140TIP3   OH242614   0.337   0.137   7.568 -0.4358  0.2768  0.6273
 6140TIP3    H142615   0.318   0.135   7.662  1.9152  1.1144  1.1998
 6140TIP3    H242616   0.277   0.202   7.532 -1.8622 -0.5655  1.3788
 6141TIP3   OH242617   0.723   0.550   5.230  0.1496 -0.4604 -0.2001
 6141TIP3    H142618   0.792   0.542   5.164 -1.4364 -1.5730 -1.7827
 6141TIP3    H242619   0.679   0.632   5.208 -0.4910 -0.9201 -0.6472
 6142TIP3   OH242620   7.491   5.072   6.964  0.0815  0.2882  0.3298
 6142TIP3    H142621   7.481   5.067   7.059  1.7830  1.9169  0.6392
 6142TIP3    H242622   7.446   5.152   6.939 -0.5289 -0.2351 -0.2949
 6143TIP3   OH242623   1.481   3.947   5.084  0.0194  0.2979 -0.3917
 6143TIP3    H142624   1.439   4.016   5.033 -0.1616 -0.2605 -1.0194
 6143TIP3    H242625   1.569   3.939   5.045 -0.4874 -0.8750 -1.3784
 6144TIP3   OH242626   3.916   4.302   5.014  0.0934  0.0378 -0.0123
 6144TIP3    H142627   3.883   4.217   4.985  0.6180 -0.5540  1.0415
 6144TIP3    H242628   3.868   4.366   4.961 -1.1262 -0.8648 -0.0456
 6145TIP3   OH242629   5.965   6.878   6.463  0.3234 -0.3667  0.1956
 6145TIP3    H142630   5.906   6.952   6.476 -0.1463 -0.5525 -0.8002
 6145TIP3    H242631   5.939   6.841   6.379  1.2984 -0.9805  0.1507
 6146TIP3   OH242632   2.122   1.622   6.012  0.2096  0.0834 -0.6714
 6146TIP3    H142633   2.060   1.643   5.942 -0.1103  1.5374  0.0024
 6146TIP3    H242634   2.145   1.707   6.050  0.4282 -0.6496  0.9363
 6147TIP3   OH242635   5.076   5.809   6.011  0.1304  0.1682 -0.0221
 6147TIP3    H142636   5.031   5.727   6.029  0.5177 -0.0809 -0.1747
 6147TIP3    H242637   5.150   5.784   5.955 -0.3557  0.7697 -0.9481
 6148TIP3   OH242638   0.478   5.500   4.517  0.2416  0.3171 -0.4143
 6148TIP3    H142639   0.463   5.505   4.422  0.4389  2.7625 -0.3898
 6148TIP3    H242640   0.549   5.436   4.526 -0.3639 -0.6270 -1.8032
 6149TIP3   OH242641   6.916   6.509   6.582 -0.1654 -0.4275  0.3049
 6149TIP3    H142642   6.894   6.536   6.493  2.2939 -1.2358 -0.6440
 6149TIP3    H242643   6.883   6.420   6.590 -2.3814  0.3984  1.0713
 6150TIP3   OH242644   7.153   3.639   6.042  0.4226 -0.2432  0.1306
 6150TIP3    H142645   7.160   3.563   5.985 -1.0738 -1.1130  1.0494
 6150TIP3    H242646   7.140   3.713   5.982  0.3217 -0.9331 -0.7136
 6151TIP3   OH242647   2.634   2.321   5.663 -0.7099 -0.4719  0.2793
 6151TIP3    H142648   2.630   2.414   5.684  0.7931  0.1115 -1.6965
 6151TIP3    H242649   2.546   2.298   5.634 -0.6985  0.8116 -0.8623
 6152TIP3   OH242650   4.433   2.029   6.800  0.2781 -0.2567 -0.0202
 6152TIP3    H142651   4.411   1.937   6.813  0.8050 -0.2737  0.8129
 6152TIP3    H242652   4.379   2.056   6.725 -1.7867 -0.5757  1.2483
 6153TIP3   OH242653   3.157   6.457   4.569 -0.4476 -1.0463  0.4583
 6153TIP3    H142654   3.094   6.510   4.519  0.8348  0.0575 -0.0521
 6153TIP3    H242655   3.123   6.368   4.564 -0.8775 -0.8132 -1.5618
 6154TIP3   OH242656   3.078   5.227   5.364  0.2984  0.1322  0.3841
 6154TIP3    H142657   2.998   5.218   5.312  1.0659 -0.7165 -0.7177
 6154TIP3    H242658   3.084   5.145   5.413  1.5128 -0.7264 -1.1018
 6155TIP3   OH242659   0.143   5.915   6.818  0.1308 -0.2926 -0.3778
 6155TIP3    H142660   0.126   5.870   6.735  1.1252 -1.4792  0.0284
 6155TIP3    H242661   0.095   5.863   6.883  0.9494 -0.5360  0.0431
 6156TIP3   OH242662   4.628   0.837   6.029 -0.4434  0.1289  0.1175
 6156TIP3    H142663   4.622   0.802   5.940 -0.6754 -0.6512  0.4303
 6156TIP3    H242664   4.704   0.894   6.028  0.5894 -1.1975 -0.1449
 6157TIP3   OH242665   3.977   3.079   7.104 -0.3676  0.1296 -0.0324
 6157TIP3    H142666   3.989   3.024   7.181 -0.2010  0.3257  0.0805
 6157TIP3    H242667   3.895   3.048   7.065  0.0550 -0.6342 -0.3294
 6158TIP3   OH242668   5.346   5.509   4.970 -0.4114 -0.4223  0.6506
 6158TIP3    H142669   5.318   5.430   5.014 -1.4110 -0.7953 -0.5973
 6158TIP3    H242670   5.265   5.553   4.944  0.1181 -0.2505 -0.8282
 6159TIP3   OH242671   4.991   2.250   7.239  0.7929  0.1308  0.3490
 6159TIP3    H142672   5.023   2.324   7.291  1.6809  0.7704 -1.0605
 6159TIP3    H242673   5.069   2.212   7.199  0.1974 -0.7736  0.0112
 6160TIP3   OH242674   4.496   0.343   4.928 -0.6439 -0.5179 -0.9412
 6160TIP3    H142675   4.481   0.263   4.878  0.3518 -0.9351 -0.5986
 6160TIP3    H242676   4.413   0.391   4.923 -2.3131 -2.8723  1.2374
 6161TIP3   OH242677   5.460   7.594   5.680  0.3718 -0.4823  0.4487
 6161TIP3    H142678   5.470   7.688   5.662  0.6220 -0.3275  1.3478
 6161TIP3    H242679   5.370   7.574   5.655 -0.4404  0.5246  2.3879
 6162TIP3   OH242680   1.645   7.102   4.783 -0.3063  0.2095  0.1941
 6162TIP3    H142681   1.601   7.083   4.700 -3.1307  0.3110  1.5501
 6162TIP3    H242682   1.730   7.060   4.774 -0.1017  1.0114 -3.0735
 6163TIP3   OH242683   0.718   6.816   5.160 -0.0492  0.4953 -0.2781
 6163TIP3    H142684   0.647   6.874   5.132 -0.7605 -0.5927 -0.7903
 6163TIP3    H242685   0.679   6.764   5.230  0.8750  1.2640  0.8371
 6164TIP3   OH242686   5.415   3.413   4.833  0.2997  0.1173  0.0905
 6164TIP3    H142687   5.452   3.333   4.795  1.4690 -0.2797  1.9443
 6164TIP3    H242688   5.333   3.383   4.874  0.6018 -0.0849  0.5531
 6165TIP3   OH242689   5.744   3.821   4.753  0.1392 -0.2689 -0.4638
 6165TIP3    H142690   5.666   3.767   4.747 -0.0089 -0.0817 -0.2360
 6165TIP3    H242691   5.721   3.891   4.815  0.7672 -0.7131  0.3015
 6166TIP3   OH242692   0.701   1.201   7.416  0.0526 -0.2310  0.6941
 6166TIP3    H142693   0.781   1.170   7.373  0.1141  0.0431  0.6115
 6166TIP3    H242694   0.724   1.208   7.509 -0.0596 -0.7555  0.7646
 6167TIP3   OH242695   0.620   1.191   6.040 -0.3188 -0.2773 -0.3368
 6167TIP3    H142696   0.679   1.176   5.967 -0.1236  0.7734 -0.4074
 6167TIP3    H242697   0.550   1.246   6.004 -0.5101 -0.2090  0.1289
 6168TIP3   OH242698   3.567   4.623   5.816 -0.2033 -0.4951 -0.0689
 6168TIP3    H142699   3.477   4.593   5.826 -0.3719 -1.0391 -2.5518
 6168TIP3    H242700   3.620   4.543   5.821 -0.2253 -0.6785 -2.0595
 6169TIP3   OH242701   1.729   6.591  12.581 -0.0681 -0.0798  0.5864
 6169TIP3    H142702   1.759   6.658  12.642 -0.8516  1.9998 -1.1816
 6169TIP3    H242703   1.808   6.565  12.533  0.2225 -0.3964  1.2240
 6170TIP3   OH242704   5.751   6.011   5.529  0.4273  0.3058 -0.1550
 6170TIP3    H142705   5.778   5.921   5.512  0.3443  0.2664 -0.0785
 6170TIP3    H242706   5.815   6.064   5.482 -0.3976  0.1842 -1.4729
 6171TIP3   OH242707   0.558   3.348   6.271  0.1775 -0.2176  0.1488
 6171TIP3    H142708   0.485   3.300   6.231 -1.7250  1.2601  1.6183
 6171TIP3    H242709   0.519   3.431   6.300  2.3995  0.5133  1.2638
 6172TIP3   OH242710   0.718   4.584   6.704  0.3226 -0.1105  0.0969
 6172TIP3    H142711   0.699   4.631   6.623  0.5875  0.2014  0.2139
 6172TIP3    H242712   0.640   4.596   6.758  0.6688  0.7985  0.4057
 6173TIP3   OH242713   0.338   0.143   4.958 -0.4379 -0.4139  0.1141
 6173TIP3    H142714   0.336   0.225   5.008  0.3453  0.3673 -1.0893
 6173TIP3    H242715   0.419   0.101   4.985 -0.5380 -0.5063  0.2753
 6174TIP3   OH242716   3.936   4.004   7.087  0.1950  0.2702 -0.3472
 6174TIP3    H142717   3.914   3.957   7.168  1.5185 -1.8549 -1.1235
 6174TIP3    H242718   3.991   3.942   7.038  1.6823  2.5165 -1.6820
 6175TIP3   OH242719   2.393   6.569   6.151 -0.0256 -0.0645  0.8623
 6175TIP3    H142720   2.347   6.499   6.103 -0.1148 -0.6992  1.8519
 6175TIP3    H242721   2.424   6.628   6.082  2.1515 -2.3021 -0.2192
 6176TIP3   OH242722   0.797   5.611   5.317 -0.1339 -0.1825  0.3433
 6176TIP3    H142723   0.881   5.657   5.321 -0.6203  0.8944 -0.9080
 6176TIP3    H242724   0.759   5.622   5.404  0.7747 -0.1765  0.7398
 6177TIP3   OH242725   1.944   3.207   6.420  0.1046 -1.0416 -0.0003
 6177TIP3    H142726   2.027   3.233   6.461  0.3316 -1.1618 -0.3779
 6177TIP3    H242727   1.907   3.143   6.481  1.8491 -3.4809 -1.3138
 6178TIP3   OH242728   7.089   1.332   5.971 -0.0575 -0.6005 -0.2450
 6178TIP3    H142729   7.122   1.355   5.884 -1.6069 -1.6737 -1.1595
 6178TIP3    H242730   7.168   1.327   6.025  1.2165 -2.0739 -2.0934
 6179TIP3   OH242731   1.379   6.845   7.151  0.7340 -0.3453  0.5399
 6179TIP3    H142732   1.453   6.799   7.190 -0.4171  0.1531  3.6376
 6179TIP3    H242733   1.303   6.814   7.202 -0.8764  0.7453 -1.0886
 6180TIP3   OH242734   1.321   4.373   5.098 -0.0730  0.1843 -0.8228
 6180TIP3    H142735   1.288   4.452   5.055  0.8460  1.4263  0.6434
 6180TIP3    H242736   1.251   4.346   5.157  0.4279  1.2602  0.3194
 6181TIP3   OH242737   3.543   7.172   6.034 -0.3026  0.1543 -0.1664
 6181TIP3    H142738   3.449   7.189   6.021 -0.6742 -1.8017 -0.2977
 6181TIP3    H242739   3.574   7.249   6.082 -2.5803 -0.3369  2.3882
 6182TIP3   OH242740   5.857   0.331   6.923 -0.1895 -0.1828 -0.1381
 6182TIP3    H142741   5.859   0.319   7.018 -0.5688  0.5069 -0.0348
 6182TIP3    H242742   5.766   0.315   6.899 -0.1394 -0.1477 -0.3534
 6183TIP3   OH242743   1.325   0.481   6.354 -0.0216 -0.1492  0.0735
 6183TIP3    H142744   1.389   0.424   6.313 -1.1010 -1.5114  0.2182
 6183TIP3    H242745   1.305   0.547   6.288 -0.5035 -1.3320 -0.9757
 6184TIP3   OH242746   4.746   2.004   6.188 -0.1583  0.2795  0.2959
 6184TIP3    H142747   4.689   1.929   6.171 -1.0106  0.3953  2.3840
 6184TIP3    H242748   4.744   2.055   6.106 -1.1519 -0.9363 -0.4683
 6185TIP3   OH242749   0.180   0.933   6.038  0.8636 -0.0672 -0.2430
 6185TIP3    H142750   0.154   0.942   6.130  0.3244 -1.4107 -0.2355
 6185TIP3    H242751   0.233   0.854   6.036 -0.8245 -1.2444 -1.3807
 6186TIP3   OH242752   3.544   6.275   7.047  0.1486  0.1285 -0.2979
 6186TIP3    H142753   3.528   6.188   7.081  0.5380  0.9804  2.2386
 6186TIP3    H242754   3.464   6.324   7.066 -0.2107  0.2879 -2.0227
 6187TIP3   OH242755   1.712   3.357   5.755  0.1349  0.0684  0.0073
 6187TIP3    H142756   1.755   3.400   5.829  0.9650 -1.3949  0.4092
 6187TIP3    H242757   1.765   3.381   5.679  0.7290 -0.4137  0.2636
 6188TIP3   OH242758   6.772   7.516   4.959 -0.1601 -0.1988  0.0417
 6188TIP3    H142759   6.710   7.447   4.980  1.9560 -1.8007  1.3720
 6188TIP3    H242760   6.804   7.494   4.872 -0.4214 -0.1381 -0.0730
 6189TIP3   OH242761   0.387   4.619   7.181 -0.0735 -0.2231  0.0546
 6189TIP3    H142762   0.397   4.528   7.211  0.2584 -0.5324 -0.9692
 6189TIP3    H242763   0.389   4.613   7.086  0.9980  0.9629 -0.0199
 6190TIP3   OH242764   6.314   1.593   6.257  0.2911  0.0046  0.2301
 6190TIP3    H142765   6.332   1.499   6.266 -1.6722 -0.5488 -0.8504
 6190TIP3    H242766   6.235   1.607   6.310  0.8763  1.1773  0.8198
 6191TIP3   OH242767   3.880   5.279   5.023  0.1968 -0.1897 -0.2443
 6191TIP3    H142768   3.965   5.291   4.981  0.2214  0.2610 -0.0775
 6191TIP3    H242769   3.894   5.207   5.085  0.8682  0.8413  0.8391
 6192TIP3   OH242770   7.344   0.919   5.028 -0.2237 -0.6983  1.0160
 6192TIP3    H142771   7.269   0.962   4.988  0.8980  0.9171  0.5278
 6192TIP3    H242772   7.325   0.919   5.122 -0.7303 -0.0940  0.9168
 6193TIP3   OH242773   0.175   0.116   6.334 -0.1730  0.5950 -0.2689
 6193TIP3    H142774   0.239   0.074   6.392  0.7420  0.7354 -1.1651
 6193TIP3    H242775   0.128   0.043   6.294 -0.7313  0.4945  0.5569
 6194TIP3   OH242776   3.366   0.086   5.118  0.1047  0.2676  0.4521
 6194TIP3    H142777   3.310   0.106   5.192  0.8209 -0.0521  1.0978
 6194TIP3    H242778   3.446   0.136   5.134  0.0524  0.6460 -0.4017
 6195TIP3   OH242779   2.895   0.626   6.539 -0.3607 -0.5744  0.3376
 6195TIP3    H142780   2.854   0.574   6.608 -1.6294 -0.1531 -0.0749
 6195TIP3    H242781   2.988   0.604   6.545 -0.5747 -1.2388  1.5726
 6196TIP3   OH242782   1.034   6.107   4.659 -0.0651 -0.0365  0.2009
 6196TIP3    H142783   0.939   6.101   4.652 -0.0768 -0.2162  0.5113
 6196TIP3    H242784   1.058   6.180   4.602 -0.5803  1.3799  1.7316
 6197TIP3   OH242785   1.372   5.911   4.728 -0.0233  1.1788 -0.2221
 6197TIP3    H142786   1.381   5.825   4.770  0.3530  1.0228 -0.6208
 6197TIP3    H242787   1.352   5.891   4.637 -0.6236  1.5224 -0.1740
 6198TIP3   OH242788   2.909   7.134   7.273 -0.1508  0.0000 -0.0063
 6198TIP3    H142789   2.890   7.049   7.234  1.1302  0.0139 -0.7041
 6198TIP3    H242790   2.827   7.183   7.266 -0.4988 -0.6931 -0.8653
 6199TIP3   OH242791   2.918   4.743   5.430 -0.1672  0.2474  0.0427
 6199TIP3    H142792   2.875   4.762   5.347 -0.6360 -0.5473  0.0900
 6199TIP3    H242793   2.881   4.659   5.458  0.1201  0.4080  0.9607
 6200TIP3   OH242794   3.877   2.204   7.532 -0.6228 -0.1910  0.1294
 6200TIP3    H142795   3.954   2.169   7.487  0.9114  1.7439  1.0620
 6200TIP3    H242796   3.853   2.136   7.595  0.7215 -0.6056  0.2240
 6201TIP3   OH242797   7.502   1.686   6.462  0.2576  0.5861  0.0466
 6201TIP3    H142798   7.511   1.607   6.516  1.1889  0.5404 -0.1725
 6201TIP3    H242799   7.520   1.758   6.522 -1.0103  0.6739  0.3518
 6202TIP3   OH242800   1.168   2.913   5.677 -0.4484  0.6968 -0.0933
 6202TIP3    H142801   1.233   2.964   5.629 -0.4404  0.7675 -0.0072
 6202TIP3    H242802   1.122   2.864   5.609  0.3439 -0.1048 -0.0623
 6203TIP3   OH242803   6.584   3.723   5.856  0.3534  0.2371  0.1879
 6203TIP3    H142804   6.536   3.795   5.897 -1.4736 -0.3831 -0.7544
 6203TIP3    H242805   6.561   3.727   5.764  0.4813 -1.3345  0.0492
 6204TIP3   OH242806   1.358   4.538   6.301  0.0086  0.0539 -0.0076
 6204TIP3    H142807   1.336   4.459   6.253  0.3690 -0.6167  0.9116
 6204TIP3    H242808   1.312   4.608   6.254 -2.7600 -1.0583  0.8766
 6205TIP3   OH242809   7.120   5.777   6.608 -0.5762  0.1649  0.0074
 6205TIP3    H142810   7.214   5.795   6.616 -0.6420  0.8827 -0.7398
 6205TIP3    H242811   7.091   5.759   6.698 -0.0072  1.3924  0.4559
 6206TIP3   OH242812   7.073   0.210   5.314  0.0011  0.3783  0.2318
 6206TIP3    H142813   7.083   0.168   5.229  4.1963 -0.1731  0.8260
 6206TIP3    H242814   7.039   0.141   5.371 -2.6638  0.7020 -0.8017
 6207TIP3   OH242815   5.520   3.409   6.976 -0.4953 -0.1367  0.8437
 6207TIP3    H142816   5.434   3.373   6.954 -0.5615  0.1489  0.6453
 6207TIP3    H242817   5.501   3.490   7.023 -0.3307  0.1996  0.3387
 6208TIP3   OH242818   2.506   1.540   4.934 -0.2732 -0.1531  0.1112
 6208TIP3    H142819   2.436   1.509   4.877  1.2989 -0.9533 -1.5053
 6208TIP3    H242820   2.500   1.486   5.013 -1.7713  0.1682  0.2403
 6209TIP3   OH242821   5.245   1.297   7.527  0.0551 -0.7334 -0.0076
 6209TIP3    H142822   5.277   1.224   7.581  1.6484  0.4566  0.7704
 6209TIP3    H242823   5.190   1.256   7.461  1.1323 -2.6786  0.2197
 6210TIP3   OH242824   5.512   2.262   5.235 -0.4915  0.4370  0.3476
 6210TIP3    H142825   5.423   2.280   5.206 -1.4001  0.4372  2.9183
 6210TIP3    H242826   5.535   2.180   5.192 -2.1489 -0.1382  0.4925
 6211TIP3   OH242827   3.077   4.903   5.202  0.1267 -0.4735  0.0926
 6211TIP3    H142828   2.985   4.912   5.177 -0.1505 -0.5452  1.0500
 6211TIP3    H242829   3.077   4.915   5.297  1.6080  3.4130 -0.2123
 6212TIP3   OH242830   5.228   3.226   4.946  0.0992 -0.1922  0.0424
 6212TIP3    H142831   5.271   3.222   5.031  1.5439 -2.5516 -0.7023
 6212TIP3    H242832   5.199   3.137   4.929 -0.4340  0.2807 -1.7939
 6213TIP3   OH242833   4.346   5.787   5.727  0.3491  0.6009 -0.1436
 6213TIP3    H142834   4.281   5.816   5.792  0.5801 -0.9586  0.8379
 6213TIP3    H242835   4.298   5.788   5.644  0.2206  3.2532 -0.1309
 6214TIP3   OH242836   3.211   4.251   6.362 -0.2786  0.5219  0.1406
 6214TIP3    H142837   3.161   4.316   6.413 -0.5158  0.3287  0.1561
 6214TIP3    H242838   3.262   4.303   6.301 -0.6306  0.7157  0.0085
 6215TIP3   OH242839   5.671   0.797   6.795 -0.0225  0.2061 -0.0065
 6215TIP3    H142840   5.729   0.805   6.719 -0.4747 -0.1923 -0.4019
 6215TIP3    H242841   5.606   0.866   6.783  0.4012  0.6911  0.4685
 6216TIP3   OH242842   6.594   6.804   5.265  0.3874  0.3061 -0.1408
 6216TIP3    H142843   6.609   6.713   5.292  0.9095  0.2662 -0.5432
 6216TIP3    H242844   6.658   6.854   5.315  2.2804  0.0894 -2.1839
 6217TIP3   OH242845   2.136   6.586   6.235  0.3430  0.1072  0.0285
 6217TIP3    H142846   2.225   6.607   6.209 -0.1981 -0.2894 -2.3458
 6217TIP3    H242847   2.131   6.491   6.228 -0.4639  0.1854 -0.6129
 6218TIP3   OH242848   3.078   5.375   6.231 -0.2443  0.0124  0.5323
 6218TIP3    H142849   3.106   5.299   6.179  3.2191  0.8420  0.9729
 6218TIP3    H242850   3.081   5.344   6.322  0.1883  0.4048  0.6506
 6219TIP3   OH242851   0.819   7.631   4.878  0.3008  0.1613 -0.0781
 6219TIP3    H142852   0.763   7.572   4.829  0.6509 -1.0427  0.9101
 6219TIP3    H242853   0.881   7.574   4.923  1.6584  1.3801 -0.3039
 6220TIP3   OH242854   3.452   4.344   7.307  0.1531  0.5822  0.1878
 6220TIP3    H142855   3.507   4.283   7.259 -1.5914  1.3735 -3.0713
 6220TIP3    H242856   3.417   4.293   7.380  2.2033 -0.9467  0.1754
 6221TIP3   OH242857   0.616   5.007   4.346  0.4796  0.0299  0.4123
 6221TIP3    H142858   0.544   4.996   4.284 -0.4312  0.1180  1.4252
 6221TIP3    H242859   0.619   4.924   4.394 -1.2441  1.2161  2.7236
 6222TIP3   OH242860   5.067   6.550   5.724 -0.0967 -0.0008  0.1441
 6222TIP3    H142861   5.039   6.558   5.633  0.2348 -2.3470 -0.2184
 6222TIP3    H242862   5.162   6.535   5.719 -0.4984 -3.5675  0.5418
 6223TIP3   OH242863   2.261   1.123   6.218 -0.4977 -0.3747  0.1535
 6223TIP3    H142864   2.268   1.217   6.234  0.3576 -0.5163  0.7008
 6223TIP3    H242865   2.188   1.095   6.274 -1.2967  0.0887 -0.6411
 6224TIP3   OH242866   6.914   7.664   5.858  0.2636 -0.4435  0.7469
 6224TIP3    H142867   6.827   7.689   5.829  0.5564  0.1593  0.3784
 6224TIP3    H242868   6.904   7.647   5.952 -0.4285 -1.2378  0.5404
 6225TIP3   OH242869   2.793   3.113   4.743 -0.2188  0.3989 -0.3309
 6225TIP3    H142870   2.703   3.141   4.756 -0.0175  0.5089  0.9987
 6225TIP3    H242871   2.790   3.018   4.747 -0.3166  0.3935 -0.5505
 6226TIP3   OH242872   1.970   0.752   6.996 -0.0670  0.6459  0.1266
 6226TIP3    H142873   1.894   0.794   6.956  1.3226  1.2428 -2.0729
 6226TIP3    H242874   2.038   0.755   6.929  1.3265 -1.6588  1.2760
 6227TIP3   OH242875   4.744   5.153   6.524  0.2293 -0.1035  0.2449
 6227TIP3    H142876   4.765   5.222   6.461  0.7529  1.3568  1.9275
 6227TIP3    H242877   4.679   5.099   6.479  0.7941  0.6878 -1.6400
 6228TIP3   OH242878   0.192   1.039   5.125 -0.3248 -0.1317 -0.7364
 6228TIP3    H142879   0.255   1.012   5.058  0.5026  0.8908 -0.3958
 6228TIP3    H242880   0.135   0.963   5.136  0.7912 -1.0577 -1.1269
 6229TIP3   OH242881   1.509   7.338   5.521  0.4307 -0.0888  0.4253
 6229TIP3    H142882   1.518   7.280   5.445 -0.4571  0.3681 -0.0414
 6229TIP3    H242883   1.590   7.326   5.569  0.2739 -1.7525  0.3589
 6230TIP3   OH242884   0.014   4.400   4.864  0.6047  0.1984  0.1627
 6230TIP3    H142885   0.108   4.383   4.857  0.2480 -1.4126 -1.4233
 6230TIP3    H242886  -0.028   4.327   4.818 -1.4758  0.4370  1.5303
 6231TIP3   OH242887   2.999   2.540   6.728  0.1788 -0.0330 -1.3272
 6231TIP3    H142888   3.010   2.635   6.714  2.0998 -0.2474 -1.6369
 6231TIP3    H242889   3.022   2.527   6.820 -0.4781 -0.1555 -1.1778
 6232TIP3   OH242890   1.198   4.888   7.177  0.0841 -0.0603 -0.1879
 6232TIP3    H142891   1.159   4.928   7.099  0.3049  1.6756  0.5373
 6232TIP3    H242892   1.292   4.885   7.158  0.1646  0.5736  0.0781
 6233TIP3   OH242893   6.934   3.571   6.852  0.9259 -0.5379 -0.5482
 6233TIP3    H142894   6.864   3.606   6.908  0.2312 -1.3371 -0.9025
 6233TIP3    H242895   7.005   3.552   6.912  1.0678  0.8247 -0.2525
 6234TIP3   OH242896   7.426   6.772   6.431  0.0330  0.0577  0.0326
 6234TIP3    H142897   7.370   6.817   6.495  0.4399  1.2555 -0.4193
 6234TIP3    H242898   7.512   6.770   6.473  0.0183 -0.3024  0.0469
 6235TIP3   OH242899   2.705   5.532   6.472  0.2988 -0.1872 -0.2619
 6235TIP3    H142900   2.618   5.571   6.473  0.5125  0.2879  0.0092
 6235TIP3    H242901   2.739   5.546   6.561  0.3758 -0.9957 -0.1558
 6236TIP3   OH242902   1.446   0.932   5.693 -0.4054  0.3743  0.0753
 6236TIP3    H142903   1.386   0.890   5.632 -0.6560  0.6777  0.1137
 6236TIP3    H242904   1.528   0.884   5.682 -0.8160 -0.4585  0.4685
 6237TIP3   OH242905   6.741   5.424   6.474  0.3649  0.2017 -0.2570
 6237TIP3    H142906   6.795   5.373   6.414  1.5887  1.6381 -0.4156
 6237TIP3    H242907   6.759   5.387   6.560 -0.5393 -1.1238 -0.5955
 6238TIP3   OH242908   7.512   7.220   7.082  0.2053 -0.1357 -0.1665
 6238TIP3    H142909   7.560   7.293   7.121 -0.1603  1.1660 -2.0159
 6238TIP3    H242910   7.485   7.166   7.156 -0.4370  2.1765  1.3611
 6239TIP3   OH242911   0.545   5.016   6.899 -0.3720 -0.3700  0.4022
 6239TIP3    H142912   0.499   5.016   6.983 -1.7883 -0.9880 -0.3398
 6239TIP3    H242913   0.489   4.964   6.841  0.6830 -0.1387 -0.8673
 6240TIP3   OH242914   1.761   3.959   5.473 -0.1497  0.2037 -0.2955
 6240TIP3    H142915   1.687   3.907   5.504  2.0550 -3.1510 -0.1699
 6240TIP3    H242916   1.771   4.027   5.539 -1.2390 -1.1461  1.3614
 6241TIP3   OH242917   5.715   4.045   4.895  0.0603 -0.4146  0.3514
 6241TIP3    H142918   5.704   4.082   4.808 -3.3983 -0.0644  0.7990
 6241TIP3    H242919   5.759   4.113   4.945  0.6524  0.0006 -0.6986
 6242TIP3   OH242920   6.459   1.344   7.170 -0.1666 -0.8187  0.1860
 6242TIP3    H142921   6.399   1.412   7.138  0.2384 -0.3419  0.4303
 6242TIP3    H242922   6.526   1.392   7.218  0.2038 -1.3837  0.2387
 6243TIP3   OH242923   5.018   5.151   6.722  0.0622  0.3803  0.0148
 6243TIP3    H142924   4.974   5.123   6.802  2.2040 -1.3574  0.6778
 6243TIP3    H242925   5.058   5.071   6.687 -1.1235  0.9751 -3.0749
 6244TIP3   OH242926   1.151   1.046   5.014 -0.2509  0.1970 -0.2786
 6244TIP3    H142927   1.101   0.965   5.006 -0.4870  0.2748  0.3228
 6244TIP3    H242928   1.097   1.112   4.970 -1.0296  0.4174  0.9542
 6245TIP3   OH242929   4.168   1.522   6.802  0.7331 -0.0897 -0.3535
 6245TIP3    H142930   4.215   1.442   6.826 -0.3802 -1.6531 -2.9142
 6245TIP3    H242931   4.218   1.558   6.729  1.2055  1.6251  0.7470
 6246TIP3   OH242932   1.970   4.049   5.247 -0.6378  0.3533 -0.5462
 6246TIP3    H142933   1.933   4.112   5.309 -2.9627  1.2247 -2.6284
 6246TIP3    H242934   1.897   4.027   5.189  1.5778  0.3702 -3.5632
 6247TIP3   OH242935   3.964   5.566   6.424  0.2317 -0.0839 -0.0401
 6247TIP3    H142936   3.873   5.593   6.437 -0.0502 -1.1595  0.3436
 6247TIP3    H242937   3.998   5.554   6.513  0.4600 -0.5809 -0.1921
 6248TIP3   OH242938   0.456   0.818   6.555  0.5906  0.2297  0.2750
 6248TIP3    H142939   0.393   0.858   6.494  0.8174  0.5895  0.2747
 6248TIP3    H242940   0.462   0.727   6.527 -1.4698 -0.3710  1.4865
 6249TIP3   OH242941   0.203   5.467   6.016 -0.0092 -0.4007  0.0870
 6249TIP3    H142942   0.136   5.498   6.076  0.1036 -0.6748  0.3545
 6249TIP3    H242943   0.269   5.536   6.015 -0.2121 -0.2091 -0.0458
 6250TIP3   OH242944   0.527   7.223   5.362  0.0489 -0.2279 -0.0196
 6250TIP3    H142945   0.618   7.199   5.343  0.1609 -0.5057  0.8217
 6250TIP3    H242946   0.519   7.313   5.331  0.8420  0.0571  0.5666
 6251TIP3   OH242947   6.301   5.037   6.341 -0.5925  0.6541  0.4268
 6251TIP3    H142948   6.351   5.119   6.331 -3.2516  2.3221 -0.2331
 6251TIP3    H242949   6.253   5.048   6.424  0.9217 -1.4371  1.6845
 6252TIP3   OH242950   1.300   2.842   5.901  0.5124  0.1529 -0.4793
 6252TIP3    H142951   1.272   2.863   5.812  1.3505 -0.0274 -0.7867
 6252TIP3    H242952   1.368   2.776   5.891  0.8687  0.3922  0.2725
 6253TIP3   OH242953   6.484   2.120   6.561 -0.2400  0.2126  0.2149
 6253TIP3    H142954   6.554   2.167   6.517 -0.0230 -0.2341  0.0745
 6253TIP3    H242955   6.481   2.157   6.649  0.5016 -0.0999  0.3782
 6254TIP3   OH242956   1.089   5.425   6.961 -0.6604  0.3220 -0.4387
 6254TIP3    H142957   1.087   5.505   7.013 -0.4524  0.7868 -1.1262
 6254TIP3    H242958   1.157   5.371   7.002 -0.1280  0.9029 -0.5474
 6255TIP3   OH242959   3.627   3.334   6.121 -0.5378 -0.1109 -0.4910
 6255TIP3    H142960   3.536   3.341   6.092 -0.6774 -0.5338 -0.1679
 6255TIP3    H242961   3.637   3.405   6.185 -0.1235  1.0528 -1.8070
 6256TIP3   OH242962   3.521   5.841   6.738  0.0170 -0.0258 -0.1339
 6256TIP3    H142963   3.566   5.840   6.823 -0.2353  0.7934  0.0171
 6256TIP3    H242964   3.547   5.758   6.696  1.3119  0.2235  0.1310
 6257TIP3   OH242965   7.448   1.031   6.881 -0.0564  0.1936 -0.1701
 6257TIP3    H142966   7.510   0.960   6.897  0.6649 -0.0896 -3.3970
 6257TIP3    H242967   7.362   0.991   6.890  0.3356 -0.8352 -0.8778
 6258TIP3   OH242968   1.176   6.274   4.855 -0.1944  0.0887  0.5561
 6258TIP3    H142969   1.221   6.300   4.774 -0.5938  1.4125  0.7379
 6258TIP3    H242970   1.146   6.185   4.838 -1.7075  0.9071 -1.4096
 6259TIP3   OH242971   1.173   7.499   4.823 -0.3105  0.2635  0.6172
 6259TIP3    H142972   1.194   7.582   4.867  0.6184 -0.0201  0.7218
 6259TIP3    H242973   1.101   7.463   4.874 -1.4497  1.5122 -0.0527
 6260TIP3   OH242974   4.200   0.273   7.270 -0.2093  0.3969  0.7057
 6260TIP3    H142975   4.223   0.361   7.239 -2.1166  0.6132 -0.2612
 6260TIP3    H242976   4.271   0.217   7.240 -0.2811  1.1856 -1.0460
 6261TIP3   OH242977   1.594   0.106   4.508 -0.2485  0.7415  0.2117
 6261TIP3    H142978   1.538   0.065   4.574 -0.7152  2.4793  0.9366
 6261TIP3    H242979   1.565   0.069   4.425 -0.6878 -0.3271  0.8185
 6262TIP3   OH242980   6.464   2.759   5.501 -0.6138  0.4103  0.2846
 6262TIP3    H142981   6.525   2.744   5.429 -0.4972  2.4942 -0.1086
 6262TIP3    H242982   6.385   2.713   5.475 -0.3802  0.6512 -0.9138
 6263TIP3   OH242983   1.328   7.342   6.213 -0.0339  0.2522 -0.3547
 6263TIP3    H142984   1.303   7.394   6.137 -0.3542  2.3372  1.0952
 6263TIP3    H242985   1.422   7.356   6.222  0.1786 -0.7419 -0.8675
 6264TIP3   OH242986   2.143   0.468   6.732  0.1965 -0.1434 -1.0624
 6264TIP3    H142987   2.177   0.557   6.730 -2.4741  0.9637 -0.8162
 6264TIP3    H242988   2.051   0.476   6.709 -1.1074 -2.3135  2.4871
 6265TIP3   OH242989   7.660   5.331   7.438 -1.1586  0.4370  0.3433
 6265TIP3    H142990   7.734   5.392   7.436  0.5284 -1.5045 -0.9943
 6265TIP3    H242991   7.688   5.261   7.497 -2.5075  0.2989  0.8480
 6266TIP3   OH242992   1.451   1.218   4.862 -0.0008  0.3931  0.0774
 6266TIP3    H142993   1.506   1.233   4.785 -1.1724  0.9691 -0.6759
 6266TIP3    H242994   1.472   1.129   4.889 -0.6105 -0.3854 -1.8157
 6267TIP3   OH242995   2.208   4.176   6.520  0.7921 -0.1254  0.7252
 6267TIP3    H142996   2.207   4.227   6.601 -0.0265 -1.8694  1.8713
 6267TIP3    H242997   2.117   4.176   6.491  0.9845 -0.0033  0.0968
 6268TIP3   OH242998   5.089   2.608   5.977 -0.2018 -0.3730 -0.6231
 6268TIP3    H142999   5.096   2.607   5.882 -0.3141  1.2116 -0.6766
 6268TIP3    H243000   5.179   2.599   6.008 -0.2366 -1.7057 -0.8308
 6269TIP3   OH243001   4.436   2.356   5.815 -0.0467  0.3321  0.6165
 6269TIP3    H143002   4.405   2.434   5.861  1.5351  1.4951 -0.2088
 6269TIP3    H243003   4.485   2.390   5.740 -0.9606 -1.4759 -0.8990
 6270TIP3   OH243004   5.091   2.644   5.697  0.2628  0.3393 -0.1931
 6270TIP3    H143005   5.079   2.739   5.689  1.4646  0.5109 -0.2554
 6270TIP3    H243006   5.176   2.628   5.655 -0.2848 -0.8778 -0.8668
 6271TIP3   OH243007   1.702   1.480   4.647 -0.5017  0.5157 -0.3239
 6271TIP3    H143008   1.792   1.512   4.648 -0.0104 -0.8278  0.3276
 6271TIP3    H243009   1.710   1.385   4.654 -1.9962  0.4393  0.7855
 6272TIP3   OH243010   5.562   4.989   6.451 -0.1242  0.5003  0.2557
 6272TIP3    H143011   5.488   4.931   6.435 -1.0004  1.7978 -0.5754
 6272TIP3    H243012   5.638   4.930   6.455 -0.7493 -0.6201 -2.0998
 6273TIP3   OH243013   2.505   2.928   7.171  0.1079  0.2403 -0.4819
 6273TIP3    H143014   2.479   2.887   7.089 -0.7035  0.5038 -0.3730
 6273TIP3    H243015   2.469   3.017   7.166  1.0714  0.6575 -0.3387
 6274TIP3   OH243016   5.699   3.574   6.594  0.3143 -0.1616  0.0683
 6274TIP3    H143017   5.629   3.634   6.620 -0.4502 -0.5347 -1.0329
 6274TIP3    H243018   5.777   3.629   6.586  0.2618  0.2005  1.6735
 6275TIP3   OH243019   0.839   4.538   6.213 -0.5931  0.1865 -0.5743
 6275TIP3    H143020   0.768   4.516   6.153 -0.3894 -1.5458 -0.2295
 6275TIP3    H243021   0.795   4.583   6.286 -1.2763 -0.3404 -0.6447
 6276TIP3   OH243022   6.547   1.439   5.556  0.1597  0.1502 -0.0681
 6276TIP3    H143023   6.502   1.483   5.484 -0.2036  0.3090  0.2564
 6276TIP3    H243024   6.640   1.456   5.539  0.0872  0.0842 -0.5647
 6277TIP3   OH243025   5.204   4.151   4.914 -0.1880 -0.3762 -0.3911
 6277TIP3    H143026   5.170   4.132   4.826 -1.2648  0.7463 -0.2511
 6277TIP3    H243027   5.290   4.190   4.898 -1.0842  1.4418 -1.0945
 6278TIP3   OH243028   3.518   4.759   6.704  0.6018 -0.2122 -0.9603
 6278TIP3    H143029   3.431   4.793   6.727  1.2471  0.7650  0.1650
 6278TIP3    H243030   3.535   4.793   6.617 -0.0395 -0.1968 -1.0870
 6279TIP3   OH243031   6.246   3.667   7.099  0.0893 -0.5072 -0.1504
 6279TIP3    H143032   6.150   3.672   7.103  0.0511  0.0922 -1.3471
 6279TIP3    H243033   6.273   3.756   7.074  1.0586 -0.2846  1.5191
 6280TIP3   OH243034   1.808   3.540   5.921 -0.2552 -0.5087  0.0667
 6280TIP3    H143035   1.903   3.529   5.929 -0.0789 -0.7406 -1.8721
 6280TIP3    H243036   1.779   3.557   6.010  1.2523 -3.1329  1.1758
 6281TIP3   OH243037   2.017   5.919   7.089  0.0877 -0.7333 -0.0742
 6281TIP3    H143038   2.107   5.949   7.076 -0.5758  0.6021 -2.2533
 6281TIP3    H243039   2.025   5.842   7.144  2.4986 -0.2560  0.3810
 6282TIP3   OH243040   6.764   5.718   5.776 -0.4757 -0.0182  0.0377
 6282TIP3    H143041   6.815   5.771   5.837 -2.7329  1.3131  0.8860
 6282TIP3    H243042   6.713   5.781   5.725 -3.2101 -1.2837  1.0250
 6283TIP3   OH243043   5.773   6.336   6.800 -0.0015  0.5146 -0.1317
 6283TIP3    H143044   5.744   6.245   6.787 -0.8210  0.8995 -1.0446
 6283TIP3    H243045   5.813   6.335   6.887  0.1996 -0.7738 -0.2164
 6284TIP3   OH243046   0.095   0.615   7.228  0.2558 -0.0590 -0.0898
 6284TIP3    H143047   0.176   0.564   7.240  0.3843  0.4495  1.4410
 6284TIP3    H243048   0.035   0.580   7.294 -0.7647 -0.3498 -1.1384
 6285TIP3   OH243049   5.167   4.332   5.509  0.0074  0.4703 -0.5688
 6285TIP3    H143050   5.085   4.376   5.484  0.0578  1.6686  1.2054
 6285TIP3    H243051   5.229   4.356   5.440 -1.1952 -0.8239 -2.1909
 6286TIP3   OH243052   5.019   6.869   4.946  0.5544 -0.3537  0.5328
 6286TIP3    H143053   5.036   6.794   4.888  0.3614 -0.3195  0.4320
 6286TIP3    H243054   5.105   6.909   4.959  0.6991 -0.7442  0.7920
 6287TIP3   OH243055   5.400   1.718   5.538  0.0379 -0.1891 -1.0158
 6287TIP3    H143056   5.307   1.716   5.516 -1.7337  2.3985  4.4003
 6287TIP3    H243057   5.411   1.651   5.605  2.0753 -0.1986 -1.2691
 6288TIP3   OH243058   7.540   5.438   5.213  0.1875 -0.4483  0.4356
 6288TIP3    H143059   7.628   5.450   5.176 -0.4427 -1.0445 -1.3875
 6288TIP3    H243060   7.537   5.346   5.238 -0.3864 -0.8243 -0.9262
 6289TIP3   OH243061   3.767   5.495   6.130  0.4699  0.2440  0.7579
 6289TIP3    H143062   3.700   5.553   6.165  0.1706 -0.0320  0.6495
 6289TIP3    H243063   3.720   5.415   6.107  0.7393  0.2445  0.1804
 6290TIP3   OH243064   0.606   5.600   6.663 -0.5862  0.0736 -0.0943
 6290TIP3    H143065   0.553   5.538   6.714 -0.8648  0.1586 -0.2733
 6290TIP3    H243066   0.672   5.632   6.724 -0.2256 -0.6542 -0.0908
 6291TIP3   OH243067   2.162   0.014   6.779  0.1816 -0.0010  0.6279
 6291TIP3    H143068   2.105   0.044   6.708  1.3472 -2.2821 -1.4001
 6291TIP3    H243069   2.103  -0.031   6.839 -0.5389  0.1813  0.0777
 6292TIP3   OH243070   0.837   4.929   6.608 -0.0455  0.2026 -0.2680
 6292TIP3    H143071   0.841   5.015   6.650  0.9788 -0.8757  2.0421
 6292TIP3    H243072   0.769   4.882   6.657  1.6522 -1.3258  0.7449
 6293TIP3   OH243073   6.149   5.106   6.561  0.1456  0.8285 -0.1282
 6293TIP3    H143074   6.125   5.051   6.636  2.0312  0.2250  0.0931
 6293TIP3    H243075   6.129   5.196   6.590 -1.1017  0.4428  0.2675
 6294TIP3   OH243076   3.479   1.877   5.376  0.2457 -0.7449  0.1500
 6294TIP3    H143077   3.547   1.877   5.309  1.0218  1.2026  0.8765
 6294TIP3    H243078   3.445   1.966   5.376 -0.7105 -1.0746  1.3951
 6295TIP3   OH243079   4.029   1.864   7.278 -0.2162  0.0875 -0.5037
 6295TIP3    H143080   3.953   1.884   7.333 -0.0243  1.1315 -0.6028
 6295TIP3    H243081   4.105   1.887   7.332 -0.0385  1.7150 -1.4079
 6296TIP3   OH243082   0.263   6.001   7.132 -0.2170 -0.3731  0.1722
 6296TIP3    H143083   0.179   6.042   7.111 -0.3186 -0.7588 -0.1912
 6296TIP3    H243084   0.269   5.928   7.071  1.2969  0.8190 -1.1970
 6297TIP3   OH243085   4.797   2.479   6.855  0.4590 -0.7175  0.1691
 6297TIP3    H143086   4.767   2.544   6.919  1.6531 -0.1406  0.1699
 6297TIP3    H243087   4.826   2.405   6.908 -1.7916 -1.6999  0.1395
 6298TIP3   OH243088   2.987   6.791   6.498 -0.3001  0.2716 -0.7243
 6298TIP3    H143089   2.943   6.711   6.467 -1.3617  1.3214 -2.0606
 6298TIP3    H243090   3.010   6.837   6.417 -0.9755  1.9811  0.0167
 6299TIP3   OH243091   3.952   0.004   5.223 -0.2433 -0.2383 -0.1667
 6299TIP3    H143092   3.969  -0.088   5.203  1.7253  0.3893 -1.6122
 6299TIP3    H243093   3.858   0.014   5.206 -0.1624 -1.5847 -1.7070
 6300TIP3   OH243094   2.087   0.300   6.311  0.0305  0.2287  0.2290
 6300TIP3    H143095   2.132   0.321   6.230  2.5201 -0.5280  1.3198
 6300TIP3    H243096   2.157   0.291   6.376 -1.5843 -2.0245  1.8219
 6301TIP3   OH243097   2.430   7.369   5.086  0.2688  0.1320 -0.3359
 6301TIP3    H143098   2.411   7.460   5.108  0.3472  0.5094 -1.7609
 6301TIP3    H243099   2.387   7.355   5.001 -0.4488 -1.4151  0.2457
 6302TIP3   OH243100   4.285   4.420   5.307  0.3293 -0.0636 -0.2494
 6302TIP3    H143101   4.260   4.402   5.216 -0.8973  0.0415  0.0592
 6302TIP3    H243102   4.215   4.382   5.359  1.9920 -1.9333  0.7767
 6303TIP3   OH243103   7.252   2.512   6.165 -0.1755 -0.2547  0.5167
 6303TIP3    H143104   7.170   2.540   6.124  0.2579 -0.7863 -0.7665
 6303TIP3    H243105   7.227   2.435   6.216 -0.5298 -0.2885  0.3000
 6304TIP3   OH243106   5.550   4.772   5.991 -0.0986  0.5850 -0.3578
 6304TIP3    H143107   5.603   4.717   6.049 -1.1855 -0.1808 -0.0775
 6304TIP3    H243108   5.473   4.720   5.971 -1.7000  2.3805  0.7728
 6305TIP3   OH243109   6.143   5.543   5.890 -0.5288 -0.0853 -0.4578
 6305TIP3    H143110   6.194   5.530   5.810 -0.5815 -1.4859 -0.2922
 6305TIP3    H243111   6.205   5.579   5.953 -0.5251  1.1761 -1.1652
 6306TIP3   OH243112   2.944   5.788   6.908 -0.4967  0.0606  0.0233
 6306TIP3    H143113   3.001   5.864   6.902 -1.4412  0.7197 -1.0084
 6306TIP3    H243114   2.898   5.799   6.992  0.8667 -0.4967  0.8766
 6307TIP3   OH243115   0.192   6.536   5.321  0.0718  0.1903  0.7574
 6307TIP3    H143116   0.203   6.589   5.400 -0.6166  0.6930  0.5242
 6307TIP3    H243117   0.131   6.587   5.266 -1.4170 -1.3047  0.9580
 6308TIP3   OH243118   5.222   3.187   5.471 -0.7142  0.0149  0.3452
 6308TIP3    H143119   5.317   3.188   5.480 -0.5837 -0.0934 -0.8763
 6308TIP3    H243120   5.190   3.174   5.560  0.3431  1.9666  1.0845
 6309TIP3   OH243121   1.953   1.856   4.695  0.3700  0.1447  0.2433
 6309TIP3    H143122   1.879   1.917   4.696 -1.3048 -1.7565 -1.1108
 6309TIP3    H243123   1.996   1.870   4.779 -1.8108  0.9768  1.3065
 6310TIP3   OH243124   3.526   5.656   6.149  0.2511  0.1866 -0.8697
 6310TIP3    H143125   3.548   5.690   6.063 -1.0582 -1.7411 -2.0318
 6310TIP3    H243126   3.444   5.609   6.137  0.3257 -0.6398  1.2960
 6311TIP3   OH243127   5.116   6.230   6.731  0.2995  0.5603 -0.3684
 6311TIP3    H143128   5.098   6.319   6.761  0.2503 -0.3639  2.7143
 6311TIP3    H243129   5.210   6.229   6.714  0.2852  1.2183 -0.4879
 6312TIP3   OH243130   4.751   4.608   5.338  0.3124 -0.5187 -0.1496
 6312TIP3    H143131   4.795   4.692   5.350 -0.2210 -0.1940 -0.4191
 6312TIP3    H243132   4.751   4.593   5.243  2.1751 -1.8051 -0.0055
 6313TIP3   OH243133   2.695   2.594   5.383 -0.3630 -0.5344  0.0624
 6313TIP3    H143134   2.618   2.601   5.327  0.0756 -1.7278 -0.7101
 6313TIP3    H243135   2.733   2.682   5.383 -1.1469 -0.1880 -0.3785
 6314TIP3   OH243136   0.039   3.019   6.300 -0.2653  0.5566 -0.4685
 6314TIP3    H143137   0.058   2.988   6.211  0.2392  0.0272 -0.1878
 6314TIP3    H243138  -0.055   3.004   6.311 -0.2766  0.3613 -0.8091
 6315TIP3   OH243139   0.872   7.036   6.681  0.0799 -0.1646 -0.1940
 6315TIP3    H143140   0.957   7.056   6.719 -0.0249 -0.5891  0.2759
 6315TIP3    H243141   0.875   6.941   6.664  0.3434  0.0886 -1.7945
 6316TIP3   OH243142   5.325   4.563   5.941 -0.0356  0.1216  0.6407
 6316TIP3    H143143   5.328   4.509   5.863  0.2767  0.2914  0.5321
 6316TIP3    H243144   5.234   4.561   5.969 -0.5676  1.6352 -0.8341
 6317TIP3   OH243145   6.217   1.933   5.759 -0.2266  0.3202 -0.0443
 6317TIP3    H143146   6.140   1.924   5.703 -1.1091  2.5225  0.6846
 6317TIP3    H243147   6.182   1.961   5.843  1.2873 -0.0685  0.7469
 6318TIP3   OH243148   7.636   6.182   5.766  0.3347  0.3724  0.3052
 6318TIP3    H143149   7.710   6.226   5.724 -0.2845  0.4945 -0.6802
 6318TIP3    H243150   7.676   6.130   5.836  1.1872  1.6728  0.8300
 6319TIP3   OH243151   3.780   1.854   7.096 -0.4554 -0.0558  0.4047
 6319TIP3    H143152   3.690   1.836   7.068 -0.2501 -1.6448  0.6739
 6319TIP3    H243153   3.782   1.826   7.188 -0.3049  2.2447  1.1668
 6320TIP3   OH243154   1.339   6.592   4.817 -0.1021 -0.0805  0.5132
 6320TIP3    H143155   1.270   6.656   4.836  0.0314  0.0976  0.3982
 6320TIP3    H243156   1.412   6.645   4.785  0.4994 -0.1464  1.7208
 6321TIP3   OH243157   1.704   6.704   8.093 -0.3542  0.2979  0.3101
 6321TIP3    H143158   1.798   6.716   8.109 -0.1013  1.5173 -1.7020
 6321TIP3    H243159   1.680   6.777   8.036 -2.1515 -0.9413 -0.6293
 6322TIP3   OH243160   3.847   6.630   7.420  0.1559 -0.4457  0.2420
 6322TIP3    H143161   3.807   6.642   7.334 -1.0621 -2.5090  0.4737
 6322TIP3    H243162   3.821   6.708   7.470  0.0227  0.2759 -0.9191
 6323TIP3   OH243163   6.648   5.425   4.646  0.1729 -0.5077 -0.1886
 6323TIP3    H143164   6.648   5.335   4.612 -0.2293 -0.4591 -0.3200
 6323TIP3    H243165   6.660   5.480   4.569 -0.0930 -0.4259 -0.1714
 6324TIP3   OH243166   3.013   1.282   6.266  0.2866 -0.0748 -0.1162
 6324TIP3    H143167   2.942   1.287   6.202  2.5901  1.7729 -2.7545
 6324TIP3    H243168   3.073   1.217   6.231  2.6080  2.4451 -1.0903
 6325TIP3   OH243169   4.983   3.562   5.232 -0.1077  0.2305  0.1697
 6325TIP3    H143170   4.990   3.478   5.277  2.2892 -0.5446 -1.4524
 6325TIP3    H243171   4.992   3.628   5.301  0.8422 -0.8879  1.1555
 6326TIP3   OH243172   1.691   3.302   6.402 -0.1689 -0.1953  0.2802
 6326TIP3    H143173   1.732   3.386   6.385 -0.3790 -0.1641 -0.0698
 6326TIP3    H243174   1.764   3.242   6.415  0.0405 -0.4879 -1.9593
 6327TIP3   OH243175   5.531   2.088   6.317 -0.3313  0.6056 -0.1112
 6327TIP3    H143176   5.601   2.117   6.259  1.7360 -0.3173  1.7654
 6327TIP3    H243177   5.472   2.163   6.324  0.0948  1.1904 -2.2623
 6328TIP3   OH243178   3.461   0.987   6.062 -0.8107  0.1480  0.1989
 6328TIP3    H143179   3.424   1.044   6.129 -0.3341  0.6499  0.0441
 6328TIP3    H243180   3.473   1.044   5.986 -0.4525 -0.1884 -0.0006
 6329TIP3   OH243181   4.155   2.372   5.936  0.3279  0.4443 -0.2326
 6329TIP3    H143182   4.217   2.362   6.008  1.1814 -0.9348 -1.1156
 6329TIP3    H243183   4.134   2.465   5.935  0.0470  0.4524  1.9776
 6330TIP3   OH243184   3.294   7.047   6.343 -0.0978  0.5157  0.4494
 6330TIP3    H143185   3.200   7.069   6.347  0.2526  2.3037 -0.0964
 6330TIP3    H243186   3.311   7.001   6.425 -1.7632 -1.2358 -0.1278
 6331TIP3   OH243187   4.348   0.509   7.227 -0.0622 -0.3837 -0.8401
 6331TIP3    H143188   4.432   0.470   7.203  1.2226  1.6331  0.0505
 6331TIP3    H243189   4.372   0.589   7.274 -2.5016  0.3995 -0.7962
 6332TIP3   OH243190   0.531   3.858   6.472  0.3006 -0.0445  0.1452
 6332TIP3    H143191   0.519   3.879   6.565  1.2198 -0.1096  0.2821
 6332TIP3    H243192   0.621   3.883   6.453  0.2327 -0.3799 -0.6360
 6333TIP3   OH243193   7.132   1.530   5.049  0.0225  0.0117  0.2711
 6333TIP3    H143194   7.177   1.452   5.015  1.1497  0.6476  0.2498
 6333TIP3    H243195   7.161   1.601   4.993 -0.3830  0.5785  0.7664
 6334TIP3   OH243196   2.629   3.059   5.181 -0.0488 -0.0410 -0.4048
 6334TIP3    H143197   2.633   3.134   5.241  1.4173  0.7441 -1.4134
 6334TIP3    H243198   2.554   3.077   5.125  1.3941  1.7805 -1.9179
 6335TIP3   OH243199   1.681   6.765   7.732  0.6413 -0.1190  0.5993
 6335TIP3    H143200   1.724   6.682   7.713  0.2728 -0.4495  1.1486
 6335TIP3    H243201   1.743   6.811   7.790  1.2021  0.3447 -0.3552
 6336TIP3   OH243202   2.282   1.308   5.027 -0.5258 -0.1495 -0.0847
 6336TIP3    H143203   2.254   1.315   5.118 -1.3192  0.8301 -0.3920
 6336TIP3    H243204   2.212   1.348   4.976 -0.0041 -0.4995 -1.1258
 6337TIP3   OH243205   4.729   4.255   5.490 -0.5093 -0.0036  0.3258
 6337TIP3    H143206   4.814   4.293   5.514 -0.4516 -1.2096  2.2997
 6337TIP3    H243207   4.737   4.162   5.513 -1.6840 -0.5899 -1.4148
 6338TIP3   OH243208   7.352   2.175   5.733  0.1542 -0.0624  0.5994
 6338TIP3    H143209   7.381   2.221   5.813  2.0138  2.5158 -1.3744
 6338TIP3    H243210   7.320   2.245   5.676 -1.6049 -1.8956 -0.7918
 6339TIP3   OH243211   0.309   6.212   5.892  0.5032  0.3991  0.0259
 6339TIP3    H143212   0.354   6.290   5.924  0.2980  0.3085  0.5421
 6339TIP3    H243213   0.319   6.148   5.963 -1.6367  0.8295  0.7863
 6340TIP3   OH243214   1.558   3.927   6.237 -0.2206  0.1181 -0.0145
 6340TIP3    H143215   1.642   3.971   6.229 -0.7694  1.3882  0.9016
 6340TIP3    H243216   1.507   3.957   6.162 -0.7706  1.5237  0.8743
 6341TIP3   OH243217   0.236   6.011   4.517 -0.0378 -0.0780  0.2574
 6341TIP3    H143218   0.179   6.027   4.592  0.6989  0.3002  0.7485
 6341TIP3    H243219   0.186   5.951   4.461  0.0851 -1.7565  1.8720
 6342TIP3   OH243220   2.709   3.912   5.826 -0.0733 -0.6670  0.0001
 6342TIP3    H143221   2.616   3.896   5.814  0.5620 -2.7739 -3.3724
 6342TIP3    H243222   2.720   4.006   5.810 -1.2607 -0.9996 -3.6152
 6343TIP3   OH243223   6.583   6.279   6.112 -0.0959  0.1102 -0.1269
 6343TIP3    H143224   6.586   6.338   6.187  0.5136  0.1598 -0.1855
 6343TIP3    H243225   6.545   6.198   6.147 -1.7310  0.7950 -0.2453
 6344TIP3   OH243226   3.568   1.792   4.526 -0.0629  0.1125  0.0691
 6344TIP3    H143227   3.630   1.720   4.532 -1.4969 -1.0360  2.5268
 6344TIP3    H243228   3.484   1.750   4.506 -0.3857  1.4647 -1.6410
 6345TIP3   OH243229   6.349   7.441   5.026 -0.1664 -0.2375  0.6087
 6345TIP3    H143230   6.389   7.523   4.999  0.6359 -0.7619  0.1770
 6345TIP3    H243231   6.419   7.376   5.018 -1.4106 -1.4104 -1.3587
 6346TIP3   OH243232   0.006   5.527   6.876  0.3092 -0.0825 -0.4810
 6346TIP3    H143233   0.014   5.575   6.793 -0.3474 -1.6414 -1.4843
 6346TIP3    H243234   0.096   5.524   6.909  0.5112  0.9784 -0.8663
 6347TIP3   OH243235   5.535   1.134   6.570 -0.1543 -0.2150  0.3318
 6347TIP3    H143236   5.566   1.055   6.526  0.6750 -0.4766  1.3551
 6347TIP3    H243237   5.525   1.198   6.499  1.6386 -0.4723 -0.1938
 6348TIP3   OH243238   5.750   2.374   6.833  0.0992  0.1986  0.4157
 6348TIP3    H143239   5.744   2.324   6.752 -0.1917 -1.7965  1.6059
 6348TIP3    H243240   5.825   2.432   6.820 -1.3291  1.6739 -2.1311
 6349TIP3   OH243241   6.649   2.299   6.387  0.2404 -0.0119  0.1851
 6349TIP3    H143242   6.727   2.266   6.343  0.2991 -1.1025  1.0653
 6349TIP3    H243243   6.618   2.370   6.331  0.2193 -1.4302 -1.7133
 6350TIP3   OH243244   0.145   7.533   6.159 -0.2048  0.0022  0.1228
 6350TIP3    H143245   0.097   7.488   6.090  0.6464 -2.0349  0.7879
 6350TIP3    H243246   0.142   7.474   6.234  2.0433  0.4557  0.6534
 6351TIP3   OH243247   2.551   5.308   5.116 -0.3801 -0.0087 -0.0299
 6351TIP3    H143248   2.571   5.391   5.072 -3.0081  1.0873  0.6327
 6351TIP3    H243249   2.509   5.254   5.049 -0.8666  0.1610  0.1313
 6352TIP3   OH243250   1.770   0.270   4.621  0.0843 -0.6146  0.2842
 6352TIP3    H143251   1.699   0.216   4.585  0.4141 -1.6573  1.1618
 6352TIP3    H243252   1.788   0.232   4.706 -0.4005  1.5664  1.4329
 6353TIP3   OH243253   4.039   0.242   7.497 -0.3989  0.1741  0.3265
 6353TIP3    H143254   4.128   0.224   7.469  0.4963 -1.6409  3.6908
 6353TIP3    H243255   4.049   0.303   7.570 -1.8725 -0.0406  0.7408
 6354TIP3   OH243256   5.785   0.111   6.705  0.3930  0.0615 -0.7536
 6354TIP3    H143257   5.764   0.168   6.631  0.6723  0.5337 -0.4774
 6354TIP3    H243258   5.857   0.156   6.750  0.9193 -0.7358 -0.7877
 6355TIP3   OH243259   3.259   0.174   4.700 -0.1117 -0.4670 -0.6139
 6355TIP3    H143260   3.215   0.185   4.785  1.1863  1.4682 -0.1219
 6355TIP3    H243261   3.319   0.101   4.713  1.2363  0.8198  0.6923
 6356TIP3   OH243262   3.264   3.118   5.403  0.3625  0.3514 -0.5935
 6356TIP3    H143263   3.322   3.164   5.341 -0.7740  0.7968 -1.3561
 6356TIP3    H243264   3.184   3.101   5.353 -0.1944 -0.2203  0.4577
 6357TIP3   OH243265   1.279   0.344   5.459  0.0176 -0.1216  0.0435
 6357TIP3    H143266   1.367   0.317   5.432  0.1148 -0.1619  0.3916
 6357TIP3    H243267   1.248   0.402   5.389 -0.3815 -1.4999 -0.9668
 6358TIP3   OH243268   5.929   4.741   4.829 -0.1616 -0.0866  0.2168
 6358TIP3    H143269   5.997   4.796   4.792  0.6857 -0.9958  0.3835
 6358TIP3    H243270   5.975   4.682   4.888 -1.4018  0.9145  2.2923
 6359TIP3   OH243271   3.237   5.898   6.784  0.2530 -0.4519  0.1621
 6359TIP3    H143272   3.227   5.960   6.856  1.4018 -2.4213  2.1381
 6359TIP3    H243273   3.331   5.883   6.779  0.0807 -1.2355 -0.9804
 6360TIP3   OH243274   0.701   3.661   5.332 -0.2850 -0.2517  0.4893
 6360TIP3    H143275   0.726   3.569   5.325 -0.7103 -0.2459 -1.9475
 6360TIP3    H243276   0.778   3.704   5.368  0.2407 -1.4143  0.7995
 6361TIP3   OH243277   2.512   3.480   5.344  0.0132 -0.0909  0.3386
 6361TIP3    H143278   2.487   3.510   5.431 -1.9737 -0.3940 -0.0726
 6361TIP3    H243279   2.564   3.552   5.308  0.0471  0.4442  1.4134
 6362TIP3   OH243280   4.758   4.436   4.794 -0.1124 -0.0302  1.3204
 6362TIP3    H143281   4.849   4.463   4.805 -0.0402  0.3240  0.0020
 6362TIP3    H243282   4.723   4.495   4.727 -1.2372 -0.3336  1.6174
 6363TIP3   OH243283   1.918   4.134   5.919  0.1605  0.4054  0.0430
 6363TIP3    H143284   1.861   4.075   5.968  1.2014 -0.1461  0.5996
 6363TIP3    H243285   1.956   4.192   5.985 -1.0303  1.9049 -0.5129
 6364TIP3   OH243286   3.944   1.041   6.773  0.3858  0.0863 -0.2720
 6364TIP3    H143287   3.990   1.017   6.693  0.0101  0.3543 -0.5697
 6364TIP3    H243288   3.853   1.052   6.746  0.4201  1.1157  0.0076
 6365TIP3   OH243289   6.569   0.900   5.874 -0.0124 -0.1448  0.5147
 6365TIP3    H143290   6.607   0.836   5.934 -0.6061 -0.9741  0.0284
 6365TIP3    H243291   6.641   0.926   5.817  0.1824 -0.5350  0.5852
 6366TIP3   OH243292   3.427   3.817   7.392 -0.3021  0.0099  0.5482
 6366TIP3    H143293   3.365   3.872   7.344  0.5145 -0.8688 -1.6373
 6366TIP3    H243294   3.513   3.844   7.358  0.1151 -2.7316 -0.8354
 6367TIP3   OH243295   3.561   3.454   5.266 -0.2179 -0.0179 -0.0867
 6367TIP3    H143296   3.493   3.390   5.243  0.1448 -0.6387  0.5155
 6367TIP3    H243297   3.529   3.494   5.347 -0.3285  0.3906 -0.3320
 6368TIP3   OH243298   3.581   6.934   6.505 -0.1648  0.6706 -0.4541
 6368TIP3    H143299   3.527   6.855   6.499  1.6815 -0.6994 -0.0292
 6368TIP3    H243300   3.559   6.972   6.590 -1.2399  0.7747 -0.7664
 6369TIP3   OH243301   7.186   7.178   7.465  0.1231 -0.1133 -0.0856
 6369TIP3    H143302   7.167   7.120   7.391  3.6914 -1.6212 -0.0069
 6369TIP3    H243303   7.223   7.256   7.424 -2.3419  1.2035 -0.0274
 6370TIP3   OH243304   5.639   6.868   6.824 -0.0862  0.2897 -0.9708
 6370TIP3    H143305   5.607   6.779   6.842 -0.5008  1.0513  3.3209
 6370TIP3    H243306   5.734   6.861   6.833 -0.1610  0.3218 -0.0017
 6371TIP3   OH243307   4.287   1.620   5.728  0.0244 -0.1069 -0.1177
 6371TIP3    H143308   4.347   1.560   5.684  0.8418  0.8873 -0.3938
 6371TIP3    H243309   4.310   1.614   5.821 -0.1213 -0.4581 -0.1015
 6372TIP3   OH243310   3.605   1.006   7.094  0.0390 -0.5539 -0.1966
 6372TIP3    H143311   3.629   1.090   7.134 -1.9660  0.3003 -0.6305
 6372TIP3    H243312   3.673   0.946   7.121  0.7573  0.8788  1.3673
 6373TIP3   OH243313   0.524   1.051   7.123  0.5953  0.2350  0.7853
 6373TIP3    H143314   0.436   1.019   7.143 -0.6951  2.6594 -0.5725
 6373TIP3    H243315   0.524   1.142   7.152  2.0352  0.8242 -0.8679
 6374TIP3   OH243316   6.235   7.018   4.897  0.2028 -0.4658  0.3468
 6374TIP3    H143317   6.307   6.991   4.839  0.5297  0.3085  0.3853
 6374TIP3    H243318   6.197   7.095   4.854  0.2862 -0.0384  1.0290
 6375TIP3   OH243319   0.300   5.013   5.398 -0.0643  0.5936 -0.4506
 6375TIP3    H143320   0.326   4.974   5.481 -0.7190  0.7971 -0.1435
 6375TIP3    H243321   0.206   5.028   5.407  0.1423  2.1605 -0.5708
 6376TIP3   OH243322   6.060   4.517   6.803  0.3457 -0.4043  0.0510
 6376TIP3    H143323   6.129   4.490   6.864 -0.2968 -0.2210  0.8696
 6376TIP3    H243324   5.981   4.521   6.856  0.0609  1.2872 -0.4535
 6377TIP3   OH243325   2.304   7.636   4.971  0.1270 -0.4215  0.1441
 6377TIP3    H143326   2.224   7.665   4.926 -0.8122 -3.2491 -0.2143
 6377TIP3    H243327   2.279   7.635   5.064 -0.1196 -0.8373  0.0780
 6378TIP3   OH243328   0.231   2.234   6.755 -0.0606  0.1131  0.1741
 6378TIP3    H143329   0.275   2.310   6.717  1.6476  0.4204  2.5639
 6378TIP3    H243330   0.206   2.263   6.843  0.8662 -2.1064  1.2436
 6379TIP3   OH243331   1.717   4.389   6.848 -0.0137  0.4892  0.4116
 6379TIP3    H143332   1.675   4.342   6.920  0.6198  1.5267  1.5042
 6379TIP3    H243333   1.741   4.322   6.785 -1.0530 -0.3889  0.9242
 6380TIP3   OH243334   4.597   7.181   5.617 -0.4480 -0.4587  0.4374
 6380TIP3    H143335   4.520   7.125   5.606 -2.3168  1.7894  1.4337
 6380TIP3    H243336   4.653   7.160   5.542 -1.3319 -3.1481  0.4387
 6381TIP3   OH243337   1.461   3.484   5.722  0.3665 -0.3572  0.4812
 6381TIP3    H143338   1.464   3.516   5.631  0.1643 -0.0855  0.5694
 6381TIP3    H243339   1.544   3.439   5.734 -0.3071 -1.9078 -0.3914
 6382TIP3   OH243340   0.258   4.758   4.714  0.0614 -0.1345 -0.0657
 6382TIP3    H143341   0.306   4.678   4.737 -2.2093 -1.4874  0.3508
 6382TIP3    H243342   0.167   4.739   4.740 -0.8011  2.0888 -1.1994
 6383TIP3   OH243343   6.818   5.642   4.808 -0.3130  0.2616 -0.0486
 6383TIP3    H143344   6.784   5.575   4.748  0.1754  0.4297 -0.5205
 6383TIP3    H243345   6.829   5.597   4.891 -0.5544 -0.0967 -0.2106
 6384TIP3   OH243346   2.772   1.958   6.532 -0.0965  0.3360  0.0198
 6384TIP3    H143347   2.769   1.921   6.444 -0.4698 -0.0979  0.2156
 6384TIP3    H243348   2.735   1.890   6.589  1.2313  0.1189  0.6802
 6385TIP3   OH243349   1.081   0.833   7.179  0.4319  0.0810  0.3327
 6385TIP3    H143350   1.154   0.893   7.162 -2.4869  3.4854 -1.7627
 6385TIP3    H243351   1.012   0.889   7.215 -2.4695 -2.0642 -1.4591
 6386TIP3   OH243352   5.140   4.627   6.328  0.1144 -0.8748 -0.3201
 6386TIP3    H143353   5.187   4.546   6.309 -0.3344 -1.4946  1.0856
 6386TIP3    H243354   5.050   4.609   6.304  0.1090 -0.6007 -0.5091
 6387TIP3   OH243355   0.284   5.042   7.546 -0.2166  0.7123  0.3807
 6387TIP3    H143356   0.191   5.059   7.554 -0.0702  0.9330  1.8576
 6387TIP3    H243357   0.319   5.120   7.501 -0.8225  0.2986 -0.8467
 6388TIP3   OH243358   4.951   5.795   6.888 -0.3330 -0.4876 -0.3596
 6388TIP3    H143359   5.020   5.728   6.889 -1.9548 -2.2403  0.6567
 6388TIP3    H243360   4.909   5.788   6.973  0.3705  2.9820  0.4345
 6389TIP3   OH243361   7.280   0.430   6.876 -0.1632 -0.3211  0.4113
 6389TIP3    H143362   7.344   0.497   6.852 -1.7010  1.6082  1.3976
 6389TIP3    H243363   7.224   0.423   6.798  1.1065 -1.9247 -0.4081
 6390TIP3   OH243364   4.316   2.486   7.276 -0.2578 -0.0680  0.1783
 6390TIP3    H143365   4.305   2.580   7.287  0.2793 -0.0686  0.7593
 6390TIP3    H243366   4.303   2.471   7.182  0.0831  0.6388  0.0133
 6391TIP3   OH243367   7.382   3.900   6.671  0.1908  0.2376 -0.0542
 6391TIP3    H143368   7.349   3.813   6.692 -0.7499  0.5730 -0.1006
 6391TIP3    H243369   7.391   3.900   6.576  0.4538  0.1007 -0.0292
 6392TIP3   OH243370   2.186   1.255   5.275 -0.0394 -0.3898  0.2178
 6392TIP3    H143371   2.169   1.267   5.369 -0.9193  2.0421 -0.1743
 6392TIP3    H243372   2.135   1.178   5.251 -1.4314  0.1351  1.3424
 6393TIP3   OH243373   0.438   6.001   6.037  0.4555 -0.4285 -0.6329
 6393TIP3    H143374   0.518   6.021   6.086 -0.0271  1.1465 -0.4235
 6393TIP3    H243375   0.383   5.955   6.100  0.9310 -0.9089 -0.5652
 6394TIP3   OH243376   4.905   3.284   6.603  0.1440 -0.0354 -0.9920
 6394TIP3    H143377   4.822   3.255   6.566  0.5208 -1.4477 -0.7912
 6394TIP3    H243378   4.912   3.376   6.577 -1.1280 -0.0927 -1.6233
 6395TIP3   OH243379   5.362   2.323   5.866 -0.1932  0.3158  0.1104
 6395TIP3    H143380   5.444   2.273   5.863 -0.2629 -0.2697  3.5230
 6395TIP3    H243381   5.314   2.295   5.788  2.8394  0.7888 -2.0700
 6396TIP3   OH243382   0.899   4.073  13.477 -0.5185 -0.0830 -0.3385
 6396TIP3    H143383   0.984   4.111  13.501 -0.3658  0.2937 -1.4230
 6396TIP3    H243384   0.913   4.034  13.391 -1.5316  0.3216 -0.7102
 6397TIP3   OH243385   2.754   5.111   6.206 -0.2097 -0.1984 -0.3244
 6397TIP3    H143386   2.762   5.202   6.233 -0.8898 -1.1294  3.5366
 6397TIP3    H243387   2.666   5.105   6.169 -0.9154  0.3639  1.1837
 6398TIP3   OH243388   0.958   2.945   6.635  0.5227 -0.4977 -0.2932
 6398TIP3    H143389   0.905   2.903   6.703  2.8067 -0.6378  1.5283
 6398TIP3    H243390   0.932   2.901   6.554  0.0096 -2.6736  0.9577
 6399TIP3   OH243391   6.351   0.208   6.632 -0.0559  0.1267  0.0556
 6399TIP3    H143392   6.296   0.285   6.615  1.7798  1.7480  1.0379
 6399TIP3    H243393   6.313   0.169   6.711  0.8634  2.0039  1.5238
 6400TIP3   OH243394   5.205   7.631   7.312  0.3565 -0.2177 -0.3497
 6400TIP3    H143395   5.252   7.591   7.385 -2.4251 -0.1854  1.5987
 6400TIP3    H243396   5.223   7.725   7.322 -0.9240 -0.0908  1.0627
 6401TIP3   OH243397   2.228   0.270   6.549  0.4986 -0.0471  0.4558
 6401TIP3    H143398   2.228   0.355   6.594  2.4415 -1.1108  2.6234
 6401TIP3    H243399   2.150   0.226   6.581 -0.5964  0.9232 -0.7828
 6402TIP3   OH243400   5.797   6.608   6.542  0.2684 -0.0355 -0.3647
 6402TIP3    H143401   5.776   6.630   6.451  0.6337  0.0034 -0.4401
 6402TIP3    H243402   5.795   6.693   6.588  1.3464  0.1261 -0.5903
 6403TIP3   OH243403   1.959   0.293   5.011 -0.0874 -0.3822  0.6398
 6403TIP3    H143404   1.951   0.375   5.061 -0.3614 -0.0122 -0.0079
 6403TIP3    H243405   2.031   0.310   4.950 -1.4153  0.0872 -0.8444
 6404TIP3   OH243406   1.178   3.532   6.104 -0.4017  0.2839 -0.4995
 6404TIP3    H143407   1.206   3.619   6.134  1.7173 -0.0241 -1.3653
 6404TIP3    H243408   1.096   3.548   6.057 -0.4032  1.7125 -0.0667
 6405TIP3   OH243409   6.800   3.517   4.783  1.0111  0.4293 -0.0430
 6405TIP3    H143410   6.708   3.542   4.786  0.4052 -1.7172  1.3335
 6405TIP3    H243411   6.821   3.493   4.873  2.8611  0.5998 -0.3862
 6406TIP3   OH243412   3.827   0.451   4.811  0.3069  0.5078  0.2125
 6406TIP3    H143413   3.796   0.540   4.827  0.2355  0.7701 -1.3115
 6406TIP3    H243414   3.748   0.398   4.813  0.0090  0.8504 -1.3451
 6407TIP3   OH243415   3.139   4.562   6.438  0.6775 -0.2689 -0.5737
 6407TIP3    H143416   3.072   4.546   6.504  0.2423  1.6420 -0.4772
 6407TIP3    H243417   3.092   4.610   6.369  2.1301  2.2425  0.0641
 6408TIP3   OH243418   0.668   6.761   7.002  0.0685  0.6308  0.2011
 6408TIP3    H143419   0.601   6.767   7.070  0.8911 -1.3255  1.2832
 6408TIP3    H243420   0.725   6.836   7.017 -1.4450  1.9386 -0.3147
 6409TIP3   OH243421   5.538   3.509   5.469 -0.1393 -0.5832 -0.5892
 6409TIP3    H143422   5.594   3.565   5.415  0.8147 -1.0787 -0.1368
 6409TIP3    H243423   5.453   3.553   5.468 -0.0758 -0.4225 -2.2449
 6410TIP3   OH243424   3.954   4.778   6.465 -0.3896  0.2900  0.3309
 6410TIP3    H143425   3.864   4.749   6.454 -0.3557  0.3526 -0.1157
 6410TIP3    H243426   3.996   4.759   6.381 -0.4636  1.9521 -0.1169
 6411TIP3   OH243427   1.710   4.519   5.702  0.7274  0.2097  0.4875
 6411TIP3    H143428   1.800   4.494   5.679  0.0656 -1.5864 -0.3041
 6411TIP3    H243429   1.672   4.440   5.741 -0.4177  1.0456  1.1307
 6412TIP3   OH243430   3.727   1.522   6.427 -0.6048 -0.4574 -0.7553
 6412TIP3    H143431   3.746   1.613   6.404  2.9383 -0.9013 -0.2191
 6412TIP3    H243432   3.764   1.470   6.356 -0.4344 -1.5161  0.0684
 6413TIP3   OH243433   3.254   1.647   7.369  0.6733  0.6792 -0.2889
 6413TIP3    H143434   3.277   1.724   7.318 -0.4882 -0.2187 -2.3017
 6413TIP3    H243435   3.230   1.682   7.455  1.3700  2.4067 -0.7448
 6414TIP3   OH243436   2.053   1.148   5.534  0.2169 -0.1637  0.1904
 6414TIP3    H143437   1.993   1.198   5.590  1.4811  1.2759  0.3372
 6414TIP3    H243438   2.139   1.161   5.574  0.9645 -0.1954 -1.3356
 6415TIP3   OH243439   0.201   0.678   4.687  0.4351 -0.3184  0.2042
 6415TIP3    H143440   0.291   0.666   4.655  0.7454 -2.5931  1.6841
 6415TIP3    H243441   0.156   0.598   4.661 -0.3970 -0.4081  1.8167
 6416TIP3   OH243442   7.309   5.278   6.890  0.2913  0.5113  0.1927
 6416TIP3    H143443   7.264   5.266   6.806  2.3029  0.8474 -1.0206
 6416TIP3    H243444   7.345   5.366   6.885  3.1518 -0.5552 -0.0591
 6417TIP3   OH243445   1.290   6.939   7.532  0.0888  0.0426  0.0618
 6417TIP3    H143446   1.219   6.987   7.576 -0.0280 -0.2958  0.2416
 6417TIP3    H243447   1.367   6.954   7.587  0.0168 -0.1070  0.2030
 6418TIP3   OH243448   3.954   4.852   5.433 -0.2201 -0.0493 -0.3458
 6418TIP3    H143449   4.019   4.814   5.373  0.4972  2.1912 -1.0778
 6418TIP3    H243450   3.955   4.794   5.509  1.4919 -0.9298 -0.9872
 6419TIP3   OH243451   1.327   3.762   6.199  0.2194  0.4760  0.1385
 6419TIP3    H143452   1.420   3.782   6.192  0.8594 -1.8758  0.9824
 6419TIP3    H243453   1.287   3.807   6.124  1.6452  3.2931  0.9189
 6420TIP3   OH243454   0.193   3.487   4.883  0.2003 -0.1648 -0.1109
 6420TIP3    H143455   0.266   3.533   4.841  1.6778 -3.9629 -2.1270
 6420TIP3    H243456   0.119   3.500   4.823  0.4388  0.0123 -0.3719
 6421TIP3   OH243457   2.509   5.508   4.903 -0.3407  0.3582  0.5074
 6421TIP3    H143458   2.591   5.531   4.947 -0.2652  0.4735  0.3073
 6421TIP3    H243459   2.524   5.531   4.811 -0.4534  0.0046  0.3983
 6422TIP3   OH243460   2.477   4.840   5.919 -0.1306 -0.1019  0.3410
 6422TIP3    H143461   2.432   4.802   5.994 -0.4382 -0.8016 -0.1793
 6422TIP3    H243462   2.433   4.801   5.843  0.0379  0.7425 -0.1998
 6423TIP3   OH243463   6.797   1.183   6.530  0.0159 -0.2109 -0.6700
 6423TIP3    H143464   6.834   1.262   6.491  1.4200 -0.1114  0.7289
 6423TIP3    H243465   6.848   1.111   6.492  0.5029 -0.2121 -0.0419
 6424TIP3   OH243466   1.023   5.370   4.649 -0.4718 -0.2274  0.0497
 6424TIP3    H143467   1.078   5.403   4.577 -0.0711 -1.5408 -0.2677
 6424TIP3    H243468   1.085   5.347   4.718 -0.8764  1.3402  0.9932
 6425TIP3   OH243469   0.689   0.724   5.629 -0.0861 -0.0895  0.3775
 6425TIP3    H143470   0.738   0.644   5.650 -2.8405 -1.9634  0.2362
 6425TIP3    H243471   0.709   0.742   5.537  0.1717 -0.9255  0.2654
 6426TIP3   OH243472   1.549   2.428   6.824  0.5179  0.4583 -0.3052
 6426TIP3    H143473   1.567   2.398   6.913 -2.8802 -1.4461 -0.0935
 6426TIP3    H243474   1.486   2.499   6.835 -2.0936 -1.5862 -1.1173
 6427TIP3   OH243475   7.208   0.904   6.879 -0.6053  0.2772 -0.0365
 6427TIP3    H143476   7.247   0.830   6.925  0.9054  1.3309  0.4644
 6427TIP3    H243477   7.131   0.926   6.931 -1.5123 -1.3500 -0.6017
 6428TIP3   OH243478   2.192   5.166   5.352  0.2210  0.1651 -0.0856
 6428TIP3    H143479   2.179   5.258   5.372  0.3756  0.4020 -0.9890
 6428TIP3    H243480   2.287   5.156   5.345  0.2044 -0.0496 -0.0200
 6429TIP3   OH243481   0.671   0.832   7.169 -0.2904  0.3998 -0.6139
 6429TIP3    H143482   0.630   0.912   7.138  0.9724  0.6936 -1.6263
 6429TIP3    H243483   0.729   0.861   7.239  0.0243  0.3535 -0.8521
 6430TIP3   OH243484   5.891   7.603   5.335  0.0576  0.3766 -0.4378
 6430TIP3    H143485   5.818   7.629   5.390  0.4147  0.7692 -0.1457
 6430TIP3    H243486   5.855   7.536   5.277 -0.3058 -0.0613  0.2931
 6431TIP3   OH243487   5.677   6.067   4.761  0.5577  0.4263 -0.8631
 6431TIP3    H143488   5.593   6.034   4.728  0.6330 -2.9140  1.6884
 6431TIP3    H243489   5.742   6.011   4.720  1.5117  2.2637 -1.9549
 6432TIP3   OH243490   5.466   0.385   6.406 -0.5079  0.6725 -0.0710
 6432TIP3    H143491   5.491   0.397   6.314  2.2772  0.4196  0.5672
 6432TIP3    H243492   5.395   0.448   6.420  1.7744  3.7914 -1.3950
 6433TIP3   OH243493   2.215   3.936   5.279 -0.0631  0.0375  0.3504
 6433TIP3    H143494   2.209   3.898   5.366  1.0731 -0.7118  0.1211
 6433TIP3    H243495   2.153   4.009   5.281  1.0091  0.9722  2.2653
 6434TIP3   OH243496   5.242   5.037   7.493 -0.0752 -0.1741 -0.3589
 6434TIP3    H143497   5.288   5.118   7.473  0.1587  0.3900  2.1149
 6434TIP3    H243498   5.149   5.061   7.491 -0.1248 -0.4221 -1.7982
 6435TIP3   OH243499   0.172   1.589   7.009  0.1389  0.3293 -0.4064
 6435TIP3    H143500   0.131   1.596   6.923 -0.2120 -0.2308 -0.2921
 6435TIP3    H243501   0.103   1.613   7.071  0.9301  2.6863 -0.3444
 6436TIP3   OH243502   1.963   7.399   5.129  0.5418 -0.1849  0.0350
 6436TIP3    H143503   1.937   7.482   5.089  0.5450 -0.2467 -0.0977
 6436TIP3    H243504   1.884   7.366   5.171 -0.0825 -1.2254 -1.8400
 6437TIP3   OH243505   1.687   4.972   6.189  0.0713 -0.1863 -0.5051
 6437TIP3    H143506   1.740   4.953   6.112  1.2399 -1.6661  0.5826
 6437TIP3    H243507   1.668   4.887   6.227 -0.1223  0.5065  1.0538
 6438TIP3   OH243508   4.806   3.653   6.326  0.5292  0.2656  0.5246
 6438TIP3    H143509   4.899   3.629   6.324  0.4696  0.0084 -2.3554
 6438TIP3    H243510   4.805   3.745   6.299 -0.0406  0.4519  1.1440
 6439TIP3   OH243511   5.492   0.998   6.846  0.1012  0.3176 -0.3429
 6439TIP3    H143512   5.508   1.085   6.810 -0.6267 -0.6629 -3.2582
 6439TIP3    H243513   5.403   1.003   6.881 -1.1906  0.0140 -3.2958
 6440TIP3   OH243514   3.278   5.539   5.042  0.2402 -0.1094 -0.3179
 6440TIP3    H143515   3.226   5.458   5.037  1.7249 -1.2440  1.6833
 6440TIP3    H243516   3.343   5.530   4.972 -0.4396  0.0221 -0.9863
 6441TIP3   OH243517   5.676   0.327   7.557 -0.0175 -0.1241  0.3440
 6441TIP3    H143518   5.759   0.350   7.517 -0.4047  0.5241 -0.1036
 6441TIP3    H243519   5.650   0.406   7.605 -0.8607  0.0451 -0.3602
 6442TIP3   OH243520   0.790   5.196   5.638  0.4253  0.4760 -0.1010
 6442TIP3    H143521   0.830   5.259   5.577 -1.7835  0.8956 -1.2195
 6442TIP3    H243522   0.696   5.202   5.620 -0.0483 -1.4750  1.4160
 6443TIP3   OH243523   6.377   2.479   5.673 -0.0126  0.1242 -0.5110
 6443TIP3    H143524   6.471   2.495   5.670 -0.0866  0.9395  0.6745
 6443TIP3    H243525   6.346   2.496   5.585  0.7040  1.5055 -0.5161
 6444TIP3   OH243526   5.140   5.422   5.747  0.0616  0.0277 -0.3589
 6444TIP3    H143527   5.117   5.432   5.839  1.1039  0.5696 -0.1418
 6444TIP3    H243528   5.220   5.369   5.747 -0.4866 -0.8284 -1.0199
 6445TIP3   OH243529   2.948   0.981   4.733 -0.0252  0.3177 -0.0377
 6445TIP3    H143530   2.887   1.034   4.682 -1.2477 -1.0285 -0.0466
 6445TIP3    H243531   2.999   1.044   4.784 -1.3841  1.4941 -0.0933
 6446TIP3   OH243532   2.718   4.214   6.453 -0.2121 -0.4813  0.4082
 6446TIP3    H143533   2.738   4.303   6.426  0.1895 -0.8881 -0.6826
 6446TIP3    H243534   2.625   4.203   6.433 -0.0888 -0.5415 -0.1309
 6447TIP3   OH243535   6.973   5.447   6.711 -0.0950  0.0873  0.0068
 6447TIP3    H143536   7.051   5.395   6.692  0.5686  0.9467  0.3001
 6447TIP3    H243537   6.901   5.398   6.670  0.2837 -1.7727  1.4402
 6448TIP3   OH243538   3.778   4.429   5.299  0.1426 -0.0986  0.4477
 6448TIP3    H143539   3.732   4.478   5.231 -0.0260  1.9501  1.9325
 6448TIP3    H243540   3.739   4.342   5.297  0.7214 -0.3835 -2.5752
 6449TIP3   OH243541   2.590   1.272   6.710 -0.4223 -0.4419  0.1441
 6449TIP3    H143542   2.624   1.362   6.713 -0.9612 -0.2497  0.8040
 6449TIP3    H243543   2.601   1.240   6.799 -0.2392 -1.0350 -0.0904
 6450TIP3   OH243544   0.181   0.342   7.456 -0.4581  0.5586 -0.2266
 6450TIP3    H143545   0.226   0.391   7.387 -0.5907 -0.8288 -1.3384
 6450TIP3    H243546   0.093   0.380   7.458 -0.1425  1.2995 -0.0991
 6451TIP3   OH243547   6.762   6.842   6.190  0.2002 -0.3697  0.2071
 6451TIP3    H143548   6.793   6.818   6.277  0.2736  0.7004  0.4934
 6451TIP3    H243549   6.675   6.879   6.205 -0.1301 -0.9339 -0.2763
 6452TIP3   OH243550   2.892   1.760   5.327 -0.1579  0.4788 -0.3405
 6452TIP3    H143551   2.873   1.730   5.416 -1.1807  1.1301 -0.3233
 6452TIP3    H243552   2.826   1.716   5.273  0.1652  0.4490 -0.7087
 6453TIP3   OH243553   7.349   4.477   6.770 -0.3496 -0.0927  0.2251
 6453TIP3    H143554   7.349   4.382   6.763  1.1432 -0.1468  0.6068
 6453TIP3    H243555   7.426   4.505   6.721 -0.6128  0.9058  0.3533
 6454TIP3   OH243556   2.846   5.346   6.722  0.2192 -1.1116  0.4094
 6454TIP3    H143557   2.880   5.406   6.789  1.5431  0.0291 -1.2191
 6454TIP3    H243558   2.855   5.259   6.762 -1.8343 -0.3490  2.8603
 6455TIP3   OH243559   1.180   1.532   4.665  0.1441 -0.2207  0.1631
 6455TIP3    H143560   1.179   1.464   4.598  0.9792 -0.1862  0.1078
 6455TIP3    H243561   1.269   1.567   4.663 -0.3247  1.0531  0.0085
 6456TIP3   OH243562   6.949   0.730   4.893  0.1175 -0.0871  0.1044
 6456TIP3    H143563   6.890   0.711   4.965 -1.0051  0.2164 -0.7153
 6456TIP3    H243564   6.953   0.649   4.843  1.7555 -0.6509  1.0587
 6457TIP3   OH243565   5.777   4.868   6.810  0.3841  0.0553 -0.2438
 6457TIP3    H143566   5.768   4.783   6.767 -0.7945  1.2282 -2.5335
 6457TIP3    H243567   5.697   4.876   6.863  0.7229 -0.4303  0.3572
 6458TIP3   OH243568   6.331   7.364   7.521 -0.4396 -0.1171  0.6510
 6458TIP3    H143569   6.289   7.291   7.566 -1.0006 -0.5420 -0.5279
 6458TIP3    H243570   6.422   7.363   7.553 -0.1979 -1.8678  0.0391
 6459TIP3   OH243571   0.381   3.430   5.944  0.4227 -0.4655  0.0901
 6459TIP3    H143572   0.315   3.397   5.883 -3.2988 -2.0562  4.3733
 6459TIP3    H243573   0.374   3.525   5.939 -1.1510 -0.5916 -0.6990
 6460TIP3   OH243574   2.713   4.858   5.574  0.6640 -0.3778 -1.0720
 6460TIP3    H143575   2.793   4.861   5.522  1.0400  1.2291 -0.4382
 6460TIP3    H243576   2.656   4.925   5.537 -0.3761 -1.4248 -1.4454
 6461TIP3   OH243577   4.340   0.095   4.935  0.6865 -0.2493 -0.6615
 6461TIP3    H143578   4.284   0.028   4.896 -0.8497  1.7543 -2.0929
 6461TIP3    H243579   4.279   0.160   4.970  2.0973 -0.1468  1.8786
 6462TIP3   OH243580   0.930   6.878   7.524  0.6768 -0.4554  0.2424
 6462TIP3    H143581   0.865   6.862   7.592  1.1661  0.1122  0.8622
 6462TIP3    H243582   0.991   6.941   7.564  2.0222 -1.5324 -0.0381
 6463TIP3   OH243583   6.919   1.475   6.560  0.5970  0.4391  0.3459
 6463TIP3    H143584   6.824   1.481   6.574  0.2100  0.0819 -1.8311
 6463TIP3    H243585   6.928   1.439   6.472  2.7826 -0.1956  0.7730
 6464TIP3   OH243586   2.073   7.669   6.207  0.0122  0.3478  0.0571
 6464TIP3    H143587   2.021   7.674   6.127  2.4631  0.5033 -1.6329
 6464TIP3    H243588   2.085   7.760   6.234 -1.0617  0.2831  0.8352
 6465TIP3   OH243589   3.153   4.053   5.370  0.1468 -0.3521  0.2600
 6465TIP3    H143590   3.153   4.095   5.284  0.6677 -0.2759  0.2949
 6465TIP3    H243591   3.218   4.101   5.421 -0.1096 -0.4393  0.6807
 6466TIP3   OH243592   1.922   6.795   5.801  0.0241 -0.1489 -0.2937
 6466TIP3    H143593   1.847   6.751   5.839 -0.1604 -1.7251 -2.3207
 6466TIP3    H243594   1.938   6.870   5.859 -1.9873 -0.7578  1.1496
 6467TIP3   OH243595   2.477   3.613   6.450 -0.0449 -0.0364  0.3992
 6467TIP3    H143596   2.451   3.526   6.482  1.1182 -2.3040 -4.0407
 6467TIP3    H243597   2.573   3.614   6.460 -0.0828  0.9695  0.7751
 6468TIP3   OH243598   7.352   7.505   6.190 -0.2864 -0.5961  0.3760
 6468TIP3    H143599   7.396   7.477   6.271 -0.3953 -1.4143  0.1559
 6468TIP3    H243600   7.342   7.425   6.139 -0.0548 -0.0553 -0.5378
 6469TIP3   OH243601   3.460   1.873   4.792  0.7804  0.3836  0.3337
 6469TIP3    H143602   3.440   1.966   4.792  1.3341  0.5086  0.0811
 6469TIP3    H243603   3.533   1.864   4.731  0.7902 -0.2022  0.4210
 6470TIP3   OH243604   0.634   0.645   6.355  0.6774  0.2245  0.3701
 6470TIP3    H143605   0.661   0.626   6.445  3.1666  0.5617 -0.2081
 6470TIP3    H243606   0.558   0.589   6.340  0.4550 -0.1497  2.5298
 6471TIP3   OH243607   3.320   2.050   6.372 -0.5566 -0.0069 -0.6865
 6471TIP3    H143608   3.364   1.971   6.343  1.0434  0.5745  0.0728
 6471TIP3    H243609   3.297   2.096   6.291  1.5945  0.3813 -1.1289
 6472TIP3   OH243610   5.113   4.192   6.514  0.3371  0.4257 -0.0101
 6472TIP3    H143611   5.066   4.183   6.597  0.8518  1.7402  0.4560
 6472TIP3    H243612   5.092   4.112   6.466  1.4131 -1.2360  2.0787
 6473TIP3   OH243613   2.904   1.614   7.187  0.3505 -0.0024  0.0190
 6473TIP3    H143614   2.927   1.523   7.170 -1.9662 -0.5582 -0.4927
 6473TIP3    H243615   2.846   1.611   7.263  0.6616  1.1109  0.3208
 6474TIP3   OH243616   0.748   7.634   6.956 -0.4541 -0.2703 -0.7519
 6474TIP3    H143617   0.802   7.608   7.031  0.5162 -1.2811 -1.7517
 6474TIP3    H243618   0.807   7.627   6.881 -1.0735  1.8140 -1.5043
 6475TIP3   OH243619   2.156   2.477   5.908  0.1915  1.2752  0.2125
 6475TIP3    H143620   2.112   2.486   5.993 -0.3150  0.9344 -0.0052
 6475TIP3    H243621   2.097   2.422   5.857  1.5629 -0.4849  0.4150
 6476TIP3   OH243622   3.205   1.488   6.215  0.1450  0.3181  0.3519
 6476TIP3    H143623   3.257   1.501   6.136  0.9865  0.6033  0.9383
 6476TIP3    H243624   3.139   1.423   6.190  1.3649 -0.7686 -0.1500
 6477TIP3   OH243625   6.029   2.482   6.901 -0.0633 -0.3409  0.4362
 6477TIP3    H143626   6.029   2.470   6.996  0.1080 -1.0802  0.3485
 6477TIP3    H243627   5.992   2.569   6.888  0.0495 -0.1722  1.1880
 6478TIP3   OH243628   5.250   1.748   6.597 -0.3315  0.4526 -0.0512
 6478TIP3    H143629   5.255   1.744   6.693  1.0079  2.2804  0.0096
 6478TIP3    H243630   5.158   1.765   6.579 -0.7533 -0.6902  0.8337
 6479TIP3   OH243631   2.345   4.664   5.423  0.2809 -0.2167  0.2025
 6479TIP3    H143632   2.375   4.596   5.483  0.3702  0.1770  0.6063
 6479TIP3    H243633   2.324   4.738   5.479 -0.5439 -0.1646 -0.1687
 6480TIP3   OH243634   4.280   0.240   5.819  0.6457 -0.1690  0.4225
 6480TIP3    H143635   4.268   0.315   5.877  0.2487 -1.1122  1.5868
 6480TIP3    H243636   4.373   0.243   5.795  0.4636  1.1531 -0.2223
 6481TIP3   OH243637   4.039   3.327   7.013  0.1068 -0.5714  0.1928
 6481TIP3    H143638   4.066   3.304   6.924  0.2422  2.1371 -0.5424
 6481TIP3    H243639   4.019   3.243   7.055  1.2656 -2.0070 -1.9761
 6482TIP3   OH243640   3.360   2.271   5.113 -0.1842  0.5496  0.2682
 6482TIP3    H143641   3.439   2.227   5.083 -0.6216 -0.3746  0.4364
 6482TIP3    H243642   3.365   2.359   5.075  0.2394  0.0553 -0.8604
 6483TIP3   OH243643   0.371   7.251   7.560  0.0385 -0.3880  0.1010
 6483TIP3    H143644   0.305   7.252   7.491  1.2892  0.6100 -1.1423
 6483TIP3    H243645   0.328   7.290   7.636 -0.4268  1.6136 -1.1091
 6484TIP3   OH243646   5.377   1.798   5.117  0.0576 -0.1558 -0.0672
 6484TIP3    H143647   5.410   1.732   5.057 -1.8076  0.6733 -2.1393
 6484TIP3    H243648   5.422   1.879   5.092 -1.5629  0.4456 -1.2608
 6485TIP3   OH243649   3.196   0.210   7.284  0.5261 -1.2264 -0.0417
 6485TIP3    H143650   3.211   0.246   7.371  1.9323 -3.0479  0.5350
 6485TIP3    H243651   3.181   0.286   7.228 -0.2718 -0.0164  1.7562
 6486TIP3   OH243652   2.813   6.644   5.331 -0.0700 -0.6499  0.0264
 6486TIP3    H143653   2.839   6.603   5.414  2.6076  1.1505  0.2330
 6486TIP3    H243654   2.720   6.662   5.341  0.0217 -1.1418  2.3905
 6487TIP3   OH243655   3.928   4.952   6.223 -0.3929 -0.3201 -0.6388
 6487TIP3    H143656   3.867   4.880   6.207  0.7530 -1.3664 -0.4208
 6487TIP3    H243657   3.999   4.938   6.161 -0.6624  1.2799 -1.3629
 6488TIP3   OH243658   1.429   3.904   5.966 -0.1294 -0.1091 -0.1134
 6488TIP3    H143659   1.366   3.918   5.895 -0.5416 -0.4376  0.1766
 6488TIP3    H243660   1.469   3.819   5.946 -0.6125 -0.4441  0.3069
 6489TIP3   OH243661   7.293   6.080   6.846  0.0931 -0.3394  0.1573
 6489TIP3    H143662   7.377   6.090   6.801 -0.3968 -0.5667 -0.8314
 6489TIP3    H243663   7.312   6.103   6.937  0.3323  3.7895 -0.7369
 6490TIP3   OH243664   7.485   3.235   6.292 -0.2938 -0.6060 -0.4356
 6490TIP3    H143665   7.483   3.161   6.353 -0.2616 -0.4500 -0.2461
 6490TIP3    H243666   7.409   3.288   6.315  0.5605  0.2671  0.4895
 6491TIP3   OH243667   7.100   5.352   5.900 -0.3392  0.5684  0.5816
 6491TIP3    H143668   7.191   5.383   5.904  0.1152 -0.5806 -0.2117
 6491TIP3    H243669   7.088   5.326   5.808 -1.0626 -0.4448  0.9484
 6492TIP3   OH243670   3.229   0.624   6.538  0.0559  0.5135 -0.2866
 6492TIP3    H143671   3.203   0.598   6.626  0.3829  1.2778  0.0386
 6492TIP3    H243672   3.252   0.541   6.495  0.6666  0.2103  0.5991
 6493TIP3   OH243673   1.898   6.442   4.690 -0.1303  0.2864  0.0955
 6493TIP3    H143674   1.803   6.458   4.690 -0.2607 -0.3993 -0.9788
 6493TIP3    H243675   1.907   6.352   4.659  0.8756  0.3123  0.2868
 6494TIP3   OH243676   7.159   0.449   6.634 -0.0041 -0.6410 -0.3314
 6494TIP3    H143677   7.245   0.432   6.596 -0.3229 -1.3337 -0.7571
 6494TIP3    H243678   7.097   0.427   6.565 -0.4894  1.9170 -0.8210
 6495TIP3   OH243679   6.611   1.126   6.030  0.6646  0.2918 -0.2576
 6495TIP3    H143680   6.604   1.056   5.965  0.5934  0.8219 -0.8223
 6495TIP3    H243681   6.635   1.081   6.111  1.3789 -0.2964 -0.7902
 6496TIP3   OH243682   4.396   5.258   6.313 -0.3081  0.3743  0.4052
 6496TIP3    H143683   4.427   5.169   6.330  1.7272  0.7973 -0.7550
 6496TIP3    H243684   4.331   5.249   6.244 -0.1419 -0.2205  0.3242
 6497TIP3   OH243685   4.525   1.564   4.871 -0.2487 -0.6326 -0.3325
 6497TIP3    H143686   4.536   1.659   4.876  1.7498 -0.8456  0.2900
 6497TIP3    H243687   4.451   1.551   4.813  2.0389  1.2877 -4.0865
 6498TIP3   OH243688   1.081   6.585   7.749  0.4463  0.4077 -0.0445
 6498TIP3    H143689   1.126   6.529   7.686  1.4605 -0.8923  1.7585
 6498TIP3    H243690   0.990   6.554   7.746  0.9115 -1.1370  0.6482
 6499TIP3   OH243691   0.707   4.510   7.012 -0.3555 -0.1374  0.2788
 6499TIP3    H143692   0.665   4.472   7.089  0.2432  0.1965  0.7759
 6499TIP3    H243693   0.634   4.535   6.955 -0.7880 -0.9911  0.4342
 6500TIP3   OH243694   1.451   0.687   7.719  0.1083 -0.5216 -0.8453
 6500TIP3    H143695   1.414   0.668   7.805  1.6226 -0.6771 -0.2088
 6500TIP3    H243696   1.503   0.767   7.732 -0.6641  0.1878 -1.9181
 6501TIP3   OH243697   7.219   2.523   5.373  0.9082 -0.0108  0.0271
 6501TIP3    H143698   7.245   2.530   5.282 -0.2849 -1.1971 -0.4427
 6501TIP3    H243699   7.197   2.613   5.399 -0.8506  0.0747 -1.5402
 6502TIP3   OH243700   7.338   7.279   6.837 -0.2673  0.6109 -0.7051
 6502TIP3    H143701   7.409   7.256   6.897 -1.1504 -1.4459 -0.3382
 6502TIP3    H243702   7.353   7.371   6.814  0.8184  1.0947  1.6789
 6503TIP3   OH243703   5.774   5.869   7.152  0.3480  0.5981  0.3266
 6503TIP3    H143704   5.800   5.930   7.221 -0.6773  1.2800  0.1286
 6503TIP3    H243705   5.838   5.883   7.082  1.1832  0.1534  0.9970
 6504TIP3   OH243706   5.896   6.214   6.250  0.5326  0.5048 -0.0204
 6504TIP3    H143707   5.871   6.217   6.343  1.4953  1.5614  0.2303
 6504TIP3    H243708   5.974   6.158   6.249  0.7084  0.7527 -0.1453
 6505TIP3   OH243709   4.972   7.430   5.435 -0.3244 -0.0064  0.2215
 6505TIP3    H143710   4.996   7.337   5.430  1.7668  0.5601 -1.8514
 6505TIP3    H243711   4.973   7.460   5.344  1.6933  2.6749  1.0159
 6506TIP3   OH243712   7.199   4.365   6.420 -0.4795  0.1147 -0.5367
 6506TIP3    H143713   7.204   4.298   6.488 -0.4910 -1.4628 -1.9927
 6506TIP3    H243714   7.111   4.401   6.428 -0.4143  0.0929  0.3962
 6507TIP3   OH243715   5.279   4.077   5.163 -0.4472 -0.3967 -0.5991
 6507TIP3    H143716   5.261   4.122   5.080 -2.0522  0.7847  0.3268
 6507TIP3    H243717   5.196   4.035   5.185 -0.0224 -0.7397  0.3923
 6508TIP3   OH243718   6.573   0.268   7.419  0.1611 -0.1513 -0.4706
 6508TIP3    H143719   6.590   0.327   7.493  0.8336  0.5610 -1.1688
 6508TIP3    H243720   6.495   0.220   7.444 -0.6007  1.2722  0.0112
 6509TIP3   OH243721   6.906   2.558   6.322 -0.3269 -0.2603  0.3345
 6509TIP3    H143722   6.878   2.564   6.230 -0.9023  0.6234  0.5576
 6509TIP3    H243723   6.948   2.472   6.328 -0.7063 -0.5359 -0.6420
 6510TIP3   OH243724   6.497   6.098   7.755 -0.1653  0.0162  0.6523
 6510TIP3    H143725   6.475   6.086   7.663 -0.4864 -0.1634  0.7507
 6510TIP3    H243726   6.553   6.023   7.776  1.1186  0.8191  0.2287
 6511TIP3   OH243727   5.943   5.661   6.590 -0.0232 -0.0719 -0.0961
 6511TIP3    H143728   6.020   5.666   6.647  0.0072  1.2941 -0.2236
 6511TIP3    H243729   5.970   5.603   6.519 -0.5177 -2.9462  1.8976
 6512TIP3   OH243730   2.341   1.700   5.410  0.1808 -0.5372 -0.1395
 6512TIP3    H143731   2.311   1.789   5.394  0.1223 -0.7766 -1.4823
 6512TIP3    H243732   2.289   1.646   5.351 -0.2532 -1.5545  1.1253
 6513TIP3   OH243733   6.823   0.921   5.776  0.0299  0.5563 -0.1690
 6513TIP3    H143734   6.904   0.900   5.730  0.1575  0.5317  0.0631
 6513TIP3    H243735   6.789   0.998   5.731  0.0707  0.4400 -0.4022
 6514TIP3   OH243736   1.560   2.794   5.794 -0.6391  0.0249  0.0843
 6514TIP3    H143737   1.599   2.717   5.835 -0.9735 -1.3744 -2.0527
 6514TIP3    H243738   1.577   2.866   5.855  0.2812 -1.6032  1.8271
 6515TIP3   OH243739   1.466   5.118   6.249  0.5505 -0.0346 -0.3771
 6515TIP3    H143740   1.547   5.080   6.216  1.3354  2.1014 -1.0764
 6515TIP3    H243741   1.470   5.105   6.344  3.4050  2.8662  0.0513
 6516TIP3   OH243742   7.495   7.057   7.299  0.1865  0.9330  0.7517
 6516TIP3    H143743   7.489   7.075   7.392  0.7873  0.1221  0.9672
 6516TIP3    H243744   7.561   6.988   7.292 -0.7262  0.1025 -0.1520
 6517TIP3   OH243745   5.161   3.205   6.527 -0.3757  0.4245 -0.1920
 6517TIP3    H143746   5.073   3.220   6.560 -0.4584  0.0603 -0.2382
 6517TIP3    H243747   5.154   3.125   6.475  0.1605 -0.1258  0.5462
 6518TIP3   OH243748   6.308   0.244   6.351  0.1525  0.8564 -0.1107
 6518TIP3    H143749   6.342   0.283   6.432 -0.7628  0.1858  0.6233
 6518TIP3    H243750   6.326   0.309   6.284  2.6229  0.6696  0.2582
 6519TIP3   OH243751   5.124   0.059   5.226 -0.1842  0.7655 -0.0572
 6519TIP3    H143752   5.209   0.065   5.269 -0.3143 -0.1873  0.3600
 6519TIP3    H243753   5.106  -0.035   5.223 -1.1951  0.9604 -0.2045
 6520TIP3   OH243754   4.463   2.757   6.674 -0.2903  0.1115  0.2348
 6520TIP3    H143755   4.450   2.704   6.595  3.3993 -1.1152  0.2667
 6520TIP3    H243756   4.484   2.844   6.642  1.8699 -0.5398 -0.3042
 6521TIP3   OH243757   7.237   7.025   7.173  0.3262 -0.3208  0.5655
 6521TIP3    H143758   7.200   6.941   7.147  2.0061 -0.4860 -1.5994
 6521TIP3    H243759   7.316   7.002   7.222  0.9757 -0.0194 -0.3280
 6522TIP3   OH243760   5.303   5.307   6.547  0.1221 -0.4237  0.3931
 6522TIP3    H143761   5.337   5.383   6.500 -0.9036  0.3195  0.7979
 6522TIP3    H243762   5.308   5.331   6.639  1.6350 -1.6625  0.6724
 6523TIP3   OH243763   6.880   5.193   7.295 -0.0547 -0.0755  0.2704
 6523TIP3    H143764   6.940   5.174   7.367  0.3080  1.7225  0.4920
 6523TIP3    H243765   6.796   5.158   7.324  0.1824  0.2304  1.3772
 6524TIP3   OH243766   0.132   2.069   6.530 -0.0164  0.5903  0.1289
 6524TIP3    H143767   0.134   1.979   6.495 -0.2405 -0.0034  1.5544
 6524TIP3    H243768   0.042   2.098   6.516 -0.2325  0.1766  0.6208
 6525TIP3   OH243769   3.999   2.972   5.776 -0.2773  0.1788  0.2679
 6525TIP3    H143770   4.074   2.971   5.836 -0.4100 -2.0758  0.4807
 6525TIP3    H243771   3.930   3.016   5.825  0.0875 -0.2349  1.1887
 6526TIP3   OH243772   1.823   6.164   4.730  0.2715 -0.9669  0.4493
 6526TIP3    H143773   1.731   6.141   4.717 -0.3340  0.5523  1.7293
 6526TIP3    H243774   1.868   6.080   4.735 -0.9344 -1.7268 -0.8387
 6527TIP3   OH243775   7.650   5.678   6.247 -0.4735  0.3984 -0.5827
 6527TIP3    H143776   7.577   5.737   6.265 -0.2796  0.5147 -0.1441
 6527TIP3    H243777   7.691   5.712   6.168  0.4827  1.7023  0.4265
 6528TIP3   OH243778   6.213   6.646   6.332  0.2828 -0.0919 -0.5928
 6528TIP3    H143779   6.119   6.647   6.316  0.1166  1.5182  0.2288
 6528TIP3    H243780   6.234   6.737   6.355  1.5124 -0.9538  2.0611
 6529TIP3   OH243781   1.013   1.033   6.299 -0.0525 -0.2056  0.4583
 6529TIP3    H143782   0.940   0.974   6.315 -0.5184  0.1443 -0.3387
 6529TIP3    H243783   1.064   0.991   6.230  0.8938 -0.7850  1.4872
 6530TIP3   OH243784   2.324   1.416   6.241 -0.0757  0.4203 -0.6614
 6530TIP3    H143785   2.339   1.389   6.332  0.9922 -0.0550 -0.9627
 6530TIP3    H243786   2.408   1.453   6.213 -0.4174  0.6216 -1.4408
 6531TIP3   OH243787   0.537   0.647   7.318 -0.3959  0.2061  0.1667
 6531TIP3    H143788   0.583   0.702   7.255 -0.5819 -0.0839 -0.2259
 6531TIP3    H243789   0.551   0.690   7.402 -0.0879  0.5584 -0.0617
 6532TIP3   OH243790   2.879   0.059   5.593  0.5611 -0.1713 -0.2473
 6532TIP3    H143791   2.791   0.050   5.555  0.2694 -0.1788  0.4116
 6532TIP3    H243792   2.863   0.077   5.686  1.2581 -0.0804 -0.1397
 6533TIP3   OH243793   2.700   2.996   6.034  0.3449 -0.5669  0.2051
 6533TIP3    H143794   2.635   3.041   5.980  0.8166 -0.2181 -0.0747
 6533TIP3    H243795   2.757   3.066   6.066  0.3476 -0.8238  0.7809
 6534TIP3   OH243796   5.404   5.807   5.215  0.2542 -0.5464 -0.0735
 6534TIP3    H143797   5.355   5.870   5.268  1.6832 -0.5778  1.3555
 6534TIP3    H243798   5.371   5.820   5.126 -0.0827  1.6254  0.3159
 6535TIP3   OH243799   1.843   7.637   5.074  0.2523 -0.4143  0.3165
 6535TIP3    H143800   1.777   7.592   5.022 -0.3659 -1.1785  1.7049
 6535TIP3    H243801   1.800   7.652   5.159  0.1240  3.4860 -0.2428
 6536TIP3   OH243802   3.273   6.429   6.170 -0.7823 -0.1794 -0.1130
 6536TIP3    H143803   3.308   6.512   6.138  0.2768 -0.7586 -0.5235
 6536TIP3    H243804   3.183   6.427   6.137 -0.3495  0.1516 -1.4050
 6537TIP3   OH243805   2.156   2.777   6.443  0.6574 -0.0941  0.0883
 6537TIP3    H143806   2.177   2.798   6.534  1.3351 -2.8630  0.6577
 6537TIP3    H243807   2.063   2.758   6.443  0.9152 -1.4380  0.5340
 6538TIP3   OH243808   4.302   0.159   5.329 -0.1041  0.3113 -0.3598
 6538TIP3    H143809   4.262   0.153   5.416 -0.9627  0.3196 -0.7457
 6538TIP3    H243810   4.388   0.117   5.339 -0.1430  0.4246  0.5195
 6539TIP3   OH243811   4.439   5.612   5.919 -0.3867 -0.1224  0.0001
 6539TIP3    H143812   4.428   5.651   5.832 -0.4572 -0.3804 -0.1066
 6539TIP3    H243813   4.350   5.598   5.950 -0.4266  1.9957  1.0428
 6540TIP3   OH243814   2.272   6.347   4.658  0.4246  0.2030  0.2372
 6540TIP3    H143815   2.203   6.350   4.724 -1.9505 -0.7646 -2.0217
 6540TIP3    H243816   2.273   6.256   4.629  0.0404  0.9191 -2.2760
 6541TIP3   OH243817   5.127   7.142   6.489 -0.7962  0.0148 -0.6769
 6541TIP3    H143818   5.088   7.120   6.573  0.1318  0.5063 -0.0965
 6541TIP3    H243819   5.202   7.083   6.481 -0.6823  0.1988 -1.0016
 6542TIP3   OH243820   3.937   1.518   4.748  0.5281 -0.4094  0.0592
 6542TIP3    H143821   4.012   1.539   4.802 -0.5322  0.6735  1.1738
 6542TIP3    H243822   3.875   1.477   4.808 -1.4459  2.5134  0.2062
 6543TIP3   OH243823   3.615   3.863   6.014 -1.1358 -0.2061  0.7023
 6543TIP3    H143824   3.568   3.802   6.072  0.7541 -0.6976  1.7925
 6543TIP3    H243825   3.632   3.813   5.935 -0.5885 -0.7507  1.1513
 6544TIP3   OH243826   4.245   5.295   5.871 -0.3250 -0.4757 -0.2098
 6544TIP3    H143827   4.266   5.294   5.778  1.0269  1.1028  0.0357
 6544TIP3    H243828   4.328   5.315   5.915 -1.2547  0.5158  1.2068
 6545TIP3   OH243829   6.209   0.259   5.593 -0.1703  0.5246 -0.1085
 6545TIP3    H143830   6.128   0.209   5.591 -0.0664  0.3546 -1.7833
 6545TIP3    H243831   6.222   0.287   5.502  1.3822  0.9760  0.2153
 6546TIP3   OH243832   5.254   0.294   5.605 -0.4350  0.1059 -0.2477
 6546TIP3    H143833   5.220   0.216   5.647 -2.4747 -0.4302 -2.6845
 6546TIP3    H243834   5.206   0.366   5.646 -1.3003 -0.2777 -0.5563
 6547TIP3   OH243835   3.291   5.541   7.512 -0.1796  0.5958 -0.0320
 6547TIP3    H143836   3.228   5.471   7.494 -0.1577  0.7481 -0.7002
 6547TIP3    H243837   3.375   5.504   7.486 -0.3095  1.2625 -1.4392
 6548TIP3   OH243838   5.752   1.861   7.046  0.2890 -0.2371 -0.2201
 6548TIP3    H143839   5.800   1.862   7.129  0.5951  0.5840 -0.3879
 6548TIP3    H243840   5.724   1.771   7.035  0.7418 -0.4750  0.4951
 6549TIP3   OH243841   6.806   6.568   6.340 -0.7575  0.0521  0.4048
 6549TIP3    H143842   6.725   6.565   6.290  0.3999  0.2628 -1.5986
 6549TIP3    H243843   6.874   6.584   6.274  0.6576  2.4693  2.2747
 6550TIP3   OH243844   0.653   4.345   5.702 -0.0506 -0.0777 -0.4698
 6550TIP3    H143845   0.689   4.433   5.694 -1.4873  0.9029  2.2804
 6550TIP3    H243846   0.581   4.343   5.640  0.8533  0.1616 -1.5484
 6551TIP3   OH243847   3.078   6.535   7.073 -0.4553 -0.1106  0.7354
 6551TIP3    H143848   3.098   6.488   6.992 -0.1317  0.6666  0.3528
 6551TIP3    H243849   3.144   6.503   7.135  1.1633  1.3464 -0.1144
 6552TIP3   OH243850   4.778   4.705   7.478 -0.3985 -0.7366 -0.3050
 6552TIP3    H143851   4.803   4.613   7.476  0.0010 -0.6443  0.2724
 6552TIP3    H243852   4.855   4.750   7.512 -0.9452 -0.3073  0.3799
 6553TIP3   OH243853   5.426   1.433   7.380 -0.2515 -0.4877 -0.4555
 6553TIP3    H143854   5.352   1.478   7.341  0.6951  0.4734 -1.2236
 6553TIP3    H243855   5.388   1.376   7.447 -1.4907  1.8356  0.9441
 6554TIP3   OH243856   0.310   1.583   4.999  0.0459 -0.3523  0.7190
 6554TIP3    H143857   0.254   1.508   5.016 -2.4327  1.4234  0.8318
 6554TIP3    H243858   0.284   1.649   5.063  2.7009  0.4175  1.1641
 6555TIP3   OH243859   0.574   5.717   6.380 -0.2788 -0.3597 -0.6868
 6555TIP3    H143860   0.600   5.695   6.470  0.1339 -3.3758 -1.4219
 6555TIP3    H243861   0.480   5.704   6.378 -0.0473 -2.4295 -1.1002
 6556TIP3   OH243862   0.982   3.301   5.955 -0.7216  0.6842  0.0814
 6556TIP3    H143863   0.991   3.304   6.050  1.5481  1.3704 -0.0943
 6556TIP3    H243864   1.032   3.225   5.928 -1.5435  0.3565 -0.5829
 6557TIP3   OH243865   3.394   4.101   5.680 -0.3622  0.3209  0.1987
 6557TIP3    H143866   3.374   4.151   5.601  0.8392 -0.5149 -0.6814
 6557TIP3    H243867   3.446   4.161   5.734 -0.5812  0.6636  0.0277
 6558TIP3   OH243868   3.823   3.496   5.640  0.5776  0.3031 -0.3416
 6558TIP3    H143869   3.814   3.592   5.641 -0.9684  0.1793  1.2747
 6558TIP3    H243870   3.734   3.463   5.649  1.0644 -1.3309 -1.0558
 6559TIP3   OH243871   0.559   2.641   7.141 -0.3496  0.3010  0.0351
 6559TIP3    H143872   0.563   2.710   7.075  0.5568  0.8473  0.6383
 6559TIP3    H243873   0.594   2.564   7.095  2.9557  1.3079  0.5722
 6560TIP3   OH243874   4.747   1.447   7.504  0.8334 -0.0589 -0.2390
 6560TIP3    H143875   4.717   1.363   7.538  1.3807 -0.1297  0.0824
 6560TIP3    H243876   4.840   1.435   7.487  0.8408  0.3727 -0.5372
 6561TIP3   OH243877   6.010   4.130   4.791 -0.4255  0.1455 -0.1090
 6561TIP3    H143878   6.058   4.070   4.734 -1.8308  0.7940 -2.1188
 6561TIP3    H243879   6.034   4.105   4.880  0.8750 -1.7797 -0.9504
 6562TIP3   OH243880   2.718   4.681   4.760 -0.3294  0.0748  0.3914
 6562TIP3    H143881   2.645   4.634   4.799  0.6625 -1.8393  0.0436
 6562TIP3    H243882   2.731   4.638   4.675  0.9466  0.6556  0.2758
 6563TIP3   OH243883   6.570   6.068   5.449  0.2274 -0.4570  0.4554
 6563TIP3    H143884   6.562   6.149   5.501  0.9052  0.3482 -0.6432
 6563TIP3    H243885   6.528   6.089   5.366  0.7633 -1.1033  0.0101
 6564TIP3   OH243886   7.676   0.321   5.045 -0.6424 -0.2958 -0.3613
 6564TIP3    H143887   7.694   0.283   4.959  1.3876  0.7940 -0.4671
 6564TIP3    H243888   7.722   0.264   5.107  0.6319  0.7017 -0.3354
 6565TIP3   OH243889   7.608   4.463   6.623  0.4786 -0.0467  0.1145
 6565TIP3    H143890   7.696   4.499   6.630  0.3579  0.1650  0.5252
 6565TIP3    H243891   7.603   4.398   6.693  0.3274 -0.1086  0.0462
 6566TIP3   OH243892   5.647   1.607   7.084 -0.1459  0.4531 -0.4907
 6566TIP3    H143893   5.601   1.644   7.160  0.2231  0.9295 -0.4962
 6566TIP3    H243894   5.622   1.514   7.084 -1.2926  0.7442 -0.6273
 6567TIP3   OH243895   6.956   3.766   7.107  0.4110 -0.3755  0.4077
 6567TIP3    H143896   6.908   3.687   7.133  0.8151 -1.4626 -1.8873
 6567TIP3    H243897   7.044   3.733   7.085  0.7253  0.8053 -0.1401
 6568TIP3   OH243898   0.105   1.537   6.271 -0.6246 -0.3220 -0.0017
 6568TIP3    H143899   0.190   1.530   6.227 -1.6377 -2.5036 -1.7838
 6568TIP3    H243900   0.123   1.513   6.362  0.8861  0.6704 -0.0029
 6569TIP3   OH243901   5.851   4.388   6.653  0.0113  0.1334 -0.3215
 6569TIP3    H143902   5.915   4.395   6.724  1.7925  0.1036 -1.8491
 6569TIP3    H243903   5.898   4.342   6.583 -2.0383 -0.8332 -1.1422
 6570TIP3   OH243904   5.236   1.374   5.784  0.1839  0.8253 -0.5781
 6570TIP3    H143905   5.189   1.414   5.858 -0.4012 -0.1253 -0.4169
 6570TIP3    H243906   5.316   1.426   5.775  1.8711 -0.8814  2.7627
 6571TIP3   OH243907   2.274   5.191   6.970 -0.2289  0.4423 -0.2973
 6571TIP3    H143908   2.244   5.280   6.993 -0.9360 -0.2944  1.8607
 6571TIP3    H243909   2.366   5.189   6.996 -0.4210  0.3027  0.3681
 6572TIP3   OH243910   2.340   1.829   7.483 -0.6518  0.5988  0.0877
 6572TIP3    H143911   2.383   1.751   7.448 -2.5656 -0.5756  0.1950
 6572TIP3    H243912   2.306   1.875   7.406 -0.8412  0.5011  0.1119
 6573TIP3   OH243913   2.878   5.743   4.767  0.1197 -0.5506 -0.1538
 6573TIP3    H143914   2.962   5.721   4.808 -0.7673 -1.3074  1.3455
 6573TIP3    H243915   2.843   5.812   4.822  0.9076  1.7466 -2.3271
 6574TIP3   OH243916   1.519   0.961   4.973 -0.3218 -0.3403 -0.1372
 6574TIP3    H143917   1.518   0.911   5.055 -0.2334  0.0845  0.1261
 6574TIP3    H243918   1.605   0.941   4.935 -0.0751  0.0091  0.2207
 6575TIP3   OH243919   6.389   5.269   5.410 -0.1022 -0.2903 -0.3124
 6575TIP3    H143920   6.434   5.337   5.359 -0.9430  0.2479 -0.3454
 6575TIP3    H243921   6.457   5.204   5.427  1.0341  1.0959  0.7251
 6576TIP3   OH243922   5.242   1.009   7.024  0.1903 -0.2891  0.7260
 6576TIP3    H143923   5.271   0.965   7.104  1.0250 -0.0656  0.5594
 6576TIP3    H243924   5.225   1.099   7.051 -0.2619 -0.3931  0.7998
 6577TIP3   OH243925   3.170   6.614   5.554 -0.1828  0.0379 -0.3312
 6577TIP3    H143926   3.108   6.604   5.626 -0.9302 -1.0709 -1.0966
 6577TIP3    H243927   3.256   6.597   5.593 -0.6403 -1.1531  0.1911
 6578TIP3   OH243928   5.636   6.382   6.554 -0.0645 -0.7928  0.3231
 6578TIP3    H143929   5.702   6.314   6.538  0.3675 -0.0999 -0.9805
 6578TIP3    H243930   5.686   6.457   6.586 -0.1760 -0.1949 -0.8712
 6579TIP3   OH243931   3.442   7.538   5.689 -0.2901  0.4533 -0.2138
 6579TIP3    H143932   3.482   7.454   5.664 -1.8863 -0.0298 -1.3226
 6579TIP3    H243933   3.515   7.591   5.719  0.8941 -1.0378 -0.3131
 6580TIP3   OH243934   4.893   2.115   5.233 -0.0883 -0.4441 -0.1841
 6580TIP3    H143935   4.884   2.021   5.217  0.3041 -0.6786  0.8975
 6580TIP3    H243936   4.806   2.151   5.214 -0.7111 -1.2735  0.9548
 6581TIP3   OH243937   0.766   6.706   4.907 -0.2902  0.0760 -0.1414
 6581TIP3    H143938   0.749   6.767   4.979 -0.2969  2.9389 -2.3320
 6581TIP3    H243939   0.860   6.716   4.890 -0.3616 -0.2663 -0.7398
 6582TIP3   OH243940   2.511   6.417   6.366 -0.1098 -0.2247  0.1883
 6582TIP3    H143941   2.450   6.473   6.318  0.6767  0.1233 -0.4319
 6582TIP3    H243942   2.584   6.403   6.305  1.0837  0.5009  1.3897
 6583TIP3   OH243943   7.108   2.396   5.878  0.0771  0.1084 -0.5089
 6583TIP3    H143944   7.047   2.327   5.904  0.4564  0.3107  1.0263
 6583TIP3    H243945   7.075   2.427   5.795 -0.2389 -1.7605 -1.1342
 6584TIP3   OH243946   3.891   3.629   6.478 -0.1195  0.4182  0.3600
 6584TIP3    H143947   3.932   3.542   6.480  0.6252  0.7395 -0.4212
 6584TIP3    H243948   3.817   3.621   6.538  0.9446 -0.2535  1.6559
 6585TIP3   OH243949   2.468   3.906   6.531  0.0351 -0.0631 -0.3195
 6585TIP3    H143950   2.402   3.868   6.589  0.2847  1.1944  0.8548
 6585TIP3    H243951   2.547   3.853   6.546 -0.4853 -1.0993 -1.1631
 6586TIP3   OH243952   2.391   3.422   6.647 -0.4312  0.4782 -0.3485
 6586TIP3    H143953   2.350   3.473   6.718  2.2591  1.2781  0.7663
 6586TIP3    H243954   2.446   3.359   6.692 -0.4632 -0.5954 -1.7633
 6587TIP3   OH243955   7.351   3.590   4.644  0.2918 -0.8348 -0.0658
 6587TIP3    H143956   7.268   3.561   4.606  0.9222 -2.6948 -0.1316
 6587TIP3    H243957   7.326   3.637   4.724 -0.8371 -0.9317 -0.3470
 6588TIP3   OH243958   2.166   1.155   6.629 -0.3991  0.2017 -0.0821
 6588TIP3    H143959   2.146   1.064   6.651 -0.4633  0.3065  0.3087
 6588TIP3    H243960   2.138   1.205   6.707 -0.0902  0.5217 -0.1735
 6589TIP3   OH243961   2.242   0.867   4.464  0.1064  1.0273  0.2500
 6589TIP3    H143962   2.287   0.948   4.490 -0.4892  1.1375  0.9501
 6589TIP3    H243963   2.155   0.896   4.438  0.4037  0.8108 -1.1088
 6590TIP3   OH243964   0.229   0.592   7.749  0.1419  0.2601  0.2692
 6590TIP3    H143965   0.199   0.540   7.824  1.2988 -1.6193 -0.5096
 6590TIP3    H243966   0.149   0.612   7.701 -0.4601  0.2282  1.2311
 6591TIP3   OH243967   3.529   2.036   6.654  0.1766 -0.1412  0.3970
 6591TIP3    H143968   3.536   1.968   6.587  0.9021 -1.4798  1.7677
 6591TIP3    H243969   3.606   2.091   6.640  0.6081 -0.7236  0.4664
 6592TIP3   OH243970   0.939   6.794   4.468 -0.5912 -0.5422 -0.1477
 6592TIP3    H143971   0.854   6.750   4.464 -0.1018 -1.4125 -1.8070
 6592TIP3    H243972   0.996   6.742   4.411  0.8341  0.5185  0.2467
 6593TIP3   OH243973   7.318   3.724   6.947  0.3022  0.3344  0.3354
 6593TIP3    H143974   7.401   3.677   6.959  0.3924  0.3250 -0.3133
 6593TIP3    H243975   7.252   3.654   6.941  0.7290  0.0467 -3.3469
 6594TIP3   OH243976   6.847   6.121   6.139 -0.1811 -0.5616  0.2739
 6594TIP3    H143977   6.821   6.068   6.214 -0.5992  0.9203  1.2109
 6594TIP3    H243978   6.940   6.139   6.154 -0.3667  0.0928  0.6839
 6595TIP3   OH243979   5.416   5.333   5.292  0.0430  0.4885 -0.3110
 6595TIP3    H143980   5.411   5.406   5.353 -1.1512 -0.4734  0.7888
 6595TIP3    H243981   5.503   5.340   5.253  1.0397  0.8771  1.8497
 6596TIP3   OH243982   5.721   2.937   6.523  0.2967 -0.5562  0.3099
 6596TIP3    H143983   5.806   2.906   6.493  0.0007  0.4173 -1.7179
 6596TIP3    H243984   5.662   2.922   6.448 -0.9296  0.3287  1.0479
 6597TIP3   OH243985   5.111   7.282   6.133 -0.2409 -0.4832  0.0015
 6597TIP3    H143986   5.133   7.190   6.120  2.1715 -0.2254  1.5817
 6597TIP3    H243987   5.183   7.317   6.186 -0.9700  2.3712 -0.6987
 6598TIP3   OH243988   7.541   6.337   6.252 -0.1141 -0.2306 -0.0893
 6598TIP3    H143989   7.493   6.255   6.260  0.3871 -0.4457  0.9227
 6598TIP3    H243990   7.583   6.349   6.338 -0.3127  1.1621 -0.1597
 6599TIP3   OH243991   0.643   7.081   4.923 -0.4367  0.0635  0.6568
 6599TIP3    H143992   0.581   7.009   4.918 -0.7100  0.3996 -1.9450
 6599TIP3    H243993   0.589   7.158   4.938 -0.7709  0.3849 -1.8095
 6600TIP3   OH243994   2.317   1.093   7.301 -0.1165 -0.3424 -0.1846
 6600TIP3    H143995   2.297   1.122   7.389 -1.6893  0.5454 -0.7951
 6600TIP3    H243996   2.291   1.166   7.245  2.9315  0.0382 -1.2820
 6601TIP3   OH243997   6.816   5.223   5.946  0.1438  0.5374 -0.7083
 6601TIP3    H143998   6.825   5.216   5.851 -0.2885  0.6433 -0.7583
 6601TIP3    H243999   6.826   5.317   5.964  0.1209  0.5308 -0.6602
 6602TIP3   OH244000   4.121   4.725   6.244  0.0403 -0.4185 -0.7454
 6602TIP3    H144001   4.076   4.716   6.160  0.7952  3.6032 -1.8156
 6602TIP3    H244002   4.211   4.750   6.220  0.9931 -1.5942  1.3092
 6603TIP3   OH244003   2.416   7.213   6.264  0.1563  0.2275  0.5031
 6603TIP3    H144004   2.377   7.243   6.345  0.9236 -0.9498  1.3412
 6603TIP3    H244005   2.344   7.171   6.217 -0.4303  1.4449  0.2689
 6604TIP3   OH244006   2.731   3.841   6.247  0.4213  0.4703 -0.6660
 6604TIP3    H144007   2.651   3.882   6.215 -0.6103 -1.4161 -0.6578
 6604TIP3    H244008   2.736   3.758   6.201  0.1644 -1.2824  2.1799
 6605TIP3   OH244009   2.314   6.779   5.070 -0.3027 -0.0764  0.1720
 6605TIP3    H144010   2.365   6.832   5.008  0.5702  0.7078  1.4987
 6605TIP3    H244011   2.270   6.714   5.015  1.0787  0.0624 -1.1818
 6606TIP3   OH244012   6.974   0.903   5.326 -0.3153  0.7679 -0.0890
 6606TIP3    H144013   6.939   0.917   5.238 -0.2877 -0.3501 -0.2917
 6606TIP3    H244014   6.942   0.978   5.376 -0.2303  1.4872 -1.0684
 6607TIP3   OH244015   6.308   0.419   7.173 -0.3222 -0.0756 -0.1762
 6607TIP3    H144016   6.296   0.443   7.081  0.2022 -0.0257 -0.2352
 6607TIP3    H244017   6.219   0.413   7.208 -0.5065  1.1491 -0.3743
 6608TIP3   OH244018   4.166   0.474   7.030 -0.3006 -0.0918  0.0638
 6608TIP3    H144019   4.229   0.485   7.101 -0.3612  0.5347  0.0234
 6608TIP3    H244020   4.120   0.557   7.026  0.8331  0.4886 -1.8112
 6609TIP3   OH244021   0.583   0.103   6.762  0.1236 -0.1226 -0.7624
 6609TIP3    H144022   0.623   0.061   6.838 -0.2712 -3.1878 -2.0841
 6609TIP3    H244023   0.542   0.031   6.714 -2.2125  2.0944 -2.3475
 6610TIP3   OH244024   1.883   3.496  12.080 -0.2036  0.5451  0.3856
 6610TIP3    H144025   1.973   3.475  12.053 -0.6345 -1.5310  0.4095
 6610TIP3    H244026   1.858   3.570  12.025  0.6189 -0.5078 -1.5063
 6611TIP3   OH244027   4.075   7.211   5.287  0.4251  0.3470 -0.2220
 6611TIP3    H144028   4.017   7.158   5.342 -0.4300  0.9343 -0.5333
 6611TIP3    H244029   4.107   7.150   5.220  0.2354 -0.0086  0.0063
 6612TIP3   OH244030   3.771   0.231   6.292  0.1121  0.0558  0.0826
 6612TIP3    H144031   3.677   0.227   6.313 -0.1795 -1.0089 -1.2907
 6612TIP3    H244032   3.775   0.274   6.207  0.9597  0.8287  0.4922
 6613TIP3   OH244033   5.369   3.500   6.056  0.0657  0.0723  0.8819
 6613TIP3    H144034   5.346   3.554   5.980  0.0031  2.4722  2.5071
 6613TIP3    H244035   5.447   3.541   6.092  0.1900 -1.1134  2.0223
 6614TIP3   OH244036   0.915   1.501   7.581 -0.4506  0.6464  0.1705
 6614TIP3    H144037   0.855   1.427   7.584 -0.4488  0.6764  2.4683
 6614TIP3    H244038   0.957   1.494   7.495 -1.1359 -1.4401 -0.0482
 6615TIP3   OH244039   1.373   4.721   6.608  0.0737 -0.3502 -0.2028
 6615TIP3    H144040   1.361   4.708   6.514 -0.6671  1.4246 -0.3955
 6615TIP3    H244041   1.457   4.767   6.615 -0.6787  1.0577 -0.1670
 6616TIP3   OH244042   2.752   4.839   5.975 -0.3101  0.0253  0.2828
 6616TIP3    H144043   2.682   4.808   5.918 -0.6623 -2.1903  1.7823
 6616TIP3    H244044   2.706   4.881   6.048  0.1153  2.1541 -0.5860
 6617TIP3   OH244045   5.931   0.488   6.651  0.1231 -0.6517  0.2116
 6617TIP3    H144046   5.877   0.410   6.637 -1.4991  0.4936 -0.2690
 6617TIP3    H244047   5.924   0.505   6.745 -1.2109  0.0209  0.0244
 6618TIP3   OH244048   6.146   2.199   6.141  0.4800  0.0908 -0.0796
 6618TIP3    H144049   6.232   2.188   6.100  0.7730  0.9512  0.2796
 6618TIP3    H244050   6.084   2.166   6.075  1.1510 -2.0941  0.2953
 6619TIP3   OH244051   3.998   5.988   5.567 -0.0118  0.0002 -0.6219
 6619TIP3    H144052   3.920   6.028   5.529 -1.1876  0.7941  2.3708
 6619TIP3    H244053   3.980   5.894   5.566 -2.5093  0.2518  2.6251
 6620TIP3   OH244054   2.015   7.576   7.642 -0.2341  0.5288 -0.2141
 6620TIP3    H144055   1.992   7.484   7.624  1.3990 -0.1131  0.7185
 6620TIP3    H244056   2.003   7.585   7.736  0.6171  0.9570 -0.1393
 6621TIP3   OH244057   2.306   1.680   5.682  0.4065 -0.1755 -0.1491
 6621TIP3    H144058   2.320   1.687   5.587  0.8453 -0.4003 -0.1057
 6621TIP3    H244059   2.242   1.610   5.691  0.6506 -0.4191 -0.2650
 6622TIP3   OH244060   7.303   4.272   6.101  0.5188 -0.1911 -0.2322
 6622TIP3    H144061   7.260   4.295   6.183  1.3876  1.6398 -0.2382
 6622TIP3    H244062   7.333   4.182   6.113 -2.7288 -1.3640 -0.0288
 6623TIP3   OH244063   4.408   6.766   5.727 -0.5450  0.1172  0.4605
 6623TIP3    H144064   4.397   6.675   5.752 -0.0551  0.0036  0.2780
 6623TIP3    H244065   4.489   6.768   5.677 -0.8694  0.5476 -0.0692
 6624TIP3   OH244066   6.183   3.427   5.794  0.4432  0.3235  0.0477
 6624TIP3    H144067   6.198   3.428   5.700  1.4072 -1.6064  0.1281
 6624TIP3    H244068   6.268   3.449   5.833  0.4825 -0.5051  0.4591
 6625TIP3   OH244069   5.512   0.536   5.364 -0.1899  0.1481  0.4308
 6625TIP3    H144070   5.525   0.554   5.271 -2.4188 -0.0808  0.0138
 6625TIP3    H244071   5.434   0.481   5.367  0.6491 -1.0612  2.3601
 6626TIP3   OH244072   1.354   6.047   6.631  0.2033 -0.2845  0.4058
 6626TIP3    H144073   1.396   6.001   6.703 -0.7086 -1.1289  0.4070
 6626TIP3    H244074   1.327   5.978   6.570  0.0918  0.3512 -0.2843
 6627TIP3   OH244075   5.506   3.770   6.649  0.2093 -0.6675  0.0022
 6627TIP3    H144076   5.524   3.806   6.735  0.2477  0.1520 -0.3398
 6627TIP3    H244077   5.426   3.814   6.620 -0.2032 -1.4505 -0.0971
 6628TIP3   OH244078   2.171   0.070   5.660  0.2214  0.0352  0.2381
 6628TIP3    H144079   2.217   0.140   5.614  0.3362  0.6678  1.2704
 6628TIP3    H244080   2.207   0.071   5.749 -0.6284 -0.5315  0.6129
 6629TIP3   OH244081   4.578   1.219   5.032  0.4420  0.2241 -0.0921
 6629TIP3    H144082   4.651   1.279   5.047 -0.6868  2.2888 -2.2993
 6629TIP3    H244083   4.614   1.149   4.977  1.7491 -1.2533  2.4506
 6630TIP3   OH244084   3.917   1.837   5.729 -0.3166 -0.0561 -0.3721
 6630TIP3    H144085   3.898   1.788   5.809 -0.6440 -1.0254 -1.0171
 6630TIP3    H244086   3.959   1.918   5.759 -0.2700 -0.4847  0.7607
 6631TIP3   OH244087   1.004   6.937   4.680 -0.2161 -0.4313  0.1529
 6631TIP3    H144088   0.932   6.998   4.690  1.7945  2.3340 -0.9795
 6631TIP3    H244089   0.993   6.898   4.594  0.3398  1.0459 -0.6088
 6632TIP3   OH244090   0.306   5.856   6.538  0.4727 -0.2777  0.1586
 6632TIP3    H144091   0.280   5.941   6.505  0.3342 -0.2332  0.3783
 6632TIP3    H244092   0.257   5.793   6.485 -0.6965 -0.1786  1.0689
 6633TIP3   OH244093   2.997   2.425   7.204 -0.3174 -0.0836  0.1214
 6633TIP3    H144094   2.923   2.364   7.198 -1.4468  1.3120 -0.8262
 6633TIP3    H244095   3.074   2.369   7.211 -1.5042 -1.6034  2.1867
 6634TIP3   OH244096   1.249   5.469   6.473 -0.3961 -0.2280  0.1704
 6634TIP3    H144097   1.202   5.545   6.507 -0.1741 -0.1009  0.1953
 6634TIP3    H244098   1.185   5.398   6.475  0.1903 -0.7735  2.8489
 6635TIP3   OH244099   4.474   6.784   6.191 -0.3165 -0.5311 -0.2812
 6635TIP3    H144100   4.559   6.802   6.152 -0.7856  2.4498 -0.1419
 6635TIP3    H244101   4.491   6.780   6.285 -0.2562 -0.4481 -0.2884
 6636TIP3   OH244102   1.008   6.749   5.275 -0.4662 -0.3821 -0.0756
 6636TIP3    H144103   0.925   6.770   5.232 -0.3446 -0.1634 -0.2044
 6636TIP3    H244104   1.035   6.666   5.236 -0.8669 -0.7040  0.3207
 6637TIP3   OH244105   3.824   5.210   6.247  0.3621 -0.3098  0.4266
 6637TIP3    H144106   3.740   5.226   6.205  0.6053  1.5891  0.5338
 6637TIP3    H244107   3.840   5.116   6.236 -1.0685 -0.4404 -0.8826
 6638TIP3   OH244108   1.848   5.891   6.585  0.3741 -0.8059 -0.4700
 6638TIP3    H144109   1.868   5.936   6.667  2.7023 -2.5603  0.0373
 6638TIP3    H244110   1.836   5.962   6.522 -2.1311  0.6173  1.4204
 6639TIP3   OH244111   3.626   5.666   5.469  0.1961 -0.2810 -0.0799
 6639TIP3    H144112   3.666   5.723   5.402 -1.5700  1.3960  0.1917
 6639TIP3    H244113   3.554   5.623   5.423 -0.3685  0.0745  0.4569
 6640TIP3   OH244114   3.563   5.834   5.135  0.2555 -0.0125  0.4689
 6640TIP3    H144115   3.563   5.854   5.041 -1.7662 -0.6663  0.2741
 6640TIP3    H244116   3.472   5.812   5.154  0.4660  0.8916  2.7682
 6641TIP3   OH244117   3.162   6.243   5.720  0.2727 -0.3180 -0.0630
 6641TIP3    H144118   3.159   6.338   5.728  2.2545  0.1571 -3.1483
 6641TIP3    H244119   3.255   6.221   5.726 -0.1496 -2.0888  0.6835
 6642TIP3   OH244120   2.213   4.678   4.949 -0.2986 -0.4990  0.8225
 6642TIP3    H144121   2.199   4.663   4.855  0.2777  1.4981  0.3641
 6642TIP3    H244122   2.145   4.627   4.992 -2.5529  0.9123 -0.8454
 6643TIP3   OH244123   6.180   3.599   4.976  0.0720  0.5951 -0.3010
 6643TIP3    H144124   6.223   3.672   4.932  1.5927 -1.1791 -1.9291
 6643TIP3    H244125   6.251   3.538   4.996 -1.2868 -0.9453 -0.0018
 6644TIP3   OH244126   5.039   4.109   5.598  0.3187 -0.0520  0.1917
 6644TIP3    H144127   5.074   4.191   5.564 -3.9804  2.7842  1.7855
 6644TIP3    H244128   5.058   4.112   5.692 -0.1486 -0.7514  0.3205
 6645TIP3   OH244129   5.482   2.438   6.947  0.7958  0.0595 -0.1309
 6645TIP3    H144130   5.459   2.495   7.021 -2.4992  0.4426 -1.2674
 6645TIP3    H244131   5.577   2.438   6.945  0.9667  2.1148  2.5143
 6646TIP3   OH244132   1.554   5.029   5.929  0.0426 -0.2764 -0.3978
 6646TIP3    H144133   1.534   5.025   5.835  0.6379  0.3239 -0.5598
 6646TIP3    H244134   1.635   4.980   5.939  0.4237  0.3428 -0.3430
 6647TIP3   OH244135   6.572   4.840   6.389 -0.1696 -0.1034 -0.6792
 6647TIP3    H144136   6.535   4.912   6.441 -1.1004 -0.6900 -0.5230
 6647TIP3    H244137   6.498   4.803   6.342  0.0178 -1.9360  0.3877
 6648TIP3   OH244138   3.594   5.750   5.883 -0.5071  0.0973 -0.5906
 6648TIP3    H144139   3.582   5.806   5.807 -0.4987  0.7586 -0.1162
 6648TIP3    H244140   3.687   5.728   5.883 -0.5384 -0.0364 -0.8598
 6649TIP3   OH244141   2.309   4.694   5.725  0.4959 -0.5285 -0.0762
 6649TIP3    H144142   2.225   4.680   5.768 -0.2159 -0.2339 -1.3094
 6649TIP3    H244143   2.288   4.749   5.649  2.0596  0.9199  0.4821
 6650TIP3   OH244144   3.124   5.599   6.762 -0.0811  0.1906 -0.2246
 6650TIP3    H144145   3.099   5.689   6.741  1.7657  0.8412  0.1911
 6650TIP3    H244146   3.071   5.577   6.839  1.5156  2.0107  1.4891
 6651TIP3   OH244147   6.306   1.619   5.809 -0.5404 -0.3634 -0.6018
 6651TIP3    H144148   6.276   1.705   5.839 -1.3397 -0.7659 -0.2201
 6651TIP3    H244149   6.393   1.609   5.847 -0.7739 -0.0667  0.0269
 6652TIP3   OH244150   0.489   1.391   4.859  0.5093  0.2336 -0.7011
 6652TIP3    H144151   0.452   1.333   4.925  2.2321 -0.0492  0.0770
 6652TIP3    H244152   0.468   1.479   4.890  1.3826  0.1071  0.3105
 6653TIP3   OH244153   0.169   0.513   5.692  0.5084 -0.4117 -0.6020
 6653TIP3    H144154   0.173   0.605   5.720 -4.2003 -0.2516  0.3855
 6653TIP3    H244155   0.135   0.517   5.603  0.0780 -1.1725 -0.4771
 6654TIP3   OH244156   0.626   2.638   5.453 -0.5198 -0.0013  0.0703
 6654TIP3    H144157   0.639   2.733   5.460  1.4665 -0.1331 -0.9311
 6654TIP3    H244158   0.582   2.614   5.534 -0.6478  1.7148  0.5590
 6655TIP3   OH244159   2.755   0.461   6.708  0.4440  0.2856 -0.2458
 6655TIP3    H144160   2.828   0.419   6.754  0.4135 -0.9846 -1.3054
 6655TIP3    H244161   2.680   0.447   6.765  0.5175 -0.7692 -0.3934
 6656TIP3   OH244162   6.768   6.603   4.953  0.3370 -0.4551 -0.2376
 6656TIP3    H144163   6.684   6.648   4.946 -0.0295 -1.2709 -1.5892
 6656TIP3    H244164   6.830   6.671   4.976 -0.3874  0.5240 -1.0820
 6657TIP3   OH244165   4.525   3.449   5.203 -0.4385 -0.0342 -0.0945
 6657TIP3    H144166   4.594   3.513   5.222  0.2267 -0.6691 -0.3408
 6657TIP3    H244167   4.444   3.493   5.231  0.3279 -0.5710  3.5464
 6658TIP3   OH244168   0.702   3.666   5.678  0.7606  0.6738  0.2361
 6658TIP3    H144169   0.687   3.760   5.691  0.7400  0.6389  0.4726
 6658TIP3    H244170   0.783   3.661   5.628  0.6995  0.8225  0.1237
 6659TIP3   OH244171   2.757   5.565   5.005  0.3578  0.1746 -0.6967
 6659TIP3    H144172   2.829   5.510   5.036  1.0963  0.7199 -1.3871
 6659TIP3    H244173   2.800   5.633   4.952 -0.7126  0.0968 -1.7158
 6660TIP3   OH244174   1.267   5.136   7.316 -0.1593 -0.0572  0.7468
 6660TIP3    H144175   1.285   5.146   7.410  1.3255 -1.6924  0.6956
 6660TIP3    H244176   1.314   5.057   7.291 -1.1796 -0.1061 -1.2359
 6661TIP3   OH244177   4.086   4.398   6.206 -0.3636 -0.1900 -0.0577
 6661TIP3    H144178   4.135   4.432   6.131  0.7997  1.1557  1.2515
 6661TIP3    H244179   4.019   4.465   6.223 -0.6690 -0.5228  0.0568
 6662TIP3   OH244180   4.831   2.290   6.174 -0.3689  0.1517  0.2203
 6662TIP3    H144181   4.745   2.250   6.185 -0.0023 -1.2199 -1.5116
 6662TIP3    H244182   4.827   2.333   6.088  0.2485  1.2329  0.7129
 6663TIP3   OH244183   7.322   4.500   5.688  0.6815  0.5170  0.1013
 6663TIP3    H144184   7.368   4.416   5.688 -0.1463 -0.0117 -2.6016
 6663TIP3    H244185   7.288   4.508   5.777  1.5640 -1.5634  0.6904
 6664TIP3   OH244186   7.041   5.983   6.895 -0.2871 -0.0508  0.6569
 6664TIP3    H144187   6.999   6.022   6.818 -3.4319  1.1640  2.7917
 6664TIP3    H244188   7.134   6.001   6.883 -0.5870 -0.1215 -2.9056
 6665TIP3   OH244189   2.109   5.372   7.198 -0.4649  0.0622 -0.3358
 6665TIP3    H144190   2.038   5.309   7.196  0.5463 -1.1152 -1.0858
 6665TIP3    H244191   2.186   5.322   7.225  0.6760  0.5789 -2.3308
 6666TIP3   OH244192   4.562   5.124   7.065 -0.2352 -0.0421  0.4092
 6666TIP3    H144193   4.543   5.158   6.978  2.0207 -1.2982 -0.6386
 6666TIP3    H244194   4.510   5.043   7.071  0.7687 -0.7653 -0.4065
 6667TIP3   OH244195   6.461   1.208   7.721 -0.2753  0.2493 -0.3621
 6667TIP3    H144196   6.522   1.163   7.662 -1.2580 -0.3145 -0.9716
 6667TIP3    H244197   6.488   1.300   7.717  0.8221 -0.0486 -0.2537
 6668TIP3   OH244198   0.478   2.574   5.672 -0.4160  0.0713  0.6240
 6668TIP3    H144199   0.385   2.576   5.695 -0.1088 -2.4956  2.4955
 6668TIP3    H244200   0.523   2.589   5.755  0.8537  0.4732 -0.1257
 6669TIP3   OH244201   0.719   0.455   5.862  0.1491  0.3363 -0.3450
 6669TIP3    H144202   0.807   0.425   5.839 -0.1625  0.3294 -1.6306
 6669TIP3    H244203   0.660   0.393   5.820 -0.5265 -0.9756  2.3335
 6670TIP3   OH244204   6.263   7.042   6.990 -0.0254 -0.3011 -0.2475
 6670TIP3    H144205   6.181   7.021   7.034  0.9593 -0.6131  1.5464
 6670TIP3    H244206   6.292   7.123   7.033  1.8195 -1.5385  0.9967
 6671TIP3   OH244207   5.773   4.613   5.815  0.4421  0.0262  0.2020
 6671TIP3    H144208   5.706   4.546   5.800  1.2947 -1.1935  1.6243
 6671TIP3    H244209   5.791   4.608   5.909  2.3753  0.4746 -0.1095
 6672TIP3   OH244210   0.614   1.752   5.313 -0.6557 -0.1924 -0.1565
 6672TIP3    H144211   0.619   1.664   5.276 -2.4445 -0.8413  0.9771
 6672TIP3    H244212   0.522   1.776   5.303 -0.7435  0.4742  1.8653
 6673TIP3   OH244213   2.431   7.572   6.372 -0.4372  0.5078 -0.4820
 6673TIP3    H144214   2.519   7.547   6.343 -0.5144  0.7273 -0.9261
 6673TIP3    H244215   2.428   7.667   6.360 -0.7131  0.5085 -0.4172
 6674TIP3   OH244216   2.846   3.419   4.682  0.2093 -0.0301 -0.1121
 6674TIP3    H144217   2.832   3.326   4.700 -1.0035  0.3551  1.1209
 6674TIP3    H244218   2.803   3.434   4.598 -0.9613 -0.2894  0.4174
 6675TIP3   OH244219   1.782   6.988   5.581 -0.3067 -0.0731  1.2303
 6675TIP3    H144220   1.762   6.937   5.659  2.1934  0.3331  2.2597
 6675TIP3    H244221   1.852   6.939   5.538 -0.6576  0.4496  0.0104
 6676TIP3   OH244222   4.762   2.574   4.855  0.3690  0.1165 -0.0868
 6676TIP3    H144223   4.826   2.645   4.863  0.7529 -0.2526  0.1439
 6676TIP3    H244224   4.806   2.498   4.892 -0.0980 -0.2098 -0.1971
 6677TIP3   OH244225   6.824   0.456   6.993  0.5884 -0.5184 -0.2659
 6677TIP3    H144226   6.859   0.389   6.934  0.2898  0.1041 -1.1788
 6677TIP3    H244227   6.754   0.411   7.041  2.1737 -1.6032  1.1481
 6678TIP3   OH244228   1.143   2.471   6.736  0.4137  0.7718 -0.0661
 6678TIP3    H144229   1.112   2.426   6.657 -0.0644 -1.4262  1.2771
 6678TIP3    H244230   1.075   2.536   6.755 -0.7442 -0.3685 -0.1383
 6679TIP3   OH244231   0.890   0.831   5.892  0.0773 -0.2930 -0.1987
 6679TIP3    H144232   0.837   0.780   5.953  1.6607 -0.3796  1.2002
 6679TIP3    H244233   0.880   0.786   5.808 -1.0019 -1.0574  0.3182
 6680TIP3   OH244234   5.800   3.571   6.920 -0.2202 -0.3615 -0.0427
 6680TIP3    H144235   5.707   3.562   6.898 -0.3394 -2.7657  1.0943
 6680TIP3    H244236   5.843   3.589   6.837 -1.6558  0.4384 -0.6442
 6681TIP3   OH244237   6.109   3.922   5.123  0.6106 -0.3654  0.0742
 6681TIP3    H144238   6.044   3.865   5.164  0.2474  0.9323  1.3643
 6681TIP3    H244239   6.068   4.008   5.119  1.2191 -0.1066 -1.6802
 6682TIP3   OH244240   7.051   4.188   4.440  0.0235  0.1320  0.1197
 6682TIP3    H144241   6.956   4.193   4.453 -0.0412 -0.7903  0.0940
 6682TIP3    H244242   7.064   4.108   4.389  0.5101  2.0334 -3.0140
 6683TIP3   OH244243   3.289   4.323   5.939  0.0319  0.1542  0.2201
 6683TIP3    H144244   3.276   4.413   5.908  1.2431  0.5120  0.6683
 6683TIP3    H244245   3.358   4.288   5.883  0.3778 -0.0866  0.7790
 6684TIP3   OH244246   7.405   5.325   7.528  0.0639 -0.1527 -0.8768
 6684TIP3    H144247   7.404   5.229   7.522  0.0987 -0.1649 -0.6813
 6684TIP3    H244248   7.498   5.348   7.521  0.1351 -0.1841 -0.1082
 6685TIP3   OH244249   4.635   3.262   6.550 -0.0383  0.1647 -0.4375
 6685TIP3    H144250   4.579   3.262   6.472 -0.1231 -0.1341 -0.3793
 6685TIP3    H244251   4.606   3.185   6.600 -0.9954  1.1727  0.6104
 6686TIP3   OH244252   0.436   5.447   6.801 -0.3109  0.1055 -0.3815
 6686TIP3    H144253   0.370   5.468   6.866  0.1443 -1.6695  0.7265
 6686TIP3    H244254   0.387   5.424   6.723 -0.9741 -0.1941  0.1165
 6687TIP3   OH244255   2.909   6.759   4.560  0.4628  0.2220  0.4186
 6687TIP3    H144256   2.952   6.724   4.482 -0.2298  0.6619 -0.1856
 6687TIP3    H244257   2.815   6.754   4.539  0.2958  0.9287  0.9643
 6688TIP3   OH244258   0.787   4.517   5.318  0.0793  0.2738  0.2380
 6688TIP3    H144259   0.872   4.544   5.285  0.5285 -1.7675 -0.4563
 6688TIP3    H244260   0.799   4.512   5.413  0.2824  1.3668  0.2827
 6689TIP3   OH244261   1.844   5.496   7.075 -0.0026  0.2394 -0.3625
 6689TIP3    H144262   1.803   5.459   6.996 -1.4866 -2.2438  1.4434
 6689TIP3    H244263   1.818   5.588   7.073 -2.1319 -0.3080 -1.5315
 6690TIP3   OH244264   6.463   4.426   5.973 -0.2211  0.1748 -0.2316
 6690TIP3    H144265   6.390   4.472   5.931  1.2347  2.5701 -0.2725
 6690TIP3    H244266   6.446   4.333   5.954 -2.3057  0.7915 -1.7360
 6691TIP3   OH244267   2.175   2.670   6.885  0.5009  0.7060  0.3176
 6691TIP3    H144268   2.175   2.586   6.839  0.8571  1.6380 -1.4850
 6691TIP3    H244269   2.132   2.652   6.968  1.7044 -1.5394  0.5261
 6692TIP3   OH244270   0.781   7.173   6.474 -0.3867 -1.0438  0.0629
 6692TIP3    H144271   0.818   7.121   6.546 -0.2836  1.5901  2.0795
 6692TIP3    H244272   0.852   7.233   6.449 -1.3941  0.0928 -0.1395
 6693TIP3   OH244273   3.179   4.906   6.174 -0.2344  0.8508 -0.0632
 6693TIP3    H144274   3.105   4.846   6.182  0.4318  0.2663  2.5510
 6693TIP3    H244275   3.140   4.988   6.143 -1.5851 -0.0758 -0.9450
 6694TIP3   OH244276   3.848   4.942   4.788  0.2342 -0.2052 -0.1004
 6694TIP3    H144277   3.796   4.970   4.713  2.7667  0.1226 -1.8197
 6694TIP3    H244278   3.795   4.967   4.864 -0.8458  2.7573 -1.6743
 6695TIP3   OH244279   2.976   0.528   7.263  0.1337 -0.3254 -0.4906
 6695TIP3    H144280   2.930   0.609   7.283  1.7282  0.8076 -1.2439
 6695TIP3    H244281   3.040   0.519   7.333  0.7600 -0.2939 -1.0559
 6696TIP3   OH244282   1.977   5.918   6.043  0.0300 -0.4548 -0.3846
 6696TIP3    H144283   2.044   5.967   5.994  0.3736  0.5195  1.0056
 6696TIP3    H244284   1.894   5.951   6.011  0.2055  2.7646  1.9965
 6697TIP3   OH244285   6.706   4.062   5.789 -0.0767  0.3167 -0.0667
 6697TIP3    H144286   6.738   4.031   5.873 -1.5359  0.6706  0.6579
 6697TIP3    H244287   6.761   4.018   5.724  0.4342 -0.7139  1.0356
 6698TIP3   OH244288   4.093   1.310   5.177 -0.4106  0.8443 -0.7651
 6698TIP3    H144289   4.136   1.366   5.241 -0.9988 -0.4035  0.7626
 6698TIP3    H244290   4.163   1.287   5.115  0.6071  0.6477  0.4146
 6699TIP3   OH244291   2.336   7.363   4.825  0.1589  0.0885  0.2490
 6699TIP3    H144292   2.312   7.454   4.804  0.0439  0.1572  0.6675
 6699TIP3    H244293   2.258   7.312   4.805  0.0967  0.1342  0.3746
 6700TIP3   OH244294   3.905   5.665   5.940 -0.4775  0.2717  0.1536
 6700TIP3    H144295   3.975   5.610   5.904  0.3709 -0.4157  2.6682
 6700TIP3    H244296   3.865   5.611   6.008 -2.6546  1.1477 -0.3610
 6701TIP3   OH244297   3.250   1.744   5.430 -0.2878  0.3868  0.2496
 6701TIP3    H144298   3.207   1.829   5.443 -0.0009  0.5888 -0.1022
 6701TIP3    H244299   3.339   1.767   5.402 -0.0999 -0.0292  0.5075
 6702TIP3   OH244300   5.092   6.901   5.583  0.0872  0.5771  0.2147
 6702TIP3    H144301   5.073   6.948   5.665 -1.2397  0.1076  0.1917
 6702TIP3    H244302   5.187   6.891   5.584  0.3023  2.2463  0.7770
 6703TIP3   OH244303   5.624   1.539   6.428  0.0402  0.1273  0.1044
 6703TIP3    H144304   5.664   1.470   6.375  0.6181  0.6945 -0.2040
 6703TIP3    H244305   5.680   1.615   6.416 -1.7735  1.3172 -1.2709
 6704TIP3   OH244306   6.658   3.182   4.718 -0.2065 -0.3822 -0.1641
 6704TIP3    H144307   6.718   3.145   4.782  0.5942  0.6866 -0.2649
 6704TIP3    H244308   6.579   3.129   4.725  0.0522 -0.6113  1.3368
 6705TIP3   OH244309   5.774   4.252   6.393 -0.3003  0.0914  0.3819
 6705TIP3    H144310   5.782   4.161   6.365  1.7000  1.2884 -3.7130
 6705TIP3    H244311   5.858   4.274   6.432 -0.0595  0.6280 -0.4022
 6706TIP3   OH244312   4.047   2.539   6.463  0.2731 -0.1778  0.5176
 6706TIP3    H144313   3.967   2.489   6.475 -0.3202  0.7719  0.6318
 6706TIP3    H244314   4.104   2.513   6.535 -0.3112 -0.1375  0.9931
 6707TIP3   OH244315   2.006   7.041   5.964 -0.0282 -0.3030 -0.5195
 6707TIP3    H144316   2.061   7.049   5.886 -0.0656  1.4650 -0.4096
 6707TIP3    H244317   2.050   7.096   6.029 -0.9397 -0.3424  0.1424
 6708TIP3   OH244318   6.667   5.003   5.288 -0.2123 -0.0167  0.1499
 6708TIP3    H144319   6.692   4.916   5.319 -0.0306 -0.0225 -0.0119
 6708TIP3    H244320   6.682   5.060   5.364 -0.1773 -0.0981  0.2052
 6709TIP3   OH244321   1.976   0.123   6.622  0.3940  0.5644 -0.2127
 6709TIP3    H144322   1.900   0.180   6.633 -0.1438 -0.2294  0.3210
 6709TIP3    H244323   1.955   0.068   6.547 -0.8257 -1.5182  1.5157
 6710TIP3   OH244324   4.119   4.111   5.476 -0.1140  0.4705 -0.4426
 6710TIP3    H144325   4.097   4.161   5.398  1.1206 -0.0905 -1.1792
 6710TIP3    H244326   4.179   4.043   5.445  0.1241  0.0201  0.9339
 6711TIP3   OH244327   5.823   6.754   5.115  0.6241  0.2940 -0.1490
 6711TIP3    H144328   5.842   6.748   5.022  0.6583 -0.2724 -0.1109
 6711TIP3    H244329   5.906   6.778   5.156  0.8200 -0.3042 -0.1807
 6712TIP3   OH244330   6.021   4.069   6.120  0.2414  0.2929 -0.3233
 6712TIP3    H144331   5.950   4.130   6.102  0.2588  0.7387  1.0418
 6712TIP3    H244332   6.039   4.028   6.035 -0.9713  0.8781 -0.8848
 6713TIP3   OH244333   7.393   6.092   6.255  0.0497  0.0767  0.7350
 6713TIP3    H144334   7.394   5.999   6.278  3.1592 -0.2592 -0.2579
 6713TIP3    H244335   7.382   6.093   6.160 -0.4079  0.7687  0.7875
 6714TIP3   OH244336   6.877   0.629   5.469  0.2146 -0.0410 -0.3466
 6714TIP3    H144337   6.899   0.711   5.425  0.6950 -0.6762 -1.3262
 6714TIP3    H244338   6.812   0.654   5.535  2.5314  1.6560  1.4849
 6715TIP3   OH244339   7.429   2.113   4.653  0.1333 -0.6461 -0.1491
 6715TIP3    H144340   7.351   2.115   4.597  0.3759  1.5537 -0.4965
 6715TIP3    H244341   7.422   2.031   4.701 -1.9989 -0.8631 -0.7397
 6716TIP3   OH244342   2.826   2.013   6.966  0.2304 -0.1800  0.0116
 6716TIP3    H144343   2.857   1.933   6.924  0.5131 -0.6323  1.0611
 6716TIP3    H244344   2.864   2.010   7.054  0.4600  1.2343 -0.0188
 6717TIP3   OH244345   2.209   0.944   5.384 -0.3675  0.3452 -0.0876
 6717TIP3    H144346   2.154   1.014   5.421 -0.0565 -0.1737  1.4369
 6717TIP3    H244347   2.228   0.887   5.458 -0.2423 -1.1297 -1.2112
 6718TIP3   OH244348   4.702   4.374   5.198  1.0197  0.0151  0.1160
 6718TIP3    H144349   4.729   4.357   5.288  1.7119 -0.0764 -0.1020
 6718TIP3    H244350   4.751   4.311   5.145 -0.6304 -1.0552 -0.1908
 6719TIP3   OH244351   7.357   0.328   6.483 -0.3410  0.7748 -0.0320
 6719TIP3    H144352   7.342   0.301   6.392  0.0888  0.7111 -0.0851
 6719TIP3    H244353   7.441   0.289   6.506 -0.9412 -0.1011  0.7511
 6720TIP3   OH244354   6.666   0.770   5.280 -0.3398 -0.1362  0.4232
 6720TIP3    H144355   6.714   0.778   5.362 -1.1647  0.0260  0.9043
 6720TIP3    H244356   6.616   0.852   5.273 -0.0023  0.0176 -0.4348
 6721TIP3   OH244357   7.584   7.014   5.738  0.1298  0.1361 -0.7403
 6721TIP3    H144358   7.512   6.969   5.693  0.5545  0.0910 -1.3868
 6721TIP3    H244359   7.543   7.054   5.814 -0.1375 -2.0190  0.3213
 6722TIP3   OH244360   6.525   4.835   6.058 -0.3530 -0.5658  0.4195
 6722TIP3    H144361   6.438   4.839   6.096 -0.2453 -0.4154  0.6513
 6722TIP3    H244362   6.540   4.923   6.023  0.0860 -0.3085  1.2284
 6723TIP3   OH244363   2.670   5.731   4.585 -0.1062 -0.3509  0.1318
 6723TIP3    H144364   2.741   5.718   4.647  0.9851 -0.5551 -1.1112
 6723TIP3    H244365   2.714   5.749   4.501 -1.5149  1.1240 -0.3548
 6724TIP3   OH244366   2.542   5.242   6.954 -0.7334 -0.3859  0.2798
 6724TIP3    H144367   2.606   5.179   6.921 -0.9226 -0.2038 -0.4590
 6724TIP3    H244368   2.584   5.280   7.031  0.1474 -0.1209 -0.3094
 6725TIP3   OH244369   4.972   2.770   4.818 -0.0901  0.3174  0.3258
 6725TIP3    H144370   4.942   2.778   4.908  1.1101  2.6399  0.5769
 6725TIP3    H244371   4.919   2.833   4.769 -0.2847 -0.4617 -0.4930
 6726TIP3   OH244372   1.611   4.936   4.565  0.1199 -0.3681 -0.3722
 6726TIP3    H144373   1.649   5.006   4.619 -1.0723 -0.0555  0.1117
 6726TIP3    H244374   1.576   4.982   4.488 -0.6377 -0.4194 -0.0687
 6727TIP3   OH244375   5.701   6.766   7.680 -0.2517  0.4763 -0.1670
 6727TIP3    H144376   5.791   6.783   7.653 -0.5717  2.9384  0.0269
 6727TIP3    H244377   5.707   6.690   7.738  1.2939 -1.0357 -2.1593
 6728TIP3   OH244378   7.538   4.054   5.240  0.1838 -0.5481  0.2844
 6728TIP3    H144379   7.508   4.067   5.149 -1.4666  2.7173  1.1231
 6728TIP3    H244380   7.617   4.107   5.246  1.7825 -2.7886  0.1997
 6729TIP3   OH244381   3.789   3.770   5.661 -0.1241  0.1223  0.2413
 6729TIP3    H144382   3.707   3.817   5.673  0.5012  1.1056  0.8747
 6729TIP3    H244383   3.856   3.839   5.655  0.4951 -0.5827 -1.9342
 6730TIP3   OH244384   2.919   1.288   5.830  0.4460 -0.1458 -0.2105
 6730TIP3    H144385   2.911   1.372   5.786 -3.1414  0.8725  1.8885
 6730TIP3    H244386   2.889   1.223   5.766  0.0565  0.6125 -0.8006
 6731TIP3   OH244387   7.026   6.385   5.588 -0.3573  0.8502 -0.1303
 6731TIP3    H144388   7.105   6.403   5.639 -0.0141 -0.5713 -0.1229
 6731TIP3    H244389   6.987   6.471   5.574  1.0613  1.5542  0.0701
 6732TIP3   OH244390   5.405   5.346   6.088 -0.1867 -0.2842  0.3056
 6732TIP3    H144391   5.419   5.337   6.182  1.7294  2.4800  0.3864
 6732TIP3    H244392   5.470   5.287   6.048  0.2190 -0.1116  0.7081
 6733TIP3   OH244393   0.857   7.421   5.464 -0.1505 -0.2310  0.2589
 6733TIP3    H144394   0.933   7.396   5.516 -0.1290 -0.2548  0.2160
 6733TIP3    H244395   0.783   7.412   5.524 -0.0899  0.0308  0.3738
 6734TIP3   OH244396   7.161   2.517   5.069 -0.1331 -0.1831  0.6009
 6734TIP3    H144397   7.163   2.469   4.986 -1.3100 -0.5421  0.7625
 6734TIP3    H244398   7.087   2.576   5.060 -0.2656 -0.2245  1.4043
 6735TIP3   OH244399   6.547   4.705   5.339  0.9242  0.2259 -0.6953
 6735TIP3    H144400   6.524   4.613   5.328 -2.1512  0.2526  3.2669
 6735TIP3    H244401   6.471   4.753   5.307 -0.1887  0.9107  2.5439
 6736TIP3   OH244402   5.708   2.930   5.539  0.0086  0.3558  0.0943
 6736TIP3    H144403   5.639   2.944   5.475 -0.2933  0.4014  0.4239
 6736TIP3    H244404   5.669   2.873   5.605  0.8100 -0.9726 -0.5520
 6737TIP3   OH244405   6.198   5.723   6.721  0.1208 -0.3565 -0.0447
 6737TIP3    H144406   6.202   5.717   6.816  1.5428  0.1402 -0.0444
 6737TIP3    H244407   6.252   5.799   6.699  0.5789 -1.0032 -1.2959
 6738TIP3   OH244408   7.225   7.332   5.247  0.0238  0.7631 -0.0783
 6738TIP3    H144409   7.153   7.274   5.221  0.3273  0.1602  0.4028
 6738TIP3    H244410   7.189   7.421   5.236 -0.5064  0.4904 -0.6499
 6739TIP3   OH244411   2.175   0.884   7.902 -0.1422  0.1374  0.1836
 6739TIP3    H144412   2.144   0.969   7.871  0.8499  0.1472 -0.8396
 6739TIP3    H244413   2.101   0.848   7.951 -0.9147  1.1610 -0.1908
 6740TIP3   OH244414   2.322   4.394   5.874  0.0156 -0.1076 -0.0343
 6740TIP3    H144415   2.258   4.367   5.940  0.4558 -0.0181  0.4377
 6740TIP3    H244416   2.407   4.384   5.918  0.4180 -1.3495 -1.0255
 6741TIP3   OH244417   4.322   1.249   5.762  0.0472 -0.7160  0.5358
 6741TIP3    H144418   4.391   1.315   5.751  0.9830 -1.4962  1.4982
 6741TIP3    H244419   4.369   1.166   5.768 -1.0745 -1.4238 -0.0925
 6742TIP3   OH244420   5.852   2.163   5.001  0.5761 -0.1122  0.1911
 6742TIP3    H144421   5.906   2.238   4.977 -1.1420  1.2178  0.3006
 6742TIP3    H244422   5.859   2.157   5.096 -1.0154  1.3615  0.4487
 6743TIP3   OH244423   0.807   0.212   6.058  0.0559 -0.0097  0.5854
 6743TIP3    H144424   0.771   0.294   6.092  0.1319 -0.4163  1.6833
 6743TIP3    H244425   0.766   0.144   6.111 -1.3812 -0.8519 -1.4677
 6744TIP3   OH244426   5.784   7.360   5.980  0.4359 -0.1317 -0.0816
 6744TIP3    H144427   5.714   7.295   5.976 -1.3849  1.6404  1.3344
 6744TIP3    H244428   5.856   7.314   6.024  0.0774 -1.8695 -1.1983
 6745TIP3   OH244429   2.332   4.687   6.134 -0.0848 -0.0539  0.5477
 6745TIP3    H144430   2.278   4.688   6.055 -0.3340 -0.6829  0.7056
 6745TIP3    H244431   2.298   4.614   6.186  0.5382 -0.0952  0.9117
 6746TIP3   OH244432   4.549   3.586   6.283 -0.4991  0.1613 -0.6082
 6746TIP3    H144433   4.632   3.586   6.331 -0.3307 -2.8476 -0.7111
 6746TIP3    H244434   4.499   3.658   6.322  0.5603 -0.5754  2.3824
 6747TIP3   OH244435   2.186   1.332   6.866 -0.2284  0.0289  0.4368
 6747TIP3    H144436   2.234   1.415   6.861 -1.6537  0.8194 -0.9040
 6747TIP3    H244437   2.094   1.357   6.871 -0.7865 -1.4609 -1.2295
 6748TIP3   OH244438   0.610   0.341   4.875  0.5123  0.1753  0.5246
 6748TIP3    H144439   0.541   0.371   4.934  1.4388  0.1369  1.6692
 6748TIP3    H244440   0.595   0.246   4.869  0.2264  0.2237  0.4473
 6749TIP3   OH244441   5.187   2.980   6.356  0.1677  0.3539 -0.4694
 6749TIP3    H144442   5.273   2.944   6.376  0.6343  0.6681 -1.7500
 6749TIP3    H244443   5.145   2.913   6.301 -1.2194 -0.6688  1.7224
 6750TIP3   OH244444   2.942   1.994   7.524  0.0604 -0.5032 -0.0911
 6750TIP3    H144445   2.850   2.003   7.499  0.3456 -1.5608 -1.6851
 6750TIP3    H244446   2.984   2.074   7.494 -0.4016  0.2021  1.0830
 6751TIP3   OH244447   7.302   7.229   6.083  0.0987 -0.2605 -0.2620
 6751TIP3    H144448   7.241   7.300   6.105  0.3244 -0.0117 -0.4359
 6751TIP3    H244449   7.252   7.149   6.099 -0.3359 -0.0549 -0.5686
 6752TIP3   OH244450   1.673   0.789   5.632 -0.0025 -0.2344  0.1385
 6752TIP3    H144451   1.651   0.733   5.557 -0.6250 -1.1776  1.0064
 6752TIP3    H244452   1.764   0.816   5.615 -0.1812 -0.3010 -1.0267
 6753TIP3   OH244453   5.936   2.333   5.927  0.4557  0.6660  0.5465
 6753TIP3    H144454   5.909   2.249   5.888  0.1739  0.2125  1.6727
 6753TIP3    H244455   6.010   2.361   5.873  0.4550 -0.2318  0.0468
 6754TIP3   OH244456   7.081   3.190   6.143  0.2330 -0.1200 -0.8951
 6754TIP3    H144457   7.030   3.266   6.170  1.8793  0.6184  0.2478
 6754TIP3    H244458   7.087   3.136   6.221  0.8190 -0.4259 -1.1446
 6755TIP3   OH244459   4.855   0.900   5.864 -0.0458  0.0110 -0.6747
 6755TIP3    H144460   4.863   0.805   5.856  1.1214  0.0431 -0.1887
 6755TIP3    H244461   4.861   0.933   5.774 -0.7427 -0.3906 -0.8680
 6756TIP3   OH244462   5.668   5.987   5.026 -0.1513 -0.2391 -0.0264
 6756TIP3    H144463   5.666   6.025   4.938  1.6856  0.8268  0.3421
 6756TIP3    H244464   5.695   5.896   5.011 -0.7502 -0.3349 -0.6089
 6757TIP3   OH244465   5.032   7.506   5.155  0.1547 -0.9142  1.1900
 6757TIP3    H144466   4.996   7.428   5.113  0.0392 -0.6746  0.8377
 6757TIP3    H244467   4.960   7.569   5.156  0.4030 -0.6193  0.9708
 6758TIP3   OH244468   1.781   1.170   5.126  0.6211 -0.0518  0.4633
 6758TIP3    H144469   1.793   1.225   5.049  2.3560  0.8509  1.3306
 6758TIP3    H244470   1.727   1.222   5.185 -0.7998 -0.7868 -0.1396
 6759TIP3   OH244471   6.738   5.830   6.423 -0.2749 -0.3833 -0.0300
 6759TIP3    H144472   6.811   5.770   6.433 -0.2815 -0.3665  0.1273
 6759TIP3    H244473   6.694   5.802   6.343  2.7963  2.6634 -3.1869
 6760TIP3   OH244474   7.457   6.739   6.827  0.1905 -0.1298 -0.7176
 6760TIP3    H144475   7.401   6.806   6.787 -0.8231 -0.8427 -0.5337
 6760TIP3    H244476   7.465   6.766   6.918 -0.2388 -0.2625 -0.6378
 6761TIP3   OH244477   6.717   2.861   5.105 -0.4471  0.1908  0.3306
 6761TIP3    H144478   6.734   2.952   5.082  0.3588  0.6119  2.3609
 6761TIP3    H244479   6.645   2.834   5.047 -0.4770  2.0045 -0.5276
 6762TIP3   OH244480   2.551   3.226   4.819 -0.2727 -0.0720 -0.3612
 6762TIP3    H144481   2.489   3.279   4.768 -1.4407  0.5690  1.6330
 6762TIP3    H244482   2.543   3.259   4.908  1.1902 -1.6306  0.3955
 6763TIP3   OH244483   5.572   1.899   5.414  0.2343 -0.0019  0.5580
 6763TIP3    H144484   5.505   1.833   5.432  1.5805 -1.7719 -0.5457
 6763TIP3    H244485   5.595   1.885   5.322  1.0503  1.5804  0.4870
 6764TIP3   OH244486   6.668   4.606   7.642 -0.4929 -0.1819 -0.2803
 6764TIP3    H144487   6.641   4.697   7.633 -0.6800  0.1412  2.5221
 6764TIP3    H244488   6.741   4.596   7.580 -0.8898  1.6562 -1.1155
 6765TIP3   OH244489   3.653   3.029   6.155 -0.1704 -0.5716 -0.0509
 6765TIP3    H144490   3.742   2.995   6.155  0.4477  0.9651  0.5172
 6765TIP3    H244491   3.663   3.124   6.149 -1.7431 -0.3237  0.6111
 6766TIP3   OH244492   1.272   0.361   6.815  0.2180 -0.0434  0.3293
 6766TIP3    H144493   1.182   0.385   6.837  0.6114  1.1493  0.7157
 6766TIP3    H244494   1.309   0.440   6.776  0.8718 -0.7665 -0.5361
 6767TIP3   OH244495   2.027   1.095   5.962 -0.5537  0.0444  0.2396
 6767TIP3    H144496   2.073   1.174   5.990  0.8353 -0.7482  0.3111
 6767TIP3    H244497   1.998   1.114   5.873  0.1383  0.4854  0.1019
 6768TIP3   OH244498   5.680   4.695   5.394 -0.0152 -0.7347  0.2392
 6768TIP3    H144499   5.594   4.700   5.352  0.4029 -0.8830 -0.6699
 6768TIP3    H244500   5.679   4.764   5.460 -0.9572 -0.9741  0.4915
 6769TIP3   OH244501   5.863   2.857   5.032 -0.3810 -0.1858 -0.0783
 6769TIP3    H144502   5.900   2.774   5.003  0.7293  1.0366 -2.4625
 6769TIP3    H244503   5.841   2.843   5.124  1.1473 -2.6339 -0.0042
 6770TIP3   OH244504   0.455   7.250   5.003  0.2634  0.2317  0.4286
 6770TIP3    H144505   0.362   7.249   4.980 -0.3398 -0.0528  2.6516
 6770TIP3    H244506   0.461   7.314   5.074  1.2420 -1.6512  2.1308
 6771TIP3   OH244507   1.612   0.634   6.645  0.0022  0.1711  0.6186
 6771TIP3    H144508   1.595   0.656   6.737 -0.7684  2.5162 -0.0029
 6771TIP3    H244509   1.530   0.595   6.614 -0.2188  0.6522  0.5891
 6772TIP3   OH244510   5.332   6.800   5.214 -0.2088  0.5718 -0.0313
 6772TIP3    H144511   5.293   6.793   5.301 -0.0570 -0.3442 -0.0217
 6772TIP3    H244512   5.426   6.808   5.231 -0.0813 -0.5575 -0.1133
 6773TIP3   OH244513   7.497   7.415   5.145  0.8843 -0.7862 -0.0720
 6773TIP3    H144514   7.538   7.487   5.192 -1.0657  2.2115 -2.5399
 6773TIP3    H244515   7.420   7.393   5.197 -0.0766  0.9841 -0.6785
 6774TIP3   OH244516   2.870   2.277   6.428 -0.0275  0.0272 -0.6053
 6774TIP3    H144517   2.941   2.249   6.486  0.0726  1.3395 -0.0742
 6774TIP3    H244518   2.902   2.257   6.340  0.4150 -0.6540 -0.3018
 6775TIP3   OH244519   0.659   1.843   5.844 -0.5159 -0.0008 -0.3746
 6775TIP3    H144520   0.743   1.817   5.882 -0.2685  2.4469  0.9733
 6775TIP3    H244521   0.659   1.804   5.757  1.7046 -0.6696 -0.1344
 6776TIP3   OH244522   0.053   4.482   5.196 -0.4627 -0.4398 -0.0188
 6776TIP3    H144523   0.097   4.542   5.255 -0.5346 -0.2735 -0.1315
 6776TIP3    H244524   0.046   4.400   5.244 -0.4332 -0.3335  0.1652
 6777TIP3   OH244525   5.925   2.741   6.718  0.4400  0.1201  0.0082
 6777TIP3    H144526   5.980   2.807   6.674  0.0489  0.4962  0.0733
 6777TIP3    H244527   5.930   2.764   6.811 -0.9009  1.0028 -0.1061
 6778TIP3   OH244528   0.084   5.514   6.434  1.0691  0.2915 -0.2150
 6778TIP3    H144529   0.048   5.426   6.434  0.5522  0.5013  0.3893
 6778TIP3    H244530   0.029   5.563   6.373 -0.2377  0.8282  1.3419
 6779TIP3   OH244531   2.640   7.373   6.255  1.0942  0.0228 -0.2631
 6779TIP3    H144532   2.640   7.386   6.350  0.8045 -0.6777 -0.1551
 6779TIP3    H244533   2.564   7.317   6.239  0.4743  1.0594 -1.0465
 6780TIP3   OH244534   4.745   3.664   6.038  0.0613 -0.3101  0.1363
 6780TIP3    H144535   4.719   3.623   6.121  3.1819  0.8563  1.8474
 6780TIP3    H244536   4.824   3.617   6.012 -0.3920 -0.0862 -1.7663
 6781TIP3   OH244537   4.076   2.477   4.898 -0.1280 -0.2618  0.3158
 6781TIP3    H144538   4.109   2.453   4.985 -2.0380 -3.0890  0.4016
 6781TIP3    H244539   4.125   2.422   4.837 -1.2879 -0.9958  0.0041
 6782TIP3   OH244540   1.963   6.533   5.714 -0.2961 -0.2225 -0.0986
 6782TIP3    H144541   1.949   6.621   5.751  2.0166  0.5095 -0.7786
 6782TIP3    H244542   1.978   6.549   5.621 -1.3532 -1.5400 -0.5195
 6783TIP3   OH244543   5.919   5.170   5.288 -0.2526 -0.2883  0.0313
 6783TIP3    H144544   5.835   5.198   5.326  0.0608 -2.5718  2.7381
 6783TIP3    H244545   5.897   5.144   5.198 -2.2606  0.0462  0.3749
 6784TIP3   OH244546   0.013   5.662   4.918 -0.5673 -0.1917  0.0572
 6784TIP3    H144547   0.106   5.657   4.897 -0.4382  1.3842  0.1080
 6784TIP3    H244548  -0.025   5.581   4.884  0.8662 -0.9936  0.3166
 6785TIP3   OH244549   2.303   1.266   5.624 -0.1492  0.1073 -0.3140
 6785TIP3    H144550   2.322   1.211   5.700 -1.0390 -0.6208 -0.6094
 6785TIP3    H244551   2.272   1.349   5.661  1.6166  0.6090  0.1425
 6786TIP3   OH244552   3.299   6.551   6.412 -0.5843  0.2787  0.1645
 6786TIP3    H144553   3.381   6.519   6.450  1.2817  3.8011 -0.4797
 6786TIP3    H244554   3.270   6.480   6.354  1.3787 -1.5182  1.2338
 6787TIP3   OH244555   5.411   6.213   6.722  0.1562 -0.5092 -0.4678
 6787TIP3    H144556   5.490   6.171   6.756 -0.3469  0.8521  2.7250
 6787TIP3    H244557   5.443   6.286   6.669  1.1932  0.8028  1.8003
 6788TIP3   OH244558   3.278   0.673   7.207  0.1942  0.4695  0.2485
 6788TIP3    H144559   3.325   0.746   7.248 -0.1456  0.1162  1.3020
 6788TIP3    H244560   3.341   0.636   7.145  0.7092  1.0560  0.4088
 6789TIP3   OH244561   0.950   3.993   5.185 -0.0378  0.2634  0.2032
 6789TIP3    H144562   0.860   3.978   5.214  0.2533  2.7634  2.9145
 6789TIP3    H244563   0.956   3.947   5.102 -3.5979 -0.5882  0.2279
 6790TIP3   OH244564   1.818   6.480   6.426  0.5764  0.2683  0.0506
 6790TIP3    H144565   1.726   6.466   6.449  0.6679 -0.6314 -0.0825
 6790TIP3    H244566   1.863   6.401   6.457  0.9853 -0.1830 -1.6115
 6791TIP3   OH244567   1.655   6.309   5.823 -0.5129  0.4597 -0.6471
 6791TIP3    H144568   1.585   6.251   5.792  0.6298 -1.7158  0.6057
 6791TIP3    H244569   1.628   6.335   5.911 -0.6517  1.2178 -0.9079
 6792TIP3   OH244570   2.432   2.041   7.644 -0.4573 -0.3016  0.3022
 6792TIP3    H144571   2.385   2.088   7.575  0.1298 -0.0333  0.0742
 6792TIP3    H244572   2.410   1.948   7.629 -0.7904 -0.1954  0.1151
 6793TIP3   OH244573   0.576   4.818   4.527  0.2857  0.2234 -0.8188
 6793TIP3    H144574   0.523   4.824   4.606 -0.5702 -1.1554 -1.2514
 6793TIP3    H244575   0.627   4.738   4.538 -0.2521 -0.2982 -1.8649
 6794TIP3   OH244576   6.799   3.271   6.987  0.8397 -0.2070 -0.6206
 6794TIP3    H144577   6.893   3.253   6.990  0.8242 -0.4192 -1.2503
 6794TIP3    H244578   6.759   3.187   6.965  0.4745 -0.1773 -0.1056
 6795TIP3   OH244579   2.407   0.188   4.662 -0.3719 -0.6169  0.7006
 6795TIP3    H144580   2.458   0.146   4.732 -0.5877 -1.0597  0.5941
 6795TIP3    H244581   2.472   0.235   4.611  0.2102 -2.5132 -0.4099
 6796TIP3   OH244582   7.608   4.142   4.969  0.2466  0.4105 -0.1488
 6796TIP3    H144583   7.597   4.236   4.954 -0.4289  0.5467  1.0501
 6796TIP3    H244584   7.701   4.132   4.989  0.2518  0.8922  0.0821
 6797TIP3   OH244585   4.835   2.034   7.277 -1.1104 -0.4517  0.1161
 6797TIP3    H144586   4.801   2.004   7.193  0.1193  0.2802 -0.6806
 6797TIP3    H244587   4.890   2.109   7.255 -0.6756 -0.3058  1.5774
 6798TIP3   OH244588   6.613   5.158   5.526  0.0663 -0.4495 -0.6798
 6798TIP3    H144589   6.568   5.078   5.554 -2.0674  1.3269  1.3730
 6798TIP3    H244590   6.640   5.199   5.608  0.1754  1.4372 -1.6176
 6799TIP3   OH244591   1.439   1.931   5.930 -0.2786  0.0365  0.1098
 6799TIP3    H144592   1.453   1.871   6.003 -0.9866 -0.8511 -0.4574
 6799TIP3    H244593   1.514   1.918   5.872 -0.6477 -0.6535 -0.2298
 6800TIP3   OH244594   1.645   2.676   5.209 -0.6114 -0.2559  0.6721
 6800TIP3    H144595   1.635   2.771   5.218  1.5335  0.0590  0.2881
 6800TIP3    H244596   1.739   2.661   5.223 -0.7694 -2.2081 -0.1498
 6801TIP3   OH244597   3.651   4.311   6.110  0.5457  0.0068 -0.2090
 6801TIP3    H144598   3.693   4.225   6.110  1.1106  0.2746  0.1018
 6801TIP3    H244599   3.716   4.369   6.070 -0.3783  0.0478 -1.7362
 6802TIP3   OH244600   7.059   7.469   6.921 -0.4340  0.7542 -0.0037
 6802TIP3    H144601   7.098   7.413   6.989 -1.0603  0.3157  0.0052
 6802TIP3    H244602   7.084   7.558   6.947  0.6105  0.4852 -0.0399
 6803TIP3   OH244603   2.800   4.889   5.167  0.3491  0.1962 -0.0668
 6803TIP3    H144604   2.802   4.907   5.073 -1.6464 -2.5866 -0.7807
 6803TIP3    H244605   2.714   4.921   5.196 -1.9100 -4.3978 -0.7363
 6804TIP3   OH244606   2.798   4.580   6.086 -0.0097 -0.1758 -0.4203
 6804TIP3    H144607   2.865   4.610   6.024  0.1602 -0.9462 -0.6147
 6804TIP3    H244608   2.757   4.661   6.118 -0.6178  0.2165 -2.0890
 6805TIP3   OH244609   3.021   5.772   5.742 -0.0082 -0.3703  0.2245
 6805TIP3    H144610   3.047   5.835   5.809  0.9281 -2.2316  1.7053
 6805TIP3    H244611   3.058   5.807   5.661 -0.9212  1.7997  0.6531
 6806TIP3   OH244612   0.781   0.874   6.277 -0.3194  0.1802 -0.0726
 6806TIP3    H144613   0.718   0.814   6.317 -0.9940  0.5798 -0.5138
 6806TIP3    H244614   0.758   0.875   6.184  1.1837 -0.6715 -0.4787
 6807TIP3   OH244615   0.853   0.938   7.336  0.0225  0.0010  0.0672
 6807TIP3    H144616   0.888   1.026   7.322 -1.3204  0.5614  0.0896
 6807TIP3    H244617   0.840   0.932   7.430 -0.6761  0.1112 -0.0129
 6808TIP3   OH244618   1.760   7.269   5.597 -0.1703  0.2619 -0.8075
 6808TIP3    H144619   1.850   7.283   5.627  0.1558 -0.0241 -1.6412
 6808TIP3    H244620   1.751   7.174   5.594  0.2861  0.2409 -2.9828
 6809TIP3   OH244621   2.241   6.899   6.772 -0.4177 -0.2036  0.1612
 6809TIP3    H144622   2.218   6.818   6.818  1.0428 -0.9931 -0.4229
 6809TIP3    H244623   2.215   6.883   6.682  1.3630 -0.7350 -0.3100
 6810TIP3   OH244624   2.633   0.340   4.526 -0.2943  0.1793 -0.5976
 6810TIP3    H144625   2.653   0.278   4.597 -1.2285  1.7880  1.1702
 6810TIP3    H244626   2.682   0.307   4.451  1.2019 -1.3155  0.9416
 6811TIP3   OH244627   6.601   7.395   7.497 -0.3835  0.3119 -0.2167
 6811TIP3    H144628   6.693   7.369   7.496 -0.0209  1.5343 -1.3975
 6811TIP3    H244629   6.602   7.488   7.477 -1.9258  0.0705 -1.6692
 6812TIP3   OH244630   3.032   4.730   7.143 -0.2366 -0.3160  0.4454
 6812TIP3    H144631   3.077   4.681   7.212 -0.6675  0.2414  1.1362
 6812TIP3    H244632   3.087   4.717   7.065  0.6447 -0.3636  1.0588
 6813TIP3   OH244633   2.307   5.962   6.585  0.3997 -0.3956  0.2515
 6813TIP3    H144634   2.353   6.039   6.552 -0.0959 -0.7888 -1.4914
 6813TIP3    H244635   2.244   5.997   6.648  0.6178  0.5535 -0.0352
 6814TIP3   OH244636   5.144   2.427   6.311  0.6641 -0.0964  0.0929
 6814TIP3    H144637   5.153   2.372   6.233  0.0767  0.1389 -0.1508
 6814TIP3    H244638   5.058   2.403   6.347  0.9922 -0.3011  0.7463
 6815TIP3   OH244639   6.609   4.152   4.942  0.3151 -0.3768 -0.7098
 6815TIP3    H144640   6.546   4.126   4.874  0.2391 -0.6609 -0.5311
 6815TIP3    H244641   6.597   4.247   4.950  0.3215 -0.3414 -1.0911
 6816TIP3   OH244642   6.495   5.512   6.948 -0.1632 -0.2269 -0.0329
 6816TIP3    H144643   6.424   5.482   7.005  0.3518 -0.6108  0.4165
 6816TIP3    H244644   6.513   5.601   6.977  0.4852 -0.6223  0.7968
 6817TIP3   OH244645   6.110   1.462   5.340 -0.1480 -0.0632  0.2507
 6817TIP3    H144646   6.131   1.512   5.419  0.0665 -0.7352  0.6184
 6817TIP3    H244647   6.040   1.402   5.367 -0.4829  0.1069 -0.2201
 6818TIP3   OH244648   7.075   3.004   6.954  0.2199 -0.2123 -0.3823
 6818TIP3    H144649   7.074   3.100   6.943  0.4955 -0.3697 -2.1762
 6818TIP3    H244650   6.991   2.983   6.993  1.0089  0.9325  2.1576
 6819TIP3   OH244651   4.172   6.393   7.413  0.0691  0.2421 -0.1612
 6819TIP3    H144652   4.265   6.382   7.393  0.0175 -0.1792 -0.1770
 6819TIP3    H244653   4.128   6.384   7.328  0.0406  0.8030 -0.2103
 6820TIP3   OH244654   3.991   4.751   5.094  0.1509  0.5011 -0.8115
 6820TIP3    H144655   3.909   4.712   5.124  0.5358 -0.0165 -0.4139
 6820TIP3    H244656   4.041   4.765   5.175  1.3650 -1.2625 -1.2174
 6821TIP3   OH244657   2.494   3.208   5.378 -0.0859  0.6152  0.2180
 6821TIP3    H144658   2.409   3.187   5.339 -0.5592  0.6809  1.1917
 6821TIP3    H244659   2.504   3.302   5.363  0.7324  0.2767 -1.6230
 6822TIP3   OH244660   4.394   1.311   6.881 -0.2052 -0.5312  0.4769
 6822TIP3    H144661   4.449   1.252   6.934  0.9203  1.4117  1.6082
 6822TIP3    H244662   4.415   1.399   6.914 -2.2595  0.4789 -0.7174
 6823TIP3   OH244663   6.158   7.046   6.226 -0.0650 -0.3611  0.1692
 6823TIP3    H144664   6.176   7.139   6.231 -1.4568 -0.1319  2.1017
 6823TIP3    H244665   6.091   7.038   6.158 -0.0721  0.0773  0.1234
 6824TIP3   OH244666   0.690   6.473  12.539 -0.2149 -0.1710  0.1252
 6824TIP3    H144667   0.757   6.541  12.546  0.8547 -1.2938  1.3585
 6824TIP3    H244668   0.649   6.471  12.625  0.3920 -1.6676  0.4102
 6825TIP3   OH244669   0.566   3.814   4.786  0.1012 -0.1961  0.2752
 6825TIP3    H144670   0.618   3.891   4.764  2.0158 -1.8624 -1.3435
 6825TIP3    H244671   0.596   3.789   4.874 -0.3316  0.6857  0.6912
 6826TIP3   OH244672   1.397   1.354   7.098 -0.2154  0.2149  0.4198
 6826TIP3    H144673   1.309   1.331   7.128 -0.2507 -1.1978 -0.6864
 6826TIP3    H244674   1.387   1.440   7.057 -0.9580  0.3342  0.8357
 6827TIP3   OH244675   1.543   3.936   6.527  0.0371  0.0442  0.1548
 6827TIP3    H144676   1.510   4.024   6.542  1.6984  0.6333  0.5832
 6827TIP3    H244677   1.540   3.926   6.431 -3.5100 -0.8734  0.2130
 6828TIP3   OH244678   7.550   0.411   5.279  0.6191  0.5961  0.1017
 6828TIP3    H144679   7.503   0.486   5.243  0.2040  0.5451  0.5221
 6828TIP3    H244680   7.602   0.377   5.206 -0.3811  0.3499 -0.5020
 6829TIP3   OH244681   2.685   2.068   7.472 -0.6094  0.6107  0.8889
 6829TIP3    H144682   2.610   2.070   7.532 -1.2990  1.9412  0.0075
 6829TIP3    H244683   2.647   2.075   7.385  0.4763  0.0604  0.3459
 6830TIP3   OH244684   6.258   7.128   7.642 -0.7985  0.0417  0.1709
 6830TIP3    H144685   6.198   7.089   7.579 -0.9344  2.1322 -1.0937
 6830TIP3    H244686   6.326   7.062   7.655 -1.3847 -0.9005 -1.2705
 6831TIP3   OH244687   4.606   1.209   6.627  0.7611 -0.4897 -0.5039
 6831TIP3    H144688   4.648   1.239   6.708  0.0485 -0.6228 -0.0801
 6831TIP3    H244689   4.625   1.116   6.623 -0.1098 -0.7081  0.0841
 6832TIP3   OH244690   7.297   0.680   4.906  0.1072 -0.0304 -0.2301
 6832TIP3    H144691   7.318   0.764   4.946  1.9667 -0.0592 -1.0480
 6832TIP3    H244692   7.225   0.699   4.847 -0.1160  0.7974  0.2919
 6833TIP3   OH244693   2.832   4.001   5.341  0.0631  0.0955  0.1301
 6833TIP3    H144694   2.808   3.926   5.396 -0.2264  0.3713  0.3902
 6833TIP3    H244695   2.866   4.066   5.403 -1.8681  1.0811  0.2455
 6834TIP3   OH244696   5.228   4.968   5.686  0.3315  0.0460  0.3577
 6834TIP3    H144697   5.146   4.991   5.644 -1.1500 -0.9615  2.4866
 6834TIP3    H244698   5.256   4.887   5.643 -0.4333 -0.2360  0.3743
 6835TIP3   OH244699   3.279   5.800   4.732  0.0991  0.1959 -0.1584
 6835TIP3    H144700   3.207   5.785   4.795 -0.6113 -0.9947 -1.2075
 6835TIP3    H244701   3.259   5.885   4.693 -1.7419 -0.8480 -1.6499
 6836TIP3   OH244702   1.878   2.434   6.858  0.2510 -1.2675 -0.1959
 6836TIP3    H144703   1.969   2.405   6.850  0.9796 -0.1682  2.6687
 6836TIP3    H244704   1.845   2.388   6.935 -0.7114  0.3890  0.4260
 6837TIP3   OH244705   6.641   0.477   7.992 -0.0663 -0.0314 -0.0275
 6837TIP3    H144706   6.633   0.562   8.036  0.7672 -0.3848  0.8352
 6837TIP3    H244707   6.551   0.444   7.988 -0.6562  1.6016 -1.8704
 6838TIP3   OH244708   6.761   4.175   4.506 -0.4422  0.4409  0.2187
 6838TIP3    H144709   6.770   4.083   4.480  1.0232  0.7727 -0.5185
 6838TIP3    H244710   6.666   4.188   4.513 -0.7448 -0.7101 -1.2273
 6839TIP3   OH244711   5.097   3.570   6.279 -0.3884  0.3217  0.1801
 6839TIP3    H144712   5.105   3.643   6.341  1.4435 -0.6718  1.2064
 6839TIP3    H244713   5.169   3.510   6.303 -0.2078 -0.5705 -2.3023
 6840TIP3   OH244714   0.918   0.142   5.725 -0.0196 -0.8697 -0.2467
 6840TIP3    H144715   0.985   0.092   5.678 -0.0691 -0.3944 -0.8356
 6840TIP3    H244716   0.932   0.232   5.698  0.9337 -0.3210  1.8509
 6841TIP3   OH244717   1.279   3.825   5.486 -0.4616 -0.4536 -0.2902
 6841TIP3    H144718   1.267   3.825   5.391  0.3117 -0.0547 -0.3963
 6841TIP3    H244719   1.243   3.741   5.515 -1.1690 -0.3602 -0.8693
 6842TIP3   OH244720   4.995   5.357   5.030 -0.0270 -0.2910  0.9898
 6842TIP3    H144721   5.075   5.308   5.013 -0.6124 -0.7090 -0.7656
 6842TIP3    H244722   4.926   5.304   4.989 -1.0080  0.7630  1.2395
 6843TIP3   OH244723   1.849   1.776   6.049  0.0489 -0.3133  0.2291
 6843TIP3    H144724   1.876   1.782   5.957  2.6347  0.6515  0.9463
 6843TIP3    H244725   1.769   1.723   6.047 -0.0900 -0.1831 -2.5655
 6844TIP3   OH244726   2.236   6.396   5.423  0.2441  0.3249  0.2572
 6844TIP3    H144727   2.159   6.416   5.370 -0.0557 -0.3205  0.4337
 6844TIP3    H244728   2.201   6.353   5.501  0.8390 -1.0193 -0.1724
 6845TIP3   OH244729   3.781   0.952   5.437 -0.1513  0.0848  0.2633
 6845TIP3    H144730   3.838   1.006   5.382  0.3458 -0.4683  0.2227
 6845TIP3    H244731   3.729   1.015   5.487 -1.1149  0.6116 -1.3297
 6846TIP3   OH244732   1.967   1.580   4.683  0.1420 -0.0088  0.8190
 6846TIP3    H144733   1.972   1.674   4.704 -0.9341 -0.1516  1.8041
 6846TIP3    H244734   2.044   1.564   4.629  0.0798  1.5534  0.2145
 6847TIP3   OH244735   2.376   2.249   5.086 -0.2064 -0.3790 -0.4149
 6847TIP3    H144736   2.380   2.252   5.182 -0.5728  0.8869 -0.4146
 6847TIP3    H244737   2.329   2.329   5.062  0.4239 -0.3714 -1.6851
 6848TIP3   OH244738   3.641   0.672   4.808 -0.0441  0.2628  0.8890
 6848TIP3    H144739   3.581   0.629   4.747 -0.5190  0.6539  1.0664
 6848TIP3    H244740   3.617   0.765   4.803  2.5945  0.9513 -1.3422
 6849TIP3   OH244741   1.779   1.945   6.482  0.1345  0.4695 -0.3417
 6849TIP3    H144742   1.862   1.938   6.435 -0.6285  0.4320 -1.7372
 6849TIP3    H244743   1.720   1.886   6.434  0.2231 -2.5448  2.8172
 6850TIP3   OH244744   5.761   4.937   5.169  0.1565  0.5719  0.1793
 6850TIP3    H144745   5.700   4.945   5.242 -0.7869  2.5384 -0.7571
 6850TIP3    H244746   5.740   4.852   5.130 -1.4430  0.8335  0.3961
 6851TIP3   OH244747   2.208   1.345   6.010  0.2018 -0.3544 -0.4318
 6851TIP3    H144748   2.255   1.371   6.090 -1.1573 -1.3278  0.7296
 6851TIP3    H244749   2.202   1.425   5.958 -1.4057  1.0403  1.7597
 6852TIP3   OH244750   1.258   3.925   4.846  0.2865 -0.2057 -0.0300
 6852TIP3    H144751   1.265   4.019   4.827 -0.5599 -0.1537 -0.0856
 6852TIP3    H244752   1.344   3.890   4.822  0.0795  0.2833 -1.5579
 6853TIP3   OH244753   2.684   0.511   6.396  0.2656  0.1461 -0.2305
 6853TIP3    H144754   2.695   0.425   6.437 -1.6608 -0.2143 -0.3802
 6853TIP3    H244755   2.735   0.571   6.452  0.5151 -0.8647  0.6674
 6854TIP3   OH244756   1.020   0.325   7.120 -0.1492  0.1255  0.4728
 6854TIP3    H144757   1.032   0.368   7.035  0.4583  0.3284  0.6519
 6854TIP3    H244758   1.038   0.232   7.103  0.8735  0.2944  0.5489
 6855TIP3   OH244759   6.850   6.990   5.746  0.3854 -0.2347 -0.4627
 6855TIP3    H144760   6.881   6.929   5.812 -1.7906 -0.3151  0.5636
 6855TIP3    H244761   6.906   7.067   5.756  1.8634 -1.2710 -0.4382
 6856TIP3   OH244762   3.407   2.896   5.727 -0.0923  0.6326  0.3419
 6856TIP3    H144763   3.492   2.907   5.685 -0.6244 -0.5344 -1.1191
 6856TIP3    H244764   3.363   2.829   5.675 -2.3505  2.0017  0.3660
 6857TIP3   OH244765   2.241   4.151   5.585 -0.0606 -0.7974  0.1144
 6857TIP3    H144766   2.283   4.237   5.588 -0.4544 -0.6141  0.4063
 6857TIP3    H244767   2.314   4.090   5.576  0.2160 -0.4256 -0.2683
 6858TIP3   OH244768   2.442   2.493   6.590  0.4401 -0.3102 -0.1201
 6858TIP3    H144769   2.416   2.553   6.521 -0.0885 -2.1341 -1.5918
 6858TIP3    H244770   2.516   2.444   6.553  0.2808 -1.1910  0.6835
 6859TIP3   OH244771   3.768   4.231   6.389 -0.1248 -0.2044  0.5680
 6859TIP3    H144772   3.797   4.182   6.311  2.4125  2.0629 -0.0567
 6859TIP3    H244773   3.673   4.220   6.389 -0.1074 -1.2877 -2.1728
 6860TIP3   OH244774   6.311   0.180   5.185 -0.6066 -0.1758  0.1396
 6860TIP3    H144775   6.317   0.258   5.240  0.0678  0.0591 -0.2570
 6860TIP3    H244776   6.221   0.182   5.152 -0.6786  0.2916  0.3437
 6861TIP3   OH244777   1.866   6.133   7.176 -0.1736  0.3205  0.1417
 6861TIP3    H144778   1.903   6.058   7.130  0.3913  0.3451  0.5493
 6861TIP3    H244779   1.941   6.191   7.191 -0.1788 -0.0877  1.8745
 6862TIP3   OH244780   1.690   1.388   5.547 -0.2429 -1.0181  0.2572
 6862TIP3    H144781   1.672   1.324   5.615 -0.4398 -0.1596  1.0332
 6862TIP3    H244782   1.780   1.416   5.564 -0.4779 -0.3978  0.5168
 6863TIP3   OH244783   6.647   7.658   7.406  0.2311  0.7346 -0.3903
 6863TIP3    H144784   6.650   7.753   7.416  0.3042  0.8577 -1.4627
 6863TIP3    H244785   6.599   7.644   7.324  2.3265 -0.0419 -1.5873
 6864TIP3   OH244786   6.467   1.971   7.523  0.0687 -0.0995  0.0263
 6864TIP3    H144787   6.547   2.022   7.509  1.3698 -2.1180 -0.3274
 6864TIP3    H244788   6.410   2.030   7.572  2.0612  1.1635  0.9954
 6865TIP3   OH244789   7.511   1.845   6.712 -0.5649  0.2523 -0.2325
 6865TIP3    H144790   7.435   1.812   6.760 -0.9387  1.1733 -0.1662
 6865TIP3    H244791   7.496   1.939   6.706 -0.0329  0.2820 -1.3022
 6866TIP3   OH244792   0.378   0.411   5.059  0.4371 -0.0554 -0.3474
 6866TIP3    H144793   0.367   0.505   5.049  0.8600  0.0786  0.3893
 6866TIP3    H244794   0.403   0.399   5.150 -1.4722 -1.0608  0.0931
 6867TIP3   OH244795   2.022   0.768   6.519  0.1313  0.4648  0.3311
 6867TIP3    H144796   1.957   0.757   6.449 -1.0463 -3.0655  1.7526
 6867TIP3    H244797   2.105   0.745   6.477 -0.0485  1.4804 -0.6352
 6868TIP3   OH244798   1.854   5.718   5.802  0.1443  0.7105  0.3045
 6868TIP3    H144799   1.924   5.779   5.776 -0.3745  0.6654 -1.2965
 6868TIP3    H244800   1.894   5.631   5.794  0.3065  0.7362  0.7568
 6869TIP3   OH244801   2.629   5.401   7.221 -0.0343  0.2783  0.8829
 6869TIP3    H144802   2.616   5.482   7.171 -0.9393  0.6676  1.7099
 6869TIP3    H244803   2.712   5.414   7.267  0.2961  0.3384  0.2804
 6870TIP3   OH244804   1.403   3.782   6.716  0.0644 -0.0749 -0.1430
 6870TIP3    H144805   1.446   3.702   6.685  1.2107  0.3621  0.2643
 6870TIP3    H244806   1.422   3.847   6.649  1.0870  0.4288  0.6150
 6871TIP3   OH244807   3.245   5.283   6.574  0.1970 -0.6340  0.5603
 6871TIP3    H144808   3.257   5.217   6.643  0.0594 -0.2945  0.9103
 6871TIP3    H244809   3.234   5.231   6.494  2.7243 -1.0203  0.3796
 6872TIP3   OH244810   1.505   4.108   5.598  0.3016 -0.2245 -0.9011
 6872TIP3    H144811   1.515   4.030   5.653  1.7703  0.8355  0.4177
 6872TIP3    H244812   1.437   4.159   5.641  1.0540  0.3378 -0.3453
 6873TIP3   OH244813   4.099   4.090   6.211 -0.1307  0.1176  0.2336
 6873TIP3    H144814   4.095   4.025   6.140  1.1090 -0.0558  0.2988
 6873TIP3    H244815   4.107   4.174   6.166  1.3768 -0.0476  0.1312
 6874TIP3   OH244816   1.550   6.469   6.473 -0.3722  0.2763 -0.1036
 6874TIP3    H144817   1.463   6.505   6.493 -0.2673  0.1333  0.6331
 6874TIP3    H244818   1.547   6.379   6.504 -0.0913  0.1493 -0.4396
 6875TIP3   OH244819   2.600   4.455   5.222  0.1911  0.1056 -0.0717
 6875TIP3    H144820   2.571   4.411   5.142 -0.1019  0.5915 -0.2351
 6875TIP3    H244821   2.549   4.536   5.225 -1.6571 -1.0224  1.8738
 6876TIP3   OH244822   5.846   4.418   5.283  0.0807  0.0122  0.2501
 6876TIP3    H144823   5.883   4.443   5.368  0.8803  3.5555 -1.0014
 6876TIP3    H244824   5.839   4.500   5.234 -2.2470 -1.6096 -2.4299
 6877TIP3   OH244825   3.232   3.830   5.479  0.1643  0.7192  0.0926
 6877TIP3    H144826   3.246   3.859   5.569 -0.5541 -0.2782  0.5408
 6877TIP3    H244827   3.213   3.910   5.430  1.2481  1.3527  0.6753
 6878TIP3   OH244828   5.439   6.456   4.930 -0.2024  0.5773  0.3758
 6878TIP3    H144829   5.508   6.400   4.895 -1.9234 -0.6327 -1.2293
 6878TIP3    H244830   5.420   6.420   5.017  0.2613  0.1032  0.2801
 6879TIP3   OH244831   1.311   7.307   7.407  0.2399 -0.1708 -0.3669
 6879TIP3    H144832   1.219   7.287   7.393 -0.1816  0.0653  1.7919
 6879TIP3    H244833   1.356   7.262   7.335 -1.5829  0.4935 -2.0189
 6880TIP3   OH244834   1.091   2.278   6.508  0.1820 -0.8878 -0.0416
 6880TIP3    H144835   1.168   2.271   6.452  0.4289 -1.3738  0.3562
 6880TIP3    H244836   1.017   2.267   6.448  0.3652  0.6909 -0.6118
 6881TIP3   OH244837   6.777   7.024   5.010  0.4302  0.5656  0.5246
 6881TIP3    H144838   6.819   6.938   5.017  0.1616  0.4535  0.7990
 6881TIP3    H244839   6.685   7.007   5.027  0.0273  0.5845 -1.4255
 6882TIP3   OH244840   2.239   4.890   5.541  0.1929 -0.6249  0.1252
 6882TIP3    H144841   2.266   4.947   5.613  0.0525 -1.2665  0.6945
 6882TIP3    H244842   2.176   4.942   5.491 -1.8503 -1.1180  2.0508
 6883TIP3   OH244843   3.758   4.585   6.558  0.5480  0.1293  0.2334
 6883TIP3    H144844   3.843   4.595   6.601  0.3566  0.7348  0.4855
 6883TIP3    H244845   3.697   4.635   6.612  0.1439  0.1956 -0.2680
 6884TIP3   OH244846   3.510   7.022   6.761  0.0227 -0.8525 -0.6675
 6884TIP3    H144847   3.466   6.970   6.829  0.7129 -0.0463  0.4221
 6884TIP3    H244848   3.538   7.102   6.806  1.3467 -0.7181 -1.6698
 6885TIP3   OH244849   4.794   2.810   5.759  0.5201 -0.3986 -0.1183
 6885TIP3    H144850   4.837   2.772   5.835  0.5690  0.7015  0.4173
 6885TIP3    H244851   4.864   2.856   5.712  0.3370 -0.4075 -0.4056
 6886TIP3   OH244852   0.253   3.697   5.895  0.6149  0.6983  0.3661
 6886TIP3    H144853   0.203   3.707   5.975  0.7666 -0.8707  0.6901
 6886TIP3    H244854   0.305   3.777   5.889 -1.0558  1.8416  0.6138
 6887TIP3   OH244855   5.267   3.457   6.482  0.0522 -0.0077 -0.3096
 6887TIP3    H144856   5.221   3.373   6.482  1.4627 -0.8256  0.8251
 6887TIP3    H244857   5.274   3.480   6.574  2.0222 -0.0155 -0.4137
 6888TIP3   OH244858   5.577   2.023   6.775  0.2318  0.1838 -0.2411
 6888TIP3    H144859   5.655   1.967   6.778 -0.3509 -0.6412 -0.2112
 6888TIP3    H244860   5.537   2.003   6.690 -0.9290 -0.7506  0.5109
 6889TIP3   OH244861   5.326   4.987   5.068 -0.2291 -0.0346  0.6359
 6889TIP3    H144862   5.343   4.946   5.153 -0.1707  0.1756  0.7292
 6889TIP3    H244863   5.408   4.975   5.019 -0.1631  0.0864  0.7134
 6890TIP3   OH244864   4.896   5.385   5.609 -0.1380  0.1340 -0.2682
 6890TIP3    H144865   4.981   5.374   5.652 -0.8118 -1.1222  0.7942
 6890TIP3    H244866   4.899   5.474   5.572  0.9368  0.7836  1.2892
 6891TIP3   OH244867   1.386   2.621   5.157 -0.5543  0.6920  0.5610
 6891TIP3    H144868   1.466   2.658   5.196  1.5144 -2.5666 -0.1811
 6891TIP3    H244869   1.418   2.555   5.095 -3.8171 -1.6881  1.1366
 6892TIP3   OH244870   5.193   2.625   7.115 -0.5500 -0.2121  0.3007
 6892TIP3    H144871   5.276   2.612   7.160 -0.2371  0.7627  0.0184
 6892TIP3    H244872   5.181   2.545   7.062  1.6322  0.7993 -1.9007
 6893TIP3   OH244873   1.754   5.464   5.491 -0.0030 -0.3034  0.4918
 6893TIP3    H144874   1.774   5.407   5.417 -1.4518  0.5873 -0.6518
 6893TIP3    H244875   1.839   5.499   5.518  0.5365 -0.4214 -0.9505
 6894TIP3   OH244876   7.615   3.692   5.113 -0.1889 -0.1569  0.2474
 6894TIP3    H144877   7.582   3.757   5.175 -0.5817 -0.9588  0.9042
 6894TIP3    H244878   7.560   3.703   5.035 -1.6414 -1.0576  1.0996
 6895TIP3   OH244879   0.880   4.983   7.178 -0.1927  0.3798 -0.2464
 6895TIP3    H144880   0.886   4.908   7.236  2.2888  0.0279 -0.8343
 6895TIP3    H244881   0.808   4.963   7.119 -0.4754 -0.8785  0.4953
 6896TIP3   OH244882   5.202   1.959   5.333 -0.0848 -0.3930  0.0626
 6896TIP3    H144883   5.199   1.937   5.240 -3.7705 -0.6047  0.1070
 6896TIP3    H244884   5.187   2.053   5.336 -2.2356 -0.7124  0.4563
 6897TIP3   OH244885   6.608   5.057   7.367  0.0900  0.8029  0.1744
 6897TIP3    H144886   6.663   5.001   7.312  0.7504  1.8362 -0.2659
 6897TIP3    H244887   6.616   5.020   7.455  0.1876 -0.0207 -0.1747
 6898TIP3   OH244888   7.315   5.270   6.403  0.0584  0.0589  0.4192
 6898TIP3    H144889   7.382   5.325   6.445 -2.8942  2.4421  2.4349
 6898TIP3    H244890   7.275   5.328   6.338 -1.7646 -0.3401  1.1340
 6899TIP3   OH244891   4.737   6.845   7.398 -0.1128 -0.4129  0.6246
 6899TIP3    H144892   4.656   6.838   7.346 -1.0033  1.3608  1.6669
 6899TIP3    H244893   4.747   6.760   7.440  0.7711 -2.0231 -2.5278
 6900TIP3   OH244894   1.194   6.782   5.943  0.4377  0.1876 -0.4890
 6900TIP3    H144895   1.197   6.826   5.858 -0.1180  0.5291 -0.3352
 6900TIP3    H244896   1.187   6.688   5.922 -1.1847  0.3539 -0.8485
 6901TIP3   OH244897   6.300   5.252   4.532 -0.0807  0.4376 -0.1544
 6901TIP3    H144898   6.387   5.211   4.532 -0.9261 -1.5570  1.6826
 6901TIP3    H244899   6.316   5.343   4.557  1.3579 -0.4047  2.4219
 6902TIP3   OH244900   4.424   1.727   6.801  0.5969 -0.3145 -0.0615
 6902TIP3    H144901   4.342   1.703   6.844  0.1522 -0.1075 -0.7890
 6902TIP3    H244902   4.492   1.703   6.865 -0.0271 -0.3891  0.5873
 6903TIP3   OH244903   1.205   2.731   6.387  0.3409  0.2172 -0.0546
 6903TIP3    H144904   1.111   2.735   6.371  0.3700 -0.4096 -0.3831
 6903TIP3    H244905   1.242   2.688   6.310  0.7114 -0.9650  0.7533
 6904TIP3   OH244906   0.182   6.945   6.059  0.3964  0.0014 -0.4563
 6904TIP3    H144907   0.223   7.016   6.010 -3.3623  2.0857 -0.9041
 6904TIP3    H244908   0.141   6.890   5.993 -1.1372  0.4520  0.0718
 6905TIP3   OH244909   7.671   2.217   4.737 -0.2472 -0.0485  0.1775
 6905TIP3    H144910   7.589   2.179   4.706 -0.6665 -0.2732  1.4806
 6905TIP3    H244911   7.693   2.283   4.672 -0.9131 -0.6944 -0.7318
 6906TIP3   OH244912   1.914   4.275   5.420  0.0927  0.4002 -0.5987
 6906TIP3    H144913   1.898   4.225   5.500  0.8655 -0.7371 -1.1302
 6906TIP3    H244914   1.827   4.298   5.387 -0.2348  0.5092  0.3338
 6907TIP3   OH244915   2.931   3.542   6.882 -0.0918  0.2220 -0.2504
 6907TIP3    H144916   2.938   3.637   6.892  0.0548  0.2651 -0.7267
 6907TIP3    H244917   3.021   3.512   6.882 -0.1264 -0.2998  3.1108
 6908TIP3   OH244918   1.913   5.568   6.198 -0.2735  0.0985 -0.0620
 6908TIP3    H144919   1.926   5.578   6.292 -0.3936  1.5542 -0.1737
 6908TIP3    H244920   1.836   5.512   6.190 -0.8250  0.7193  0.7267
 6909TIP3   OH244921   0.670   2.281   4.990 -0.0247 -0.5888  0.4367
 6909TIP3    H144922   0.619   2.280   5.071 -1.4829 -1.0602 -0.4490
 6909TIP3    H244923   0.604   2.288   4.920  1.2767  1.5443 -0.6673
 6910TIP3   OH244924   1.961   7.060   4.764 -0.7496 -0.0416  0.0747
 6910TIP3    H144925   1.998   7.096   4.845 -2.6212 -1.8323  1.8388
 6910TIP3    H244926   1.936   7.137   4.713  1.7033  1.1545  0.5461
 6911TIP3   OH244927   1.545   5.566   5.913  0.1189  0.5165 -0.6093
 6911TIP3    H144928   1.591   5.642   5.949  1.1019 -0.0124 -0.7251
 6911TIP3    H244929   1.592   5.490   5.946 -1.4800 -0.1059  0.3459
 6912TIP3   OH244930   6.207   2.185   6.398  0.6075 -0.3338  0.1599
 6912TIP3    H144931   6.167   2.180   6.312 -2.4709 -2.2318  1.5482
 6912TIP3    H244932   6.265   2.108   6.402  0.6833 -0.2950 -0.1836
 6913TIP3   OH244933   1.196   6.768   7.332 -0.1733  0.0546 -0.1822
 6913TIP3    H144934   1.218   6.820   7.410 -0.4474  0.4888 -0.3886
 6913TIP3    H244935   1.106   6.741   7.346 -1.8112  3.7615 -2.2456
 6914TIP3   OH244936   7.650   1.684   7.194  0.3228  0.1939 -0.5128
 6914TIP3    H144937   7.621   1.738   7.268 -0.7788  0.7509 -1.3290
 6914TIP3    H244938   7.624   1.595   7.218 -0.6175  0.4594 -0.4924
 6915TIP3   OH244939   1.810   4.784   5.651 -0.4722 -0.2456 -0.4555
 6915TIP3    H144940   1.785   4.692   5.661 -1.2238  0.0637  0.7220
 6915TIP3    H244941   1.731   4.826   5.617 -1.1561  0.4508  1.7720
 6916TIP3   OH244942   3.829   4.511   6.297 -0.1517 -0.0099 -0.0969
 6916TIP3    H144943   3.786   4.425   6.304  1.4989 -0.9428 -0.8607
 6916TIP3    H244944   3.816   4.552   6.382 -0.4604 -1.2645  0.4756
 6917TIP3   OH244945   4.887   1.516   6.657 -0.6175 -0.7608  0.2662
 6917TIP3    H144946   4.922   1.462   6.586 -0.4618 -0.2724 -0.0331
 6917TIP3    H244947   4.860   1.597   6.614 -1.3919 -0.8246  0.6176
 6918TIP3   OH244948   4.269   3.896   5.416 -0.0672 -0.1239 -0.0844
 6918TIP3    H144949   4.226   3.820   5.453 -1.0513  0.9641  1.1164
 6918TIP3    H244950   4.320   3.862   5.343 -0.9351 -1.8290  0.0612
 6919TIP3   OH244951   5.191   3.903   4.610  0.4043 -0.3066 -0.1042
 6919TIP3    H144952   5.285   3.919   4.619  0.1669  0.3026  1.8363
 6919TIP3    H244953   5.178   3.817   4.650  0.3630 -1.3336 -2.1758
 6920TIP3   OH244954   5.203   3.291   6.125  0.7712 -0.3041  0.6892
 6920TIP3    H144955   5.239   3.219   6.074  1.6672 -1.9152  3.3857
 6920TIP3    H244956   5.268   3.361   6.116 -0.0363  0.2073 -1.8274
 6921TIP3   OH244957   0.024   0.798   5.415  0.2072 -0.8734 -0.1925
 6921TIP3    H144958   0.015   0.706   5.436  0.3409 -0.6174  1.0466
 6921TIP3    H244959   0.117   0.818   5.431  0.5029 -0.8378 -1.8085
 6922TIP3   OH244960   1.426   0.074   6.356 -0.1459  0.2180  0.5823
 6922TIP3    H144961   1.455   0.150   6.405 -0.4327  2.2068 -2.1403
 6922TIP3    H244962   1.499   0.052   6.299 -1.4933  1.1432 -1.6155
 6923TIP3   OH244963   6.770   4.689   6.287 -0.1374  0.2933 -0.5401
 6923TIP3    H144964   6.713   4.647   6.222  0.0408 -1.5941  0.4623
 6923TIP3    H244965   6.712   4.748   6.334 -1.4782 -1.8878  0.7309
 6924TIP3   OH244966   6.078   0.684   7.246  0.2000 -0.6451  0.1266
 6924TIP3    H144967   6.073   0.589   7.259  1.8912 -0.6154  1.3102
 6924TIP3    H244968   5.990   0.708   7.217  0.2017 -2.8084 -2.0426
 6925TIP3   OH244969   5.115   5.969   6.257  0.1705  0.6909 -0.0471
 6925TIP3    H144970   5.130   6.050   6.209 -0.4450  0.8540  0.0292
 6925TIP3    H244971   5.097   5.904   6.190  0.9480  0.5438 -0.1266
 6926TIP3   OH244972   1.195   6.817   6.235 -0.1885 -0.5544  0.0662
 6926TIP3    H144973   1.248   6.895   6.253 -0.9010 -0.3818  1.5673
 6926TIP3    H244974   1.198   6.808   6.140  0.3694  0.9719 -0.0986
 6927TIP3   OH244975   6.547   5.002   7.023  0.1804 -0.3537  0.1366
 6927TIP3    H144976   6.555   5.093   6.994 -0.6050 -0.3157  0.0159
 6927TIP3    H244977   6.630   4.983   7.065  0.7870  0.0691 -0.8246
 6928TIP3   OH244978   7.190   5.976   4.847 -0.1134  0.1261 -0.3411
 6928TIP3    H144979   7.129   5.930   4.789 -1.4908  0.0646  1.0836
 6928TIP3    H244980   7.199   5.918   4.923  0.1034  1.0709  0.3774
 6929TIP3   OH244981   6.282   4.819   4.821  0.1688  0.0695  0.4015
 6929TIP3    H144982   6.225   4.894   4.806 -4.6788 -3.1373  0.5417
 6929TIP3    H244983   6.303   4.823   4.915  0.3815  1.4046  0.3159
 6930TIP3   OH244984   4.184   5.630   6.075  0.4268  0.6320  0.8262
 6930TIP3    H144985   4.120   5.563   6.099  0.2388  1.3229  2.3296
 6930TIP3    H244986   4.265   5.603   6.118  1.0000  0.1379 -0.5029
 6931TIP3   OH244987   4.788   2.027   5.896  0.3897  0.5381 -0.3411
 6931TIP3    H144988   4.821   1.945   5.934  1.2214  0.7838 -0.5128
 6931TIP3    H244989   4.856   2.054   5.835  0.1357  1.3799 -0.2632
 6932TIP3   OH244990   4.983   7.631   5.639  0.3315 -0.1577  0.4547
 6932TIP3    H144991   4.943   7.564   5.584 -0.3528 -0.3013  1.1108
 6932TIP3    H244992   5.008   7.700   5.579 -1.2387  0.0982  0.0546
 6933TIP3   OH244993   7.428   5.469   6.543 -1.3547  0.0403  0.4969
 6933TIP3    H144994   7.388   5.514   6.469 -0.1258  0.5154  0.0911
 6933TIP3    H244995   7.430   5.535   6.613  0.4761  0.6809 -0.1077
 6934TIP3   OH244996   4.528   0.436   5.861  0.2415 -0.3840  0.6948
 6934TIP3    H144997   4.465   0.446   5.932  1.9129  0.0010  2.2093
 6934TIP3    H244998   4.598   0.383   5.899  1.8561  1.0294 -0.1759
 6935TIP3   OH244999   2.667   5.624   7.020 -0.5022  0.3066 -0.5590
 6935TIP3    H145000   2.575   5.647   7.006 -0.8328 -0.0421  0.8873
 6935TIP3    H245001   2.705   5.702   7.059 -0.7416 -0.2739  0.9042
 6936TIP3   OH245002   6.280   6.076   5.814  0.3851  0.0943  0.0848
 6936TIP3    H145003   6.248   6.075   5.905 -1.6173  2.1442 -0.5108
 6936TIP3    H245004   6.340   6.150   5.811  0.8662 -0.3024 -0.1469
 6937TIP3   OH245005   1.762   3.811   6.621  0.1708  0.1618 -0.5292
 6937TIP3    H145006   1.699   3.875   6.587 -1.9904 -0.4263  2.0116
 6937TIP3    H245007   1.709   3.733   6.640  1.2140  0.1618  3.2296
 6938TIP3   OH245008   3.344   1.643   4.636 -0.6571  0.3202 -0.2383
 6938TIP3    H145009   3.370   1.559   4.674  1.3154  0.3580 -1.3740
 6938TIP3    H245010   3.401   1.707   4.679 -2.3352  1.1777  0.8247
 6939TIP3   OH245011   4.167   1.654   6.473  0.3387 -0.4870 -0.1207
 6939TIP3    H145012   4.160   1.636   6.379  2.1384 -0.3529 -0.2995
 6939TIP3    H245013   4.219   1.582   6.508  0.7802  0.1452  0.5509
 6940TIP3   OH245014   2.206   2.804   5.366 -0.0557 -0.3027 -0.7944
 6940TIP3    H145015   2.182   2.750   5.441  0.8973 -0.5738 -0.6749
 6940TIP3    H245016   2.260   2.747   5.311 -0.7093 -0.0992 -1.6756
 6941TIP3   OH245017   4.455   4.240   6.948 -0.0438  0.1580 -0.0580
 6941TIP3    H145018   4.386   4.182   6.980  0.8332 -1.8599 -1.6383
 6941TIP3    H245019   4.444   4.320   6.999 -1.7403 -1.1285  1.7412
 6942TIP3   OH245020   5.706   1.816   5.795 -0.0789  0.3410  0.3155
 6942TIP3    H145021   5.640   1.793   5.860 -0.8215  0.0049 -0.5286
 6942TIP3    H245022   5.718   1.736   5.743  1.4004  0.2254  0.7791
 6943TIP3   OH245023   4.815   6.330   5.442  0.0413  0.0566 -0.2630
 6943TIP3    H145024   4.736   6.339   5.389 -0.3712 -0.7228  0.2045
 6943TIP3    H245025   4.802   6.390   5.516 -0.1494 -0.1329 -0.1430
 6944TIP3   OH245026   1.304   0.560   6.617  0.0603  0.4525  0.4340
 6944TIP3    H145027   1.327   0.524   6.531  3.6282  1.6335  0.7563
 6944TIP3    H245028   1.276   0.650   6.598  0.5001  0.5984  0.4778
 6945TIP3   OH245029   1.154   6.746   6.894 -0.2972  0.5603  0.3885
 6945TIP3    H145030   1.168   6.676   6.958 -1.2407  0.9755  1.0736
 6945TIP3    H245031   1.058   6.751   6.885 -0.3097  2.5325  1.2241
 6946TIP3   OH245032   0.258   1.573   5.543 -0.2417 -0.3320 -0.3113
 6946TIP3    H145033   0.277   1.666   5.539 -2.3797  0.2425  1.0652
 6946TIP3    H245034   0.296   1.544   5.626 -3.1128  0.3539  1.3868
 6947TIP3   OH245035   1.939   0.895   4.822 -0.4370  0.3242  0.1985
 6947TIP3    H145036   1.862   0.874   4.875  1.2136  0.9409  3.0569
 6947TIP3    H245037   1.995   0.818   4.830  0.3880  0.9400  0.4862
 6948TIP3   OH245038   1.718   3.989   6.931 -0.0277  0.5621 -0.0925
 6948TIP3    H145039   1.650   4.055   6.941 -0.8288  0.3639 -3.2139
 6948TIP3    H245040   1.670   3.906   6.928  0.5664  0.2180 -0.1118
 6949TIP3   OH245041   2.284   0.307   5.555  0.2544  0.0955  0.3848
 6949TIP3    H145042   2.228   0.318   5.478 -0.0038  0.0043  0.5564
 6949TIP3    H245043   2.326   0.392   5.567  1.0466 -0.1664 -0.4302
 6950TIP3   OH245044   5.223   4.002   6.181 -0.2376  0.2066  0.1812
 6950TIP3    H145045   5.144   4.054   6.165 -2.2513 -2.2675  1.2311
 6950TIP3    H245046   5.192   3.911   6.180  2.4863 -0.8531  1.3908
 6951TIP3   OH245047   2.203   2.506   4.976  0.0903  0.0052 -0.3542
 6951TIP3    H145048   2.119   2.552   4.972  0.4229  0.5726 -1.1052
 6951TIP3    H245049   2.253   2.542   4.903  1.3339  0.3499  0.6363
 6952TIP3   OH245050   0.868   5.009   4.839 -0.3714  0.4020 -0.1237
 6952TIP3    H145051   0.783   4.982   4.874 -0.4356 -0.4963 -0.9487
 6952TIP3    H245052   0.848   5.039   4.750  0.3044 -0.6850 -0.6496
 6953TIP3   OH245053   2.917   0.479   5.290  0.1229  0.7931 -0.3429
 6953TIP3    H145054   2.953   0.430   5.216  0.0260  0.3150 -0.0729
 6953TIP3    H245055   2.835   0.515   5.257 -0.2198  0.0734 -0.2767
 6954TIP3   OH245056   1.097   6.507   5.921 -0.4519  0.3504  0.3570
 6954TIP3    H145057   1.004   6.525   5.905 -0.2632  0.2486 -0.9183
 6954TIP3    H245058   1.138   6.512   5.835  0.5900 -0.4318  0.7870
 6955TIP3   OH245059   7.568   0.173   6.455  0.3076 -0.2363 -0.7309
 6955TIP3    H145060   7.631   0.212   6.394 -0.2061 -1.4413 -2.0789
 6955TIP3    H245061   7.600   0.084   6.469 -0.9311 -0.7742 -1.2100
 6956TIP3   OH245062   4.470   1.481   5.586  0.4203 -0.6961 -0.1237
 6956TIP3    H145063   4.552   1.514   5.549  0.1456 -2.1320 -2.1988
 6956TIP3    H245064   4.446   1.407   5.529 -1.9676 -0.7364  0.8128
 6957TIP3   OH245065   6.266   7.476   6.670  0.4688  0.1230 -0.4333
 6957TIP3    H145066   6.257   7.403   6.609 -1.3167 -0.4199  0.3926
 6957TIP3    H245067   6.356   7.473   6.699  0.1333 -2.5927  0.5436
 6958TIP3   OH245068   0.411   6.641   6.206  0.5270 -0.1800 -0.3416
 6958TIP3    H145069   0.358   6.678   6.135 -2.7342 -0.4275  1.7528
 6958TIP3    H245070   0.427   6.714   6.265 -0.1818 -0.6984  0.5270
 6959TIP3   OH245071   0.390   7.089   5.865  0.4256  0.2407  0.0134
 6959TIP3    H145072   0.329   7.020   5.835  1.5648 -0.0503 -1.7821
 6959TIP3    H245073   0.437   7.115   5.786  2.3217  0.7946  1.2687
 6960TIP3   OH245074   0.275   1.284   6.700 -0.2368  0.1169 -0.0380
 6960TIP3    H145075   0.361   1.248   6.678 -1.3972 -2.8247 -0.2383
 6960TIP3    H245076   0.270   1.280   6.795  0.6899  2.6307  0.1917
 6961TIP3   OH245077   0.090   6.550   6.129 -0.1948 -0.6670 -0.1403
 6961TIP3    H145078   0.091   6.626   6.187 -1.4564 -0.6897 -0.0492
 6961TIP3    H245079   0.144   6.575   6.055 -0.8544  0.4610 -0.2653
 6962TIP3   OH245080   3.768   6.103   5.850 -1.0439 -0.1068  0.1953
 6962TIP3    H145081   3.767   6.024   5.795  4.4140 -0.4544  0.0483
 6962TIP3    H245082   3.760   6.175   5.787  0.4017 -0.5527 -0.5407
 6963TIP3   OH245083   4.705   4.480   6.969  0.6741 -0.3465 -0.3148
 6963TIP3    H145084   4.762   4.517   7.037  1.6257  2.4086 -2.4133
 6963TIP3    H245085   4.620   4.468   7.012  1.3450  0.9162  1.4567
 6964TIP3   OH245086   3.940   6.288   5.936  0.6169 -0.3113  0.5998
 6964TIP3    H145087   3.885   6.210   5.936 -0.4281  0.4089  1.3527
 6964TIP3    H245088   3.951   6.310   5.843  0.9847 -1.3751  0.3749
 6965TIP3   OH245089   1.876   6.047   5.504  0.2663 -0.3409  0.1070
 6965TIP3    H145090   1.833   6.016   5.425  1.2366 -0.6862 -0.2964
 6965TIP3    H245091   1.944   6.107   5.473  0.6183 -0.4326  0.6757
 6966TIP3   OH245092   6.425   0.873   5.619 -0.2543  0.6276  0.2571
 6966TIP3    H145093   6.414   0.907   5.707  1.0956  0.8188  0.3712
 6966TIP3    H245094   6.424   0.950   5.562 -0.8106  0.5329  0.1366
 6967TIP3   OH245095   1.668   5.502   7.297  0.0175 -0.0598  0.5223
 6967TIP3    H145096   1.616   5.427   7.268 -0.9036  0.5651  0.4934
 6967TIP3    H245097   1.746   5.500   7.242 -0.0914 -0.8836  0.3921
 6968TIP3   OH245098   5.029   1.095   5.367 -0.1082 -0.4049  0.2813
 6968TIP3    H145099   5.108   1.132   5.328 -0.5480  0.9049  0.5836
 6968TIP3    H245100   5.061   1.043   5.440  0.5109 -0.2360  0.1367
 6969TIP3   OH245101   5.236   3.897   6.641  0.0454 -0.2003  0.3510
 6969TIP3    H145102   5.207   3.891   6.732  0.7485 -0.4309  0.5643
 6969TIP3    H245103   5.267   3.987   6.632 -0.1063 -0.1520  0.3180
 6970TIP3   OH245104   7.120   0.246   5.833 -0.2041 -0.2127  0.1868
 6970TIP3    H145105   7.137   0.154   5.853 -0.4308 -0.5468 -1.0580
 6970TIP3    H245106   7.204   0.289   5.847 -0.0278 -0.6513  0.5199
 6971TIP3   OH245107   4.908   2.656   5.483 -0.1573 -0.5366  0.4874
 6971TIP3    H145108   4.973   2.634   5.549  0.2443 -0.0214  0.2773
 6971TIP3    H245109   4.956   2.652   5.400 -0.4081 -0.2403  0.3239
 6972TIP3   OH245110   0.702   7.250   5.869  0.0887 -0.2645 -0.3599
 6972TIP3    H145111   0.773   7.310   5.846  0.7530 -0.3740  1.3064
 6972TIP3    H245112   0.627   7.281   5.817  0.5490  1.6812  0.0567
 6973TIP3   OH245113   0.421   1.499   6.827  0.0527 -0.0391 -0.0183
 6973TIP3    H145114   0.357   1.569   6.817  0.7442  0.4241 -1.4770
 6973TIP3    H245115   0.434   1.491   6.922 -0.6699  1.2164  0.2001
 6974TIP3   OH245116   0.870   2.500   5.479  0.1937  0.1201  0.1917
 6974TIP3    H145117   0.893   2.572   5.539 -2.2295  1.5618 -0.4599
 6974TIP3    H245118   0.784   2.525   5.444  0.6788 -1.5843 -2.4895
 6975TIP3   OH245119   7.200   4.347   4.593  0.0753 -0.1277  0.4654
 6975TIP3    H145120   7.147   4.300   4.529  1.5953 -0.9924 -0.2237
 6975TIP3    H245121   7.258   4.280   4.630  1.5396  0.9746  0.2670
 6976TIP3   OH245122   6.106   5.017   5.594  0.2134  0.4069 -0.7160
 6976TIP3    H145123   6.148   5.101   5.612  0.0307  0.8926 -2.3622
 6976TIP3    H245124   6.147   4.955   5.655  1.8228  1.2817 -0.8600
 6977TIP3   OH245125   1.475   6.290   4.811  0.5757  0.0105 -0.0105
 6977TIP3    H145126   1.511   6.223   4.753 -1.2777 -1.1061  0.0458
 6977TIP3    H245127   1.473   6.249   4.897 -3.4048 -1.2062 -0.4575
 6978TIP3   OH245128   7.041   6.964   6.407 -0.0370 -0.0729 -0.1838
 6978TIP3    H145129   7.008   6.987   6.320 -0.9475  0.6066  0.3259
 6978TIP3    H245130   7.133   6.987   6.404 -0.1495  0.3231 -0.8408
 6979TIP3   OH245131   4.339   2.798   6.204  0.0998 -0.1153  0.6273
 6979TIP3    H145132   4.327   2.754   6.289  1.2810  2.1039  2.0241
 6979TIP3    H245133   4.418   2.758   6.167  0.6901  0.2382  1.4849
 6980TIP3   OH245134   0.111   5.056   7.290  0.7540  0.3772 -0.6908
 6980TIP3    H145135   0.162   5.135   7.272  0.0025  1.0659  0.1009
 6980TIP3    H245136   0.025   5.089   7.318  0.6879 -0.6986  0.4749
 6981TIP3   OH245137   5.979   1.774   5.694 -0.5181 -0.6513  0.1143
 6981TIP3    H145138   5.912   1.713   5.665  0.4781 -2.1200  0.7981
 6981TIP3    H245139   5.999   1.748   5.784  0.4730  0.1953  0.1717
 6982TIP3   OH245140   6.618   2.655   5.287 -0.3409  0.3173 -0.2727
 6982TIP3    H145141   6.685   2.588   5.274 -0.9527 -0.5015  0.6379
 6982TIP3    H245142   6.650   2.731   5.239  0.6689 -0.4311 -0.8184
 6983TIP3   OH245143   1.067   6.331   4.458 -0.0993  0.1790 -0.1754
 6983TIP3    H145144   1.149   6.365   4.493 -0.9502  0.9659  1.1541
 6983TIP3    H245145   0.999   6.383   4.502 -1.3886 -1.9666  0.5140
 6984TIP3   OH245146   2.905   7.638   7.635 -0.0114  0.2397 -0.1746
 6984TIP3    H145147   2.854   7.589   7.571 -0.1884  0.9085 -0.5572
 6984TIP3    H245148   2.989   7.594   7.638 -0.3955 -0.4997  0.0025
 6985TIP3   OH245149   7.317   4.381   5.100 -0.2304  0.0968  0.8145
 6985TIP3    H145150   7.252   4.434   5.053  0.5245 -0.2603 -0.6900
 6985TIP3    H245151   7.398   4.432   5.095  1.2280 -2.1961 -3.0289
 6986TIP3   OH245152   0.059   7.680   5.544 -0.2896  0.2320 -0.0742
 6986TIP3    H145153   0.098   7.767   5.549 -0.5935  0.3710 -0.1461
 6986TIP3    H245154   0.133   7.620   5.557  0.3498  0.4423 -2.2259
 6987TIP3   OH245155   0.319   7.568   5.350 -0.3191 -0.4926 -0.0971
 6987TIP3    H145156   0.355   7.654   5.370  1.0271 -0.9395 -0.5240
 6987TIP3    H245157   0.393   7.518   5.316 -1.2100 -1.6423 -0.4019
 6988TIP3   OH245158   7.053   7.500   5.651  0.0824  0.4765 -0.2439
 6988TIP3    H145159   7.145   7.472   5.653 -0.3183 -0.8638  1.0921
 6988TIP3    H245160   7.047   7.568   5.719 -0.1105 -0.1372  0.3613
 6989TIP3   OH245161   6.321   7.396   5.842 -0.1540 -0.0576 -0.2275
 6989TIP3    H145162   6.399   7.450   5.827  1.5006 -1.8424  1.4751
 6989TIP3    H245163   6.270   7.445   5.906 -0.3761  1.0241 -1.1925
 6990TIP3   OH245164   0.473   0.438   5.308 -0.3273 -0.2694 -0.3417
 6990TIP3    H145165   0.455   0.461   5.400  0.6578 -0.4865 -0.0881
 6990TIP3    H245166   0.536   0.503   5.279  1.3498 -1.7196 -0.0712
 6991TIP3   OH245167   5.764   0.674   7.040  0.1952 -0.0998  0.0077
 6991TIP3    H145168   5.726   0.700   6.957  0.9431 -0.5207 -0.4769
 6991TIP3    H245169   5.703   0.708   7.106 -1.2834 -1.1525 -0.7364
 6992TIP3   OH245170   3.625   7.267   4.966  0.4300  0.2681  0.2749
 6992TIP3    H145171   3.584   7.238   5.048  1.3562 -2.3211 -0.0641
 6992TIP3    H245172   3.585   7.211   4.899  0.6259  1.4492 -0.8580
 6993TIP3   OH245173   4.202   4.773   6.608 -0.0737 -0.2575 -0.2112
 6993TIP3    H145174   4.212   4.702   6.671  2.5856 -1.1843 -1.5081
 6993TIP3    H245175   4.125   4.750   6.557 -1.2366 -0.3799  1.5108
 6994TIP3   OH245176   1.324   0.893   7.532  0.1427  0.5956  0.4672
 6994TIP3    H145177   1.402   0.944   7.509  0.4733 -0.1950 -0.2365
 6994TIP3    H245178   1.353   0.832   7.599  0.7852 -1.2909 -1.4001
 6995TIP3   OH245179   0.129   1.003   7.571 -0.0764  0.1266 -0.1353
 6995TIP3    H145180   0.181   0.941   7.622  0.1214 -1.3747 -2.0449
 6995TIP3    H245181   0.090   1.061   7.637  2.3817  0.0889  1.5043
 6996TIP3   OH245182   3.577   1.910   5.127 -0.4490 -0.0036  0.7012
 6996TIP3    H145183   3.657   1.891   5.077 -0.7205 -0.2892  0.3726
 6996TIP3    H245184   3.508   1.863   5.081 -1.1555  1.7456 -0.1396
 6997TIP3   OH245185   5.085   2.165   6.551 -0.6112  0.1555  0.4205
 6997TIP3    H145186   5.173   2.203   6.558  0.7545 -2.8247  0.9253
 6997TIP3    H245187   5.075   2.143   6.459  0.4055 -2.0193  0.7736
 6998TIP3   OH245188   6.047   6.271   5.791  0.3265 -0.1647  0.0529
 6998TIP3    H145189   5.960   6.237   5.812  0.6999 -0.0324  1.9977
 6998TIP3    H245190   6.106   6.197   5.804  1.0363  0.8194  3.4974
 6999TIP3   OH245191   2.922   6.135   5.909  0.2101  0.0743  0.0367
 6999TIP3    H145192   2.984   6.067   5.936  0.2126 -1.0605 -2.6205
 6999TIP3    H245193   2.977   6.205   5.874  0.0857  0.5256  0.7039
 7000TIP3   OH245194   4.511   4.528   5.453 -0.1170  0.3679  0.8743
 7000TIP3    H145195   4.593   4.510   5.406 -0.3695 -0.7785  0.8254
 7000TIP3    H245196   4.443   4.518   5.387 -0.2888  1.7318  0.8187
 7001TIP3   OH245197   1.425   3.014   6.211 -0.0281 -0.0826 -0.4353
 7001TIP3    H145198   1.446   2.921   6.210 -1.0349 -0.3874  1.3900
 7001TIP3    H245199   1.333   3.018   6.185 -0.6774  0.1159  1.6997
 7002TIP3   OH245200   7.061   0.232   6.189 -0.8677 -0.4051  0.8766
 7002TIP3    H145201   6.974   0.252   6.154 -0.2867  0.5420 -0.0795
 7002TIP3    H245202   7.095   0.164   6.131 -0.1619  0.7092 -0.0700
 7003TIP3   OH245203   4.853   3.866   5.189 -0.4879 -0.0857  0.0750
 7003TIP3    H145204   4.917   3.931   5.217 -2.9455  1.7278  1.9726
 7003TIP3    H245205   4.860   3.864   5.094  0.3015  2.3252  0.0230
 7004TIP3   OH245206   7.163   1.469   7.461 -0.3667  0.0150 -0.0456
 7004TIP3    H145207   7.259   1.471   7.456 -0.2874  0.1135  1.3337
 7004TIP3    H245208   7.135   1.548   7.414  0.3348  1.2417  1.5260
 7005TIP3   OH245209   3.470   2.487   5.760 -0.0700 -0.0658  0.0736
 7005TIP3    H145210   3.423   2.561   5.798 -0.9316 -0.2626 -0.5680
 7005TIP3    H245211   3.453   2.494   5.666  0.8406 -0.3895 -0.1235
 7006TIP3   OH245212   5.529   4.409   6.437  0.0944 -0.0979 -0.3104
 7006TIP3    H145213   5.574   4.493   6.444  0.8112 -0.4252 -0.9101
 7006TIP3    H245214   5.599   4.344   6.430 -0.4456 -0.8088  0.7212
 7007TIP3   OH245215   1.222   5.839   4.517 -0.0455 -0.5824 -0.5380
 7007TIP3    H145216   1.149   5.823   4.576 -0.1669  2.2391  0.2241
 7007TIP3    H245217   1.186   5.894   4.447  0.7806 -1.3381 -1.5951
 7008TIP3   OH245218   6.120   5.503   5.122  0.0972 -0.4165  0.5151
 7008TIP3    H145219   6.161   5.417   5.136 -0.8266 -1.0703 -0.6443
 7008TIP3    H245220   6.026   5.485   5.126 -0.1063  0.5954  0.4961
 7009TIP3   OH245221   5.768   4.661   5.130 -0.4486  0.0478  0.1849
 7009TIP3    H145222   5.856   4.696   5.145  0.4727 -2.8443  2.4348
 7009TIP3    H245223   5.724   4.668   5.215 -1.0866 -1.8150  0.0532
 7010TIP3   OH245224   6.552   4.950   5.058 -0.2745  0.2396 -0.2467
 7010TIP3    H145225   6.584   4.987   5.140 -0.8752  1.5576 -0.5768
 7010TIP3    H245226   6.474   5.001   5.038  0.8269  1.1684 -2.5339
 7011TIP3   OH245227   5.206   7.454   5.648  0.2029 -0.1578  0.3388
 7011TIP3    H145228   5.131   7.427   5.595 -0.6958  0.6537  1.1579
 7011TIP3    H245229   5.167   7.479   5.732  1.3420  0.7340  0.6127
 7012TIP3   OH245230   0.480   2.698   6.534 -0.2600  0.6939  0.0290
 7012TIP3    H145231   0.536   2.657   6.600  0.2017  0.1623 -0.6886
 7012TIP3    H245232   0.392   2.665   6.554 -0.6113  2.5243  1.9631
 7013TIP3   OH245233   4.498   0.245   6.801  0.2632  0.2996 -0.2621
 7013TIP3    H145234   4.444   0.282   6.732 -0.7865  0.8866  0.8359
 7013TIP3    H245235   4.551   0.179   6.757  1.6306  2.5080 -2.1273
 7014TIP3   OH245236   2.063   0.626   5.492 -0.2240  0.4655  0.1630
 7014TIP3    H145237   2.085   0.666   5.407 -0.8968 -2.6643 -1.6257
 7014TIP3    H245238   2.148   0.606   5.531  0.0952  1.3799 -0.0345
 7015TIP3   OH245239   3.920   6.895   4.687  0.0114 -0.0164  0.5043
 7015TIP3    H145240   3.987   6.913   4.622  0.8634  0.4983  1.4824
 7015TIP3    H245241   3.861   6.971   4.682 -0.0195 -0.0590  0.2238
 7016TIP3   OH245242   5.172   0.351   6.655  0.7286  0.4894  0.1496
 7016TIP3    H145243   5.132   0.286   6.598  2.0324 -0.4996  0.3186
 7016TIP3    H245244   5.172   0.432   6.603  0.0778  0.1042 -0.4715
 7017TIP3   OH245245   2.618   6.733   6.246 -0.3148  0.8488 -0.1970
 7017TIP3    H145246   2.572   6.816   6.237 -1.8569  0.2175  1.3240
 7017TIP3    H245247   2.548   6.667   6.244  0.6491 -0.2430  0.9101
 7018TIP3   OH245248   3.922   2.061   5.483  0.0840  0.1989  0.0579
 7018TIP3    H145249   3.981   2.010   5.538  0.5094  0.8741  0.2448
 7018TIP3    H245250   3.962   2.148   5.479 -0.4072  0.4061 -0.5931
 7019TIP3   OH245251   4.106   1.958   6.253 -0.2456 -0.1889 -0.7142
 7019TIP3    H145252   4.201   1.961   6.270 -0.2319 -0.2204 -0.7837
 7019TIP3    H245253   4.066   1.964   6.339 -0.1602 -2.0403 -0.5202
 7020TIP3   OH245254   1.905   1.177   6.843 -0.6205  0.5843 -0.3203
 7020TIP3    H145255   1.847   1.124   6.789  0.5507 -2.4355  1.1366
 7020TIP3    H245256   1.863   1.181   6.928 -0.0310  0.7912 -0.0304
 7021TIP3   OH245257   3.722   5.617   4.651 -0.2141 -0.2546  0.5073
 7021TIP3    H145258   3.744   5.583   4.564  2.0460  1.1070  0.4709
 7021TIP3    H245259   3.734   5.543   4.710  0.5134 -0.6132 -0.0802
 7022TIP3   OH245260   2.232   3.131   5.646  0.0639 -0.4201 -0.2685
 7022TIP3    H145261   2.324   3.114   5.664  0.3330  0.4889 -0.7068
 7022TIP3    H245262   2.186   3.103   5.725  0.8013 -0.0949  0.2819
 7023TIP3   OH245263   6.525   0.076   6.101 -0.3788 -0.0214 -0.3101
 7023TIP3    H145264   6.487   0.155   6.061 -1.3955 -0.5321 -0.3899
 7023TIP3    H245265   6.456   0.041   6.156  0.7524  0.2290  1.3208
 7024TIP3   OH245266   4.902   4.850   6.258  0.2869  0.5435  0.2867
 7024TIP3    H145267   4.951   4.923   6.297  0.3966 -0.0868  1.3819
 7024TIP3    H245268   4.857   4.810   6.333  1.1001 -1.1813 -0.1114
 7025TIP3   OH245269   6.850   3.371   4.555 -0.1749 -0.2206 -0.7424
 7025TIP3    H145270   6.851   3.421   4.637 -0.3062  1.3094 -1.6393
 7025TIP3    H245271   6.790   3.298   4.573 -0.7969  0.5104  0.2883
 7026TIP3   OH245272   7.551   3.559   7.017 -0.5417  0.0129  0.4865
 7026TIP3    H145273   7.620   3.619   6.989  0.0973  0.0727  2.0833
 7026TIP3    H245274   7.555   3.560   7.113 -0.7350 -2.2809  0.5918
 7027TIP3   OH245275   6.070   1.737   5.235  1.3484 -0.1280  0.3743
 7027TIP3    H145276   6.088   1.652   5.275  1.4894  0.1893  1.0143
 7027TIP3    H245277   6.043   1.792   5.309  0.2820  0.1126 -0.1856
 7028TIP3   OH245278   0.499   1.685   6.379 -0.3961  0.3385 -0.9518
 7028TIP3    H145279   0.518   1.602   6.424  1.3337  1.6326  0.8875
 7028TIP3    H245280   0.460   1.659   6.296 -2.0660 -2.2519  0.5265
 7029TIP3   OH245281   4.499   5.463   5.295 -0.0160  0.7232 -0.1265
 7029TIP3    H145282   4.593   5.445   5.303  0.0326  1.0250 -0.0085
 7029TIP3    H245283   4.475   5.506   5.378 -0.0861  1.3837 -0.4799
 7030TIP3   OH245284   5.174   1.391   5.386 -0.1561 -0.0196  0.6024
 7030TIP3    H145285   5.104   1.337   5.347 -1.3655  1.5630  0.4767
 7030TIP3    H245286   5.161   1.382   5.480 -0.3659  0.0520  0.5812
 7031TIP3   OH245287   1.930   1.464   6.161  0.2632  0.7226 -0.1757
 7031TIP3    H145288   2.007   1.503   6.122  0.5472  0.6217  0.2792
 7031TIP3    H245289   1.951   1.455   6.254 -0.7244  1.7573  0.1763
 7032TIP3   OH245290   5.946   3.780   5.351 -0.5101 -0.0361 -0.4432
 7032TIP3    H145291   5.892   3.705   5.324 -1.6166  0.0534  1.3813
 7032TIP3    H245292   5.883   3.847   5.375  0.3812  0.0720  1.7454
 7033TIP3   OH245293   4.222   6.422   6.553 -0.0504  0.7898  0.5643
 7033TIP3    H145294   4.286   6.444   6.621  1.6231 -0.3192 -0.5515
 7033TIP3    H245295   4.224   6.496   6.492  0.4824  0.5918  0.3350
 7034TIP3   OH245296   2.957   3.776   5.472 -0.2087  0.7556 -0.3792
 7034TIP3    H145297   2.926   3.802   5.559  0.4946  0.1492  0.0623
 7034TIP3    H245298   3.052   3.779   5.479 -0.1319  2.7300 -1.7562
 7035TIP3   OH245299   0.740   5.473   4.948  0.2270 -0.5066 -0.1101
 7035TIP3    H145300   0.767   5.382   4.935  1.2273 -0.0364 -1.5667
 7035TIP3    H245301   0.823   5.522   4.951 -0.3125  0.7481 -2.8205
 7036TIP3   OH245302   3.383   5.961   5.917  0.0877 -0.1462  0.0247
 7036TIP3    H145303   3.404   6.016   5.841  0.3693 -1.0869 -0.6029
 7036TIP3    H245304   3.444   5.887   5.910 -2.0505 -1.9375 -0.6927
 7037TIP3   OH245305   1.071   6.758   4.880 -0.4034 -0.0161  0.3884
 7037TIP3    H145306   1.087   6.821   4.950 -1.6241  0.0181  0.6514
 7037TIP3    H245307   1.050   6.812   4.804  0.3840 -0.0713  0.1180
 7038TIP3   OH245308   2.391   3.413  11.904 -0.0537  0.0599  0.0256
 7038TIP3    H145309   2.418   3.401  11.813  0.9548  1.1565  0.1604
 7038TIP3    H245310   2.310   3.463  11.899  0.4441  0.8635 -0.2678
 7039TIP3   OH245311   1.651   1.599   6.115 -0.2704  0.0279  0.2034
 7039TIP3    H145312   1.559   1.602   6.139 -0.1926 -0.3228  0.5571
 7039TIP3    H245313   1.679   1.510   6.138  0.6665  0.7478  1.9713
 7040TIP3   OH245314   0.306   1.905   5.148 -0.5227 -0.2098  0.4479
 7040TIP3    H145315   0.310   1.977   5.085 -0.3818 -0.9686 -0.4408
 7040TIP3    H245316   0.212   1.890   5.162 -0.6667 -1.7986 -1.7178
 7041TIP3   OH245317   4.055   6.038   4.891 -0.1600 -0.3020  0.6402
 7041TIP3    H145318   4.056   5.958   4.943 -1.0278  0.2590  1.5628
 7041TIP3    H245319   4.145   6.049   4.861 -0.2226 -2.1905 -0.4358
 7042TIP3   OH245320   0.520   5.930   4.473 -0.4001  0.1494  1.1283
 7042TIP3    H145321   0.452   5.917   4.407 -0.7600  2.8610  0.8158
 7042TIP3    H245322   0.476   5.979   4.543  1.0263  1.4508  1.1785
 7043TIP3   OH245323   5.475   0.467   6.141 -0.2244 -0.0609 -0.1586
 7043TIP3    H145324   5.473   0.402   6.070  0.6643  0.6318 -0.8426
 7043TIP3    H245325   5.479   0.551   6.096  0.6158  0.3777  0.7040
 7044TIP3   OH245326   0.650   6.375   6.933  0.6051 -0.2777  0.0278
 7044TIP3    H145327   0.730   6.395   6.885  1.6215 -3.3677  0.2602
 7044TIP3    H245328   0.679   6.348   7.020 -0.3733 -3.3087 -0.4504
 7045TIP3   OH245329   4.304   0.004   5.975 -0.0073  0.2695 -0.0472
 7045TIP3    H145330   4.394   0.010   5.944 -0.0855  0.9824 -0.1626
 7045TIP3    H245331   4.259   0.077   5.931 -0.6421 -0.0882 -0.0050
 7046TIP3   OH245332   2.461   4.195   6.113 -0.3460  0.4760 -0.1807
 7046TIP3    H145333   2.465   4.188   6.208  2.2412 -0.1228 -0.2797
 7046TIP3    H245334   2.486   4.286   6.094  0.5536  0.2028 -0.3319
 7047TIP3   OH245335   3.275   5.010   7.059  0.4998 -0.4808 -0.0486
 7047TIP3    H145336   3.296   4.934   7.004 -0.1880 -0.5220 -0.2594
 7047TIP3    H245337   3.348   5.070   7.045 -0.9756  0.8072 -3.3553
 7048TIP3   OH245338   6.313   1.825   6.027  0.2335 -0.9988  0.1240
 7048TIP3    H145339   6.334   1.780   6.109  0.9917 -0.6128  0.1497
 7048TIP3    H245340   6.323   1.918   6.047  0.8401 -0.9208 -0.5168
 7049TIP3   OH245341   5.119   6.436   4.790 -0.1459 -0.1141  0.4422
 7049TIP3    H145342   5.181   6.489   4.841 -1.0974  2.6832 -1.0764
 7049TIP3    H245343   5.051   6.411   4.852  0.5236  0.1336  1.2936
 7050TIP3   OH245344   0.741   4.614   5.003 -0.4264  0.3322 -0.0228
 7050TIP3    H145345   0.689   4.611   5.084  0.3732  0.9424  0.5310
 7050TIP3    H245346   0.831   4.628   5.033 -0.2407  1.5422 -1.0632
 7051TIP3   OH245347   0.677   7.175   6.855 -0.3470  0.1655  0.0260
 7051TIP3    H145348   0.682   7.094   6.907 -0.8775 -0.2981 -0.6256
 7051TIP3    H245349   0.754   7.173   6.799 -1.8027 -1.4018 -2.0896
 7052TIP3   OH245350   6.307   4.336   5.619  0.5773 -0.4221 -0.4628
 7052TIP3    H145351   6.287   4.369   5.707  0.0629 -1.3091 -0.2385
 7052TIP3    H245352   6.392   4.292   5.628  0.2312 -1.0563 -0.2623
 7053TIP3   OH245353   0.480   2.200   6.424  0.6146 -0.5554 -0.7339
 7053TIP3    H145354   0.433   2.128   6.382  0.6332 -0.0261 -1.7140
 7053TIP3    H245355   0.572   2.180   6.411  0.6292  0.3105 -2.2887
 7054TIP3   OH245356   1.379   6.927   6.867 -0.0497 -0.1842  0.3305
 7054TIP3    H145357   1.416   7.004   6.912  2.1799 -1.8149  1.4686
 7054TIP3    H245358   1.355   6.868   6.938  0.3464 -1.4433 -0.5640
 7055TIP3   OH245359   5.256   2.798   5.080 -0.3767  0.1216  0.0779
 7055TIP3    H145360   5.186   2.793   5.144 -1.0411  1.2211 -0.5366
 7055TIP3    H245361   5.334   2.768   5.127 -1.3625 -1.9150  0.5515
 7056TIP3   OH245362   0.636   1.501   5.186 -0.2322 -0.3287  0.1469
 7056TIP3    H145363   0.674   1.499   5.098  0.4977 -0.8488  0.4640
 7056TIP3    H245364   0.619   1.409   5.207  1.7145 -0.4493  1.4340
 7057TIP3   OH245365   4.737   6.530   5.634 -0.0359 -0.3250  0.0112
 7057TIP3    H145366   4.783   6.608   5.604 -2.4454  0.5995 -1.5706
 7057TIP3    H245367   4.709   6.552   5.723  0.5869  0.0034  0.1321
 7058TIP3   OH245368   2.186   2.307   7.176  0.4144  0.2635  0.9008
 7058TIP3    H145369   2.118   2.243   7.154  0.7066  0.1992  0.1772
 7058TIP3    H245370   2.265   2.254   7.189 -0.0292  0.1303  3.5436
 7059TIP3   OH245371   0.457   7.392   6.055 -0.1283 -0.1170 -0.4913
 7059TIP3    H145372   0.480   7.308   6.093  0.2261 -0.4529 -1.4196
 7059TIP3    H245373   0.537   7.443   6.059 -0.4264  0.3097  0.3690
 7060TIP3   OH245374   4.366   2.013   6.295  0.3408  0.0334  0.2448
 7060TIP3    H145375   4.315   2.013   6.376  0.8491  0.9813  0.5784
 7060TIP3    H245376   4.453   2.043   6.321 -0.0248  2.3160 -0.9577
 7061TIP3   OH245377   3.030   6.226   7.476 -0.3447  0.3135 -0.1794
 7061TIP3    H145378   2.954   6.178   7.442  1.1866 -0.8983 -2.1610
 7061TIP3    H245379   3.086   6.159   7.514 -0.6591  1.3167  2.2092
 7062TIP3   OH245380   3.595   1.701   5.579  0.4358 -0.1890  0.2986
 7062TIP3    H145381   3.555   1.752   5.509  0.7488 -0.0589  0.2151
 7062TIP3    H245382   3.636   1.766   5.636  1.9554 -0.4233 -0.4997
 7063TIP3   OH245383   5.903   7.150   7.036  0.2026 -0.2022  0.3757
 7063TIP3    H145384   5.919   7.191   7.121 -2.5266  1.4061  0.2194
 7063TIP3    H245385   5.890   7.223   6.975 -2.0765 -1.2183 -0.4990
 7064TIP3   OH245386   5.314   2.243   5.504  0.0904 -0.1429 -0.6673
 7064TIP3    H145387   5.248   2.248   5.435 -0.8787  0.2876  0.2675
 7064TIP3    H245388   5.285   2.172   5.561 -0.2989  0.8917  0.4650
 7065TIP3   OH245389   2.247   6.173   5.140 -0.7134  0.1417  0.5121
 7065TIP3    H145390   2.162   6.135   5.118 -0.2310  0.0480 -1.3059
 7065TIP3    H245391   2.247   6.177   5.236 -1.8566 -1.9743  0.6627
 7066TIP3   OH245392   5.611   2.252   5.868 -0.5618  0.4010 -0.1456
 7066TIP3    H145393   5.628   2.178   5.810  1.3382  0.4536  0.2730
 7066TIP3    H245394   5.666   2.323   5.834 -1.2506  1.1713  0.3066
 7067TIP3   OH245395   5.301   3.421   5.317 -0.4529  0.0699  0.2719
 7067TIP3    H145396   5.375   3.398   5.372 -0.6974 -0.5246  0.3568
 7067TIP3    H245397   5.230   3.364   5.347 -0.2934 -1.0298 -1.3755
 7068TIP3   OH245398   0.394   6.516   5.624 -0.3523  0.0735  0.2088
 7068TIP3    H145399   0.461   6.535   5.689 -0.9364 -0.1231  0.8872
 7068TIP3    H245400   0.422   6.563   5.545  0.3571  0.3294  0.6073
 7069TIP3   OH245401   3.243   3.983   5.854 -0.5543  0.0729  0.6050
 7069TIP3    H145402   3.279   4.002   5.940  1.4817 -4.3600  1.0115
 7069TIP3    H245403   3.308   4.017   5.792 -0.2392  0.1324  0.9688
 7070TIP3   OH245404   2.402   3.407   5.933  0.0467  0.3726  0.0665
 7070TIP3    H145405   2.405   3.319   5.895 -1.9517 -0.8546  2.4593
 7070TIP3    H245406   2.456   3.400   6.012  1.5628  1.9696 -0.7398
 7071TIP3   OH245407   2.568   0.750   6.683 -0.1930 -0.0236  0.2827
 7071TIP3    H145408   2.633   0.692   6.643 -1.3527 -0.7062 -0.6917
 7071TIP3    H245409   2.616   0.832   6.698  0.9350 -0.5516 -0.2422
 7072TIP3   OH245410   0.576   3.182   4.946 -0.0499 -0.5874  0.0339
 7072TIP3    H145411   0.483   3.189   4.967  0.2909 -1.7363  2.2257
 7072TIP3    H245412   0.613   3.266   4.972 -0.3638 -0.3758 -0.2033
 7073TIP3   OH245413   0.295   0.037   4.545 -0.7211  0.4833 -0.2583
 7073TIP3    H145414   0.362   0.014   4.608 -0.2755 -0.4720 -1.0494
 7073TIP3    H245415   0.227  -0.030   4.557 -0.6884  0.3682 -0.7043
 7074TIP3   OH245416   1.940   5.079   5.430 -0.0752  0.4596  0.8233
 7074TIP3    H145417   1.912   5.087   5.521  0.3705 -0.6659  1.0807
 7074TIP3    H245418   2.016   5.137   5.422  0.3274  0.0168  1.3711
 7075TIP3   OH245419   2.353   6.015   6.309 -0.4354  0.1133  0.9095
 7075TIP3    H145420   2.307   5.987   6.388 -1.3974 -1.0705 -0.0203
 7075TIP3    H245421   2.435   6.052   6.340 -0.6437 -0.6384  2.4340
 7076TIP3   OH245422   4.454   2.438   6.943 -0.2913 -0.5382 -0.3234
 7076TIP3    H145423   4.362   2.464   6.944 -0.6908 -1.8131 -1.0678
 7076TIP3    H245424   4.485   2.468   6.857  0.7977  2.3270  0.9342
 7077TIP3   OH245425   4.645   1.499   6.234  0.3921 -0.4077 -0.2164
 7077TIP3    H145426   4.725   1.455   6.206  0.6538  0.6980 -1.2799
 7077TIP3    H245427   4.639   1.481   6.328  1.5381 -1.0479 -0.2528
 7078TIP3   OH245428   5.747   4.588   6.106  0.0790 -0.5310  0.4253
 7078TIP3    H145429   5.662   4.547   6.120 -0.2349 -0.5803 -1.3243
 7078TIP3    H245430   5.801   4.560   6.180 -2.7061  3.4439  4.4831
 7079TIP3   OH245431   6.382   3.588   7.338 -0.7920 -0.0373  0.2926
 7079TIP3    H145432   6.368   3.495   7.359 -0.1759 -0.6051 -1.5797
 7079TIP3    H245433   6.311   3.610   7.278 -0.2919  0.3716 -0.1530
 7080TIP3   OH245434   0.652   6.429   5.056 -0.0388  0.2055  0.4610
 7080TIP3    H145435   0.560   6.436   5.084 -0.3595  0.8618 -0.6799
 7080TIP3    H245436   0.669   6.511   5.009  0.5131 -0.7200 -1.0343
 7081TIP3   OH245437   6.935   2.349   5.537  0.1381 -0.4954 -0.0515
 7081TIP3    H145438   6.895   2.299   5.608  1.9360 -1.8681  0.0702
 7081TIP3    H245439   7.027   2.359   5.563  0.6491 -0.3181 -1.7854
 7082TIP3   OH245440   3.641   5.063   5.648  0.2755  0.1240  0.0148
 7082TIP3    H145441   3.555   5.055   5.606 -0.4892  0.4640  1.4422
 7082TIP3    H245442   3.670   4.973   5.662 -0.2392 -0.0067  0.2629
 7083TIP3   OH245443   6.592   1.557   5.822  0.4818  0.5611 -0.2460
 7083TIP3    H145444   6.546   1.509   5.753  1.3364 -1.5365  0.5334
 7083TIP3    H245445   6.685   1.544   5.802  0.7348  0.5834  0.8564
 7084TIP3   OH245446   1.656   1.665   5.254 -0.4947  0.0950  0.3267
 7084TIP3    H145447   1.746   1.681   5.228 -1.4456  1.7196 -2.4389
 7084TIP3    H245448   1.605   1.676   5.173 -3.5072  2.2377  2.2918
 7085TIP3   OH245449   6.230   1.787   5.002 -0.1413  0.1100 -0.3983
 7085TIP3    H145450   6.159   1.770   5.065  0.6457  1.2814  0.8467
 7085TIP3    H245451   6.184   1.808   4.920 -1.2744  1.2959  0.4904
 7086TIP3   OH245452   0.819   3.925   6.472  0.1690  0.0672  0.0018
 7086TIP3    H145453   0.832   4.013   6.508 -0.8133 -0.0293  0.6343
 7086TIP3    H245454   0.808   3.869   6.550 -2.2299 -0.1136 -0.4010
 7087TIP3   OH245455   1.915   0.462   7.196 -0.2584 -0.4836  0.0810
 7087TIP3    H145456   1.935   0.472   7.289 -1.5244 -2.0337  0.5779
 7087TIP3    H245457   1.993   0.420   7.159  0.0268 -0.3898  0.5675
 7088TIP3   OH245458   4.777   4.204   6.660  0.2150 -0.0438  0.1885
 7088TIP3    H145459   4.764   4.143   6.588  1.9606 -1.5235  1.0289
 7088TIP3    H245460   4.693   4.248   6.670 -0.9932 -1.9873 -0.7745
 7089TIP3   OH245461   0.762   3.722   6.268  0.2263  0.5344 -0.1521
 7089TIP3    H145462   0.789   3.788   6.332  2.3729 -0.1353 -0.2959
 7089TIP3    H245463   0.775   3.764   6.183  1.8696 -0.1017 -0.2548
 7090TIP3   OH245464   5.068   5.270   6.148  0.2796 -0.3282  0.5198
 7090TIP3    H145465   5.041   5.205   6.083  1.2264  0.8955 -1.2134
 7090TIP3    H245466   5.126   5.223   6.207  0.9457 -1.0851 -0.6989
 7091TIP3   OH245467   6.718   0.770   6.547 -0.1271  0.1590  0.4280
 7091TIP3    H145468   6.730   0.709   6.620  0.2889 -0.6550 -0.2923
 7091TIP3    H245469   6.803   0.814   6.539  0.3504 -0.8569 -0.5004
 7092TIP3   OH245470   2.098   0.256   5.321 -0.4020  0.2623  0.3725
 7092TIP3    H145471   2.050   0.336   5.300 -0.6287  0.1601  0.4914
 7092TIP3    H245472   2.188   0.274   5.295 -0.7731 -0.0738 -1.2384
 7093TIP3   OH245473   0.685   1.570   6.778  0.5621 -0.7236  0.6157
 7093TIP3    H145474   0.716   1.561   6.688 -0.5359  0.0494  0.1500
 7093TIP3    H245475   0.602   1.523   6.780 -1.3464  2.3314  0.1681
 7094TIP3   OH245476   5.690   0.330   5.008  0.0098 -0.5743 -0.4683
 7094TIP3    H145477   5.618   0.303   5.066  0.7366  2.0279  1.8399
 7094TIP3    H245478   5.650   0.331   4.921 -2.2178 -1.0181  0.4635
 7095TIP3   OH245479   2.123   4.150   4.994 -0.3362  0.0433  0.3830
 7095TIP3    H145480   2.110   4.177   5.084 -0.8398  0.4925  0.1799
 7095TIP3    H245481   2.067   4.208   4.943  0.7124  0.4642 -0.3157
 7096TIP3   OH245482   7.066   2.815   5.749 -0.2420  0.4209 -0.1635
 7096TIP3    H145483   7.106   2.843   5.831 -0.8225 -1.6079  0.8758
 7096TIP3    H245484   6.975   2.845   5.755 -0.1056  0.8989 -0.4098
 7097TIP3   OH245485   2.528   0.890   6.368 -0.5161 -0.8656 -0.0639
 7097TIP3    H145486   2.500   0.801   6.391 -2.6164 -0.1242  0.5521
 7097TIP3    H245487   2.521   0.938   6.451 -0.9500  0.2043 -0.7070
 7098TIP3   OH245488   1.111   3.582   6.506 -1.0038  0.1080 -0.1466
 7098TIP3    H145489   1.133   3.672   6.481 -0.7376  0.4122  1.1128
 7098TIP3    H245490   1.071   3.590   6.592 -1.0620 -0.9830 -0.0564
 7099TIP3   OH245491   1.839   7.241   6.282 -0.2460  0.0904 -0.2683
 7099TIP3    H145492   1.746   7.261   6.296  0.4750  3.0367  1.1726
 7099TIP3    H245493   1.866   7.198   6.363  0.4766  3.1088  1.2373
 7100TIP3   OH245494   6.494   1.533   6.907  0.1982 -0.1392  0.4979
 7100TIP3    H145495   6.432   1.593   6.948  0.1166 -1.8772  3.1885
 7100TIP3    H245496   6.441   1.477   6.850  0.4137  2.8014 -2.9124
 7101TIP3   OH245497   1.279   0.049   4.937 -0.3908  0.0491 -0.0631
 7101TIP3    H145498   1.253   0.039   5.029 -1.6330  0.0418 -0.4075
 7101TIP3    H245499   1.299   0.142   4.928 -1.5311  0.3037 -0.0914
 7102TIP3   OH245500   5.952   5.895   6.904  0.2202 -0.4444 -0.5509
 7102TIP3    H145501   5.969   5.960   6.971 -0.2225 -0.8729 -0.0159
 7102TIP3    H245502   6.024   5.832   6.913  0.6552 -0.0356 -1.0768
 7103TIP3   OH245503   6.815   3.125   5.129  0.0908 -0.7340  0.5072
 7103TIP3    H145504   6.847   3.069   5.200  0.4355 -0.6168  0.4449
 7103TIP3    H245505   6.726   3.147   5.155  0.6986  0.5109  1.6524
 7104TIP3   OH245506   1.377   1.921   5.189  0.0554  0.2154  0.0344
 7104TIP3    H145507   1.395   1.849   5.129 -0.0391  1.8532 -2.0798
 7104TIP3    H245508   1.319   1.980   5.140  1.5189  2.5972  0.9688
 7105TIP3   OH245509   4.647   0.321   6.089  0.2064 -0.1823  0.3255
 7105TIP3    H145510   4.695   0.380   6.147 -2.0103  0.3248  1.7574
 7105TIP3    H245511   4.565   0.303   6.135 -0.1666 -2.6023 -1.0974
 7106TIP3   OH245512   3.117   1.869   4.779  0.4904  0.0545  0.3524
 7106TIP3    H145513   3.099   1.862   4.873 -0.6042  1.8356  0.3239
 7106TIP3    H245514   3.123   1.779   4.749 -1.5484 -0.6094  1.7214
 7107TIP3   OH245515   3.732   7.332   5.362 -0.0995 -0.7134 -0.2329
 7107TIP3    H145516   3.720   7.393   5.434 -0.6875 -0.1965 -0.7606
 7107TIP3    H245517   3.797   7.375   5.306  0.2949 -1.0754 -0.0548
 7108TIP3   OH245518   1.136   7.017   5.069  0.2590 -0.6310  0.1486
 7108TIP3    H145519   1.171   7.100   5.039 -0.3890 -0.9166 -1.4947
 7108TIP3    H245520   1.042   7.033   5.080  0.2508 -0.9452  0.6176
 7109TIP3   OH245521   1.422   6.353   6.886 -0.2093 -0.0720  0.2214
 7109TIP3    H145522   1.515   6.355   6.864 -0.3197 -0.5569 -0.3416
 7109TIP3    H245523   1.408   6.428   6.943  0.3754  0.4398 -0.3026
 7110TIP3   OH245524   0.682   1.903   5.064  0.0272  0.9612 -0.3584
 7110TIP3    H145525   0.614   1.857   5.014 -0.8978  2.8217 -0.9097
 7110TIP3    H245526   0.652   1.900   5.155 -0.7833  1.7344 -0.5937
 7111TIP3   OH245527   2.364   1.659   6.666  0.0822 -0.0070 -0.1082
 7111TIP3    H145528   2.415   1.606   6.727 -0.7363 -2.6552 -1.5465
 7111TIP3    H245529   2.278   1.666   6.706  0.2144  0.3132  0.1211
 7112TIP3   OH245530   2.350   4.792   6.567  0.2718 -0.4610  0.2426
 7112TIP3    H145531   2.424   4.733   6.579  2.8203  2.3653 -0.3333
 7112TIP3    H245532   2.350   4.847   6.646 -1.4713 -0.5749  0.3682
 7113TIP3   OH245533   3.069   7.071   5.924  0.2276 -0.2935 -0.1733
 7113TIP3    H145534   3.025   6.997   5.884  1.7513 -0.4584 -1.6600
 7113TIP3    H245535   3.020   7.147   5.896 -0.0543 -0.5808 -0.4628
 7114TIP3   OH245536   3.598   0.732   5.100  0.0366  0.6929 -0.8630
 7114TIP3    H145537   3.684   0.763   5.127  0.0632  0.8054 -1.0718
 7114TIP3    H245538   3.606   0.721   5.005  0.2369 -0.6041 -0.7093
 7115TIP3   OH245539   4.567   4.893   7.390 -0.3109  0.7555 -0.2231
 7115TIP3    H145540   4.629   4.954   7.349  1.1703 -0.2115  0.4546
 7115TIP3    H245541   4.622   4.820   7.419 -1.9140 -0.5689 -0.3487
 7116TIP3   OH245542   6.907   1.589   5.176  0.5368  0.0466  0.1226
 7116TIP3    H145543   6.984   1.551   5.134 -1.3473 -1.5570 -2.2009
 7116TIP3    H245544   6.930   1.594   5.268  2.7171 -2.2929 -0.1780
 7117TIP3   OH245545   4.054   3.821   5.197 -0.0016 -0.1185 -0.4996
 7117TIP3    H145546   4.001   3.745   5.221 -0.1729 -0.3863 -1.6883
 7117TIP3    H245547   4.085   3.803   5.108  0.8611  0.7114 -0.3955
 7118TIP3   OH245548   6.257   1.644   6.554 -0.0622  0.2423 -0.2417
 7118TIP3    H145549   6.348   1.675   6.554 -0.0386  0.2101  1.1719
 7118TIP3    H245550   6.265   1.548   6.556 -0.1428  0.2234 -0.6403
 7119TIP3   OH245551   6.052   4.867   7.060 -0.7467 -0.5550  0.2061
 7119TIP3    H145552   5.969   4.865   7.108 -0.4071 -1.1268  0.7753
 7119TIP3    H245553   6.099   4.942   7.096 -1.2281  0.0909 -0.4865
 7120TIP3   OH245554   4.961   0.153   5.428  0.0600 -0.0387  0.2585
 7120TIP3    H145555   4.959   0.249   5.428  1.9239  0.0577  1.6873
 7120TIP3    H245556   5.009   0.131   5.348  0.4971  0.2754  0.4280
 7121TIP3   OH245557   2.847   5.273   5.923 -0.7301 -0.2886 -0.0857
 7121TIP3    H145558   2.902   5.283   5.845  1.2150  4.2205  1.5019
 7121TIP3    H245559   2.775   5.335   5.910 -0.3580  0.5664  1.5875
 7122TIP3   OH245560   2.704   3.309   5.715  0.1599 -0.6054 -0.1048
 7122TIP3    H145561   2.637   3.323   5.781  0.5447  0.7371  0.0337
 7122TIP3    H245562   2.727   3.217   5.722  0.0184 -0.5380  1.4651
 7123TIP3   OH245563   3.261   1.847   6.608  0.2435  0.1878 -0.0501
 7123TIP3    H145564   3.282   1.774   6.550 -0.2231  0.3072 -0.3720
 7123TIP3    H245565   3.336   1.852   6.668 -0.3419 -1.4519  0.8830
 7124TIP3   OH245566   6.974   1.366   7.272  0.0585 -0.6513  0.3270
 7124TIP3    H145567   7.054   1.392   7.317  1.7221  0.0321 -2.6908
 7124TIP3    H245568   6.929   1.449   7.252 -0.2194 -0.8612  0.0615
 7125TIP3   OH245569   3.628   7.535   4.900  0.0248 -0.1370  0.0368
 7125TIP3    H145570   3.706   7.540   4.844 -0.2752 -0.3524 -0.4061
 7125TIP3    H245571   3.635   7.450   4.943 -0.9712 -1.0435 -1.5176
 7126TIP3   OH245572   1.709   3.560   6.165  0.4482  0.6149 -0.6987
 7126TIP3    H145573   1.772   3.553   6.237 -0.0371 -1.6350 -0.4268
 7126TIP3    H245574   1.624   3.565   6.208  0.2290  0.5133 -1.1174
 7127TIP3   OH245575   2.947   6.211   7.079 -0.1150 -0.3244  0.3538
 7127TIP3    H145576   2.998   6.263   7.016  1.0803 -0.0986  1.4728
 7127TIP3    H245577   2.857   6.240   7.067  0.3526  1.0418  0.0162
 7128TIP3   OH245578   2.540   4.945   5.165 -0.9890  0.1115 -0.4198
 7128TIP3    H145579   2.520   4.958   5.072  0.0465 -1.2215 -0.8503
 7128TIP3    H245580   2.514   4.855   5.184 -2.2381  0.7015  0.9031
 7129TIP3   OH245581   7.294   0.997   6.092  0.7700 -1.0476  0.5269
 7129TIP3    H145582   7.371   1.043   6.059 -0.6842  0.0391 -1.5882
 7129TIP3    H245583   7.279   0.926   6.029 -1.3662  0.3071 -0.6094
 7130TIP3   OH245584   0.325   4.969   4.572 -0.0828  0.2413 -0.0720
 7130TIP3    H145585   0.364   4.903   4.514  1.4508  1.9319 -1.0801
 7130TIP3    H245586   0.269   4.919   4.631 -1.4824 -1.6170 -2.7656
 7131TIP3   OH245587   3.980   0.231   7.117  0.0704 -0.1370 -0.2846
 7131TIP3    H145588   4.066   0.253   7.153 -1.1868  2.9226  1.2823
 7131TIP3    H245589   3.929   0.204   7.193 -0.6303 -0.9888 -1.0401
 7132TIP3   OH245590   6.032   5.710   6.200 -0.2297  0.1334  0.1343
 7132TIP3    H145591   5.953   5.750   6.235 -0.0739 -0.6655  1.4985
 7132TIP3    H245592   6.004   5.626   6.164 -0.2410  0.5519 -0.8575
 7133TIP3   OH245593   1.646   6.508   4.809  0.6407 -0.1194  0.2913
 7133TIP3    H145594   1.586   6.434   4.821  0.7808 -0.2391  0.2584
 7133TIP3    H245595   1.591   6.578   4.773  0.4310 -0.0895  0.6685
 7134TIP3   OH245596   4.567   1.490   7.039 -0.3356  0.0766  0.3541
 7134TIP3    H145597   4.650   1.537   7.052 -0.9768  0.9236  1.5667
 7134TIP3    H245598   4.554   1.442   7.120 -1.0988  0.0600  0.2232
 7135TIP3   OH245599   5.588   6.780   5.581 -0.6567  0.1583 -0.2128
 7135TIP3    H145600   5.580   6.758   5.674 -4.2975  0.0738 -0.4339
 7135TIP3    H245601   5.673   6.743   5.556  0.5710  0.3879  3.0676
 7136TIP3   OH245602   1.604   1.196   5.745 -0.0231  0.6667  0.1388
 7136TIP3    H145603   1.536   1.142   5.705  0.6309 -0.6128  0.7331
 7136TIP3    H245604   1.615   1.160   5.833 -0.0195  2.1772  0.7971
 7137TIP3   OH245605   7.485   2.281   7.402  0.2324 -0.2014  0.1358
 7137TIP3    H145606   7.422   2.209   7.409  1.8047 -1.6604  0.0838
 7137TIP3    H245607   7.448   2.351   7.455 -1.2802 -1.1032  0.3313
 7138TIP3   OH245608   4.490   6.981   5.971  0.0728  0.0565  0.1458
 7138TIP3    H145609   4.521   7.068   5.997 -0.0232  0.3966 -0.8349
 7138TIP3    H245610   4.560   6.921   5.998 -0.0722  0.3714  1.2565
 7139TIP3   OH245611   1.517   7.024   6.420 -0.3592  0.1313 -0.2504
 7139TIP3    H145612   1.497   6.931   6.428  1.7749 -0.3872 -0.4682
 7139TIP3    H245613   1.441   7.061   6.374 -0.9874 -1.5922 -0.6588
 7140TIP3   OH245614   6.236   0.174   5.874 -0.0424  0.1663 -0.6701
 7140TIP3    H145615   6.326   0.154   5.846  0.0630 -1.7387  0.8157
 7140TIP3    H245616   6.181   0.116   5.821 -0.4538  1.4016 -1.6517
 7141TIP3   OH245617   4.795   0.683   6.605 -0.1214 -0.1712  0.3226
 7141TIP3    H145618   4.845   0.710   6.682  0.9083 -0.1103 -0.3367
 7141TIP3    H245619   4.812   0.589   6.597  0.7288  0.0318 -0.4691
 7142TIP3   OH245620   5.049   5.085   5.955 -0.3839 -0.1874 -0.2855
 7142TIP3    H145621   5.070   4.992   5.965  0.4022 -0.1574 -1.3791
 7142TIP3    H245622   5.126   5.122   5.911 -0.7982  0.9294 -0.1122
 7143TIP3   OH245623   5.596   3.773   6.923  0.3480 -0.1210  0.6886
 7143TIP3    H145624   5.560   3.717   6.991  1.6095 -1.6893  0.1474
 7143TIP3    H245625   5.688   3.785   6.948  0.2034  1.3732  0.5627
 7144TIP3   OH245626   0.653   3.853   6.042  0.3940  0.5984  0.1566
 7144TIP3    H145627   0.623   3.917   5.977  0.6907  0.1302 -0.4570
 7144TIP3    H245628   0.584   3.850   6.107 -0.9116 -0.4787 -1.2277
 7145TIP3   OH245629   7.307   6.650   5.926 -0.0023 -0.0223 -0.0639
 7145TIP3    H145630   7.306   6.609   5.840  1.2093 -0.6985  0.2119
 7145TIP3    H245631   7.370   6.598   5.977 -1.6711 -0.4810  1.6549
 7146TIP3   OH245632   4.114   4.254   5.912 -0.3552 -0.0593  0.4844
 7146TIP3    H145633   4.186   4.313   5.934  0.5858 -1.1464  0.4484
 7146TIP3    H245634   4.044   4.311   5.883  0.5070  1.0372  0.4815
 7147TIP3   OH245635   5.050   2.776   6.204  0.0016 -0.6187  0.6783
 7147TIP3    H145636   5.007   2.823   6.133  0.1062  0.0213  1.0295
 7147TIP3    H245637   5.080   2.694   6.165  0.5284 -0.0467 -0.1494
 7148TIP3   OH245638   2.456   4.883   7.141  0.0041  0.0470  0.2531
 7148TIP3    H145639   2.383   4.905   7.199 -0.5524  0.5340 -0.6105
 7148TIP3    H245640   2.530   4.933   7.175 -0.8256  1.9623 -0.6620
 7149TIP3   OH245641   6.913   0.404   6.475  0.4837  0.2627 -0.5075
 7149TIP3    H145642   6.883   0.342   6.409  1.0009 -1.9653  1.2119
 7149TIP3    H245643   6.835   0.453   6.499 -1.0216 -2.6005  0.9567
 7150TIP3   OH245644   6.515   6.577   6.224 -0.3179 -0.0485  0.4307
 7150TIP3    H145645   6.461   6.521   6.279 -0.3810  1.3098  1.8383
 7150TIP3    H245646   6.516   6.661   6.270 -1.2870  1.5238 -2.2005
 7151TIP3   OH245647   0.400   1.929   6.418  0.0768  0.0423 -0.2297
 7151TIP3    H145648   0.314   1.914   6.380  0.7045  0.8786 -2.0970
 7151TIP3    H245649   0.448   1.848   6.402  0.1861  0.2183 -0.8113
 7152TIP3   OH245650   2.526   3.514   6.180 -0.4153 -0.6992  0.0538
 7152TIP3    H145651   2.487   3.558   6.256 -0.3444  2.3025 -1.4913
 7152TIP3    H245652   2.580   3.582   6.138 -2.6124 -1.2311 -4.1932
 7153TIP3   OH245653   6.097   0.814   5.443 -0.0119  0.2840  0.3445
 7153TIP3    H145654   6.084   0.783   5.353 -0.7169 -0.7673  0.8022
 7153TIP3    H245655   6.169   0.877   5.435 -0.9663  1.2532 -1.1743
 7154TIP3   OH245656   2.247   1.835   6.125  0.2990  0.2643  0.2265
 7154TIP3    H145657   2.224   1.927   6.120 -1.1204 -0.0611  0.3340
 7154TIP3    H245658   2.328   1.828   6.075  0.4504  1.5659  0.2584
 7155TIP3   OH245659   1.071   2.049   5.631 -0.3873 -0.2698 -0.5891
 7155TIP3    H145660   1.096   2.002   5.551  1.8631  0.4260 -0.3585
 7155TIP3    H245661   1.073   2.141   5.606 -0.3757 -0.0803  0.0915
 7156TIP3   OH245662   0.421   7.661   6.460 -0.2494 -0.4839  0.1503
 7156TIP3    H145663   0.476   7.608   6.518 -0.5486  1.5342  2.4373
 7156TIP3    H245664   0.483   7.714   6.410 -0.0328 -0.3708  0.5367
 7157TIP3   OH245665   2.641   4.230   4.985  0.6291 -0.1610  0.0763
 7157TIP3    H145666   2.550   4.255   4.999  1.0494  1.5566  0.0414
 7157TIP3    H245667   2.638   4.167   4.913 -0.3960  1.3395 -1.2651
 7158TIP3   OH245668   4.263   6.118   6.014 -0.1549  0.3759  0.7856
 7158TIP3    H145669   4.217   6.139   5.933 -3.8353  0.4708  2.6855
 7158TIP3    H245670   4.297   6.202   6.045 -0.0283  0.5840  0.1078
 7159TIP3   OH245671   2.654   4.757   6.234 -0.6340 -0.3361  0.5262
 7159TIP3    H145672   2.563   4.740   6.213 -0.0942 -1.0380 -1.4720
 7159TIP3    H245673   2.664   4.727   6.324 -2.3175 -0.3907  0.7265
 7160TIP3   OH245674   7.354   0.064   7.422  0.1365  0.1787 -0.1429
 7160TIP3    H145675   7.423   0.002   7.444  0.0566 -0.0389 -0.4974
 7160TIP3    H245676   7.389   0.150   7.445 -0.1089 -0.0748  1.2427
 7161TIP3   OH245677   0.767   7.406   5.207  0.0800  0.4618  0.1246
 7161TIP3    H145678   0.794   7.348   5.279  1.1381 -0.3922 -0.9182
 7161TIP3    H245679   0.822   7.483   5.216 -0.7317  0.9573  1.0100
 7162TIP3   OH245680   6.176   6.748   4.874  0.0513 -0.2408 -0.0878
 7162TIP3    H145681   6.170   6.839   4.902 -1.0052 -0.5910  0.9102
 7162TIP3    H245682   6.164   6.698   4.955 -1.8673 -1.2811 -0.9665
 7163TIP3   OH245683   2.779   4.583   5.749  0.6272 -0.0606 -0.2015
 7163TIP3    H145684   2.745   4.647   5.686  0.5431 -0.6388 -0.7553
 7163TIP3    H245685   2.706   4.567   5.809  1.2287  1.7986  1.1482
 7164TIP3   OH245686   2.314   7.257   5.514 -0.6480 -0.5932 -0.1170
 7164TIP3    H145687   2.341   7.321   5.447 -2.3602 -0.6603 -0.9273
 7164TIP3    H245688   2.369   7.181   5.498 -0.0505 -0.0888 -0.5232
 7165TIP3   OH245689   7.045   1.391   5.615  0.8069  0.0707  0.0465
 7165TIP3    H145690   7.077   1.315   5.663  1.5452 -1.0146 -2.0284
 7165TIP3    H245691   7.119   1.418   5.561  0.2589  1.7114  0.0592
 7166TIP3   OH245692   5.967   7.021   6.003 -0.0736  0.1369 -0.3672
 7166TIP3    H145693   5.998   7.096   5.951  0.1082  1.0225  0.9812
 7166TIP3    H245694   5.877   7.044   6.027 -0.7242 -0.9969 -1.5921
 7167TIP3   OH245695   4.654   4.799   6.146 -0.7496 -0.4579 -0.0340
 7167TIP3    H145696   4.671   4.829   6.056  1.4483  1.8450  1.0232
 7167TIP3    H245697   4.736   4.815   6.192 -1.1027 -3.5933  1.9619
 7168TIP3   OH245698   3.031   0.429   5.011  0.0023  0.7402 -0.2724
 7168TIP3    H145699   3.044   0.522   5.030 -0.6033  0.6289  0.7810
 7168TIP3    H245700   3.108   0.404   4.961  0.3705  1.7217 -0.2203
 7169TIP3   OH245701   2.328   0.580   5.092  0.0608  0.5596  0.3468
 7169TIP3    H145702   2.311   0.666   5.129  0.7266  0.4125  1.0440
 7169TIP3    H245703   2.414   0.588   5.051  0.2978  0.1439  0.7377
 7170TIP3   OH245704   4.680   6.033   5.307  0.2801 -0.0686  0.1300
 7170TIP3    H145705   4.624   5.957   5.289 -0.9021  1.3022 -2.6498
 7170TIP3    H245706   4.666   6.052   5.400 -1.8567 -1.3850  0.1425
 7171TIP3   OH245707   0.571   2.855   6.024  0.0623 -0.4584 -0.1766
 7171TIP3    H145708   0.650   2.816   5.986  0.3540  0.3105 -0.3778
 7171TIP3    H245709   0.540   2.789   6.087  1.5940 -0.2659  0.8498
 7172TIP3   OH245710   7.005   6.481   5.176 -0.2142  0.3452  0.1566
 7172TIP3    H145711   7.063   6.557   5.183 -1.0516  0.9519  0.7074
 7172TIP3    H245712   6.985   6.475   5.083  0.3811  0.3961  0.0224
 7173TIP3   OH245713   1.720   1.310   6.119  0.1913 -0.0667 -0.0849
 7173TIP3    H145714   1.804   1.356   6.113  1.7454 -2.6523  0.2208
 7173TIP3    H245715   1.727   1.257   6.199 -3.4567  2.6634  2.3546
 7174TIP3   OH245716   7.333   4.522   5.370 -0.1006  0.2009  0.0467
 7174TIP3    H145717   7.385   4.448   5.402  0.1592  0.6745  0.7452
 7174TIP3    H245718   7.309   4.498   5.281  1.6521  0.1379 -0.4459
 7175TIP3   OH245719   6.102   1.403   7.519 -0.1350 -0.5075  0.4831
 7175TIP3    H145720   6.130   1.349   7.593  1.7429 -1.3120 -0.7410
 7175TIP3    H245721   6.051   1.344   7.464  1.4272 -0.9412 -0.5647
 7176TIP3   OH245722   5.695   3.224   4.924 -0.6686 -0.3810  0.0396
 7176TIP3    H145723   5.626   3.270   4.971  0.0391  0.9990 -0.2221
 7176TIP3    H245724   5.768   3.221   4.986 -0.1116  0.4575 -0.5605
 7177TIP3   OH245725   0.653   5.621   5.559  0.3837 -0.1014 -0.0367
 7177TIP3    H145726   0.635   5.639   5.651  1.6178  1.7248 -0.0964
 7177TIP3    H245727   0.568   5.630   5.515  0.1059  0.8410  0.6773
 7178TIP3   OH245728   1.301   6.526   6.174 -0.3166 -0.2832 -0.0150
 7178TIP3    H145729   1.297   6.502   6.081 -0.1110 -0.1275 -0.0632
 7178TIP3    H245730   1.299   6.621   6.174  0.5463 -0.2640  0.1013
 7179TIP3   OH245731   4.779   3.619   7.155 -0.6935  0.1374  0.0999
 7179TIP3    H145732   4.866   3.657   7.144 -0.8805  0.1656 -1.6020
 7179TIP3    H245733   4.795   3.525   7.166 -0.4456  0.1600 -0.0589
 7180TIP3   OH245734   4.458   3.485   6.062  0.1258 -0.2255  0.4609
 7180TIP3    H145735   4.494   3.524   6.141  1.4006 -0.4742  0.0190
 7180TIP3    H245736   4.451   3.557   6.000  1.0897 -0.4046  0.1297
 7181TIP3   OH245737   6.295   2.579   5.904  0.4513  0.3572  0.5315
 7181TIP3    H145738   6.323   2.531   5.826 -0.8672 -1.2446  1.0079
 7181TIP3    H245739   6.230   2.641   5.872  0.0040 -0.2105  0.3280
 7182TIP3   OH245740   3.400   4.325   6.193 -0.2963  0.1291  0.0658
 7182TIP3    H145741   3.489   4.327   6.159  0.2543  0.0240  1.4523
 7182TIP3    H245742   3.345   4.308   6.116  0.9125 -0.2787 -0.7258
 7183TIP3   OH245743   4.074   6.351   5.486  0.2655  0.1332  0.3117
 7183TIP3    H145744   4.052   6.382   5.398  1.0095 -0.4949 -0.1034
 7183TIP3    H245745   4.140   6.283   5.472 -0.8620 -1.1956  1.2396
 7184TIP3   OH245746   0.939   6.026   5.819  0.5681 -0.6057 -0.0495
 7184TIP3    H145747   1.031   6.025   5.793  0.7726  0.5245  0.5802
 7184TIP3    H245748   0.928   5.947   5.873  1.0811 -0.9083 -0.3776
 7185TIP3   OH245749   6.621   3.066   6.928  0.3897  0.2934  0.4266
 7185TIP3    H145750   6.682   3.003   6.889  0.0458  0.9662 -1.3178
 7185TIP3    H245751   6.546   3.065   6.868 -0.9569  0.1127  2.0560
 7186TIP3   OH245752   5.893   5.090   4.980 -0.0961  0.3054 -0.6294
 7186TIP3    H145753   5.832   5.139   4.924  1.1818  0.8360 -1.6137
 7186TIP3    H245754   5.837   5.033   5.032 -1.3864  0.2788 -1.9868
 7187TIP3   OH245755   2.984   6.169   5.379 -0.3974  0.5228  0.0869
 7187TIP3    H145756   2.918   6.189   5.445  0.7392 -0.1208  1.4847
 7187TIP3    H245757   3.039   6.247   5.376 -0.9588  0.8878 -0.7475
 7188TIP3   OH245758   0.329   1.901   6.042 -0.8713  0.1421  0.3908
 7188TIP3    H145759   0.408   1.858   6.076 -0.8634 -0.3549 -0.2430
 7188TIP3    H245760   0.335   1.890   5.947 -2.0744 -0.5649  0.3773
 7189TIP3   OH245761   2.728   1.018   5.912 -0.0807 -0.2591 -0.3421
 7189TIP3    H145762   2.776   0.956   5.857  2.3228  1.4490 -0.2973
 7189TIP3    H245763   2.745   1.104   5.873  0.2548  0.8321  2.0361
 7190TIP3   OH245764   4.614   2.698   6.342  0.2936  0.4942 -0.0393
 7190TIP3    H145765   4.700   2.698   6.384  0.4624  0.6666 -0.3872
 7190TIP3    H245766   4.570   2.776   6.376 -0.2959 -0.3735  1.2952
 7191TIP3   OH245767   5.757   1.806   6.675 -0.4438 -0.1319 -0.6222
 7191TIP3    H145768   5.844   1.770   6.662 -0.9308 -0.8908 -2.0361
 7191TIP3    H245769   5.709   1.739   6.724 -0.3454  0.1350 -0.1518
 7192TIP3   OH245770   2.787   5.380   6.262  0.3834 -0.0842 -0.0386
 7192TIP3    H145771   2.789   5.442   6.335 -0.8889  0.4939 -0.4672
 7192TIP3    H245772   2.879   5.360   6.245  0.8169  1.5959  0.1845
 7193TIP3   OH245773   2.844   0.485   5.846 -0.0765 -0.4310 -0.4956
 7193TIP3    H145774   2.938   0.492   5.862 -0.0586 -2.1797  0.3140
 7193TIP3    H245775   2.836   0.482   5.751  0.8339 -1.7175 -0.5543
 7194TIP3   OH245776   0.649   3.343   5.991 -0.2390 -0.3509  0.0358
 7194TIP3    H145777   0.664   3.324   5.899  1.2855  2.1261 -0.3348
 7194TIP3    H245778   0.570   3.398   5.992 -1.2341 -1.7249  0.4464
 7195TIP3   OH245779   7.408   3.586   5.705 -0.2995 -0.3740 -0.1990
 7195TIP3    H145780   7.407   3.578   5.609 -0.2001 -0.2521 -0.2111
 7195TIP3    H245781   7.455   3.668   5.721  2.7075 -2.0202  0.0587
 7196TIP3   OH245782   3.114   0.359   6.352 -0.2548  0.1667 -0.1958
 7196TIP3    H145783   3.117   0.433   6.291  0.5606  1.5010  1.3922
 7196TIP3    H245784   3.200   0.358   6.392  0.6697 -3.2510 -1.8934
 7197TIP3   OH245785   3.729   1.572   6.932  0.0835 -0.5765  0.1545
 7197TIP3    H145786   3.762   1.551   7.020 -0.9181  0.5057  0.8334
 7197TIP3    H245787   3.802   1.615   6.888  0.0832  0.4614  1.1067
 7198TIP3   OH245788   6.529   4.243   7.098 -0.5927 -0.1771 -0.1065
 7198TIP3    H145789   6.548   4.318   7.153 -2.4183  0.2191  0.0405
 7198TIP3    H245790   6.501   4.174   7.159  1.3927 -1.1471 -0.2004
 7199TIP3   OH245791   5.565   1.990   7.443  0.1186  0.3148  0.0437
 7199TIP3    H145792   5.640   1.932   7.447  0.0134  0.2576  2.6610
 7199TIP3    H245793   5.489   1.932   7.448 -0.0968  0.4625 -1.2223
 7200TIP3   OH245794   3.311   0.504   4.902 -0.0025  0.2604 -0.1076
 7200TIP3    H145795   3.397   0.476   4.870 -0.5244 -0.0564 -1.3216
 7200TIP3    H245796   3.259   0.517   4.822 -1.8661 -2.0920  0.6026
 7201TIP3   OH245797   0.236   2.831   6.390  0.0786 -0.2564  0.1775
 7201TIP3    H145798   0.160   2.875   6.353  0.8460  0.6231 -0.3884
 7201TIP3    H245799   0.241   2.863   6.480  0.7381  0.9938 -0.2822
 7202TIP3   OH245800   0.436   6.084   4.691  0.0004  0.1868  0.3315
 7202TIP3    H145801   0.360   6.058   4.638  0.2916 -0.7952  0.3726
 7202TIP3    H245802   0.428   6.032   4.771  1.2720 -0.7402 -0.1045
 7203TIP3   OH245803   2.920   4.154   5.552  0.5204 -0.0220  0.7009
 7203TIP3    H145804   2.950   4.234   5.595  0.5654 -0.1366  0.8812
 7203TIP3    H245805   2.915   4.089   5.622  2.2148 -0.6694  0.2798
 7204TIP3   OH245806   6.274   1.037   5.399  0.1254 -0.7116 -0.0163
 7204TIP3    H145807   6.238   1.110   5.349  0.2079 -2.0344 -2.1369
 7204TIP3    H245808   6.252   1.057   5.490 -2.9236  0.2482 -0.8334
 7205TIP3   OH245809   1.908   0.404   5.569  0.0298 -0.2705  0.8044
 7205TIP3    H145810   1.919   0.385   5.662  2.1297 -1.4311  0.3738
 7205TIP3    H245811   1.957   0.485   5.555  0.8884 -0.8264  0.4886
 7206TIP3   OH245812   1.238   1.398   4.893  0.0566  0.0386  0.4760
 7206TIP3    H145813   1.303   1.329   4.880  0.3284  0.1110  1.4175
 7206TIP3    H245814   1.226   1.436   4.806  0.2958 -0.8376  0.0501
 7207TIP3   OH245815   5.483   5.194   5.610  0.3552 -0.0308  0.4232
 7207TIP3    H145816   5.518   5.272   5.654  2.2447 -0.9523  0.6171
 7207TIP3    H245817   5.529   5.121   5.651 -1.7030 -1.3258  0.5517
 7208TIP3   OH245818   4.132   5.934   6.927  0.1406 -0.4916 -0.1334
 7208TIP3    H145819   4.040   5.952   6.908  0.4049  1.2369  0.0745
 7208TIP3    H245820   4.179   6.013   6.898  1.5894 -1.4059 -0.4161
 7209TIP3   OH245821   3.412   1.359   6.356  0.1676  0.1213  0.2448
 7209TIP3    H145822   3.336   1.399   6.313 -0.2261  0.1901  0.9906
 7209TIP3    H245823   3.396   1.265   6.351 -0.5018  0.1579  1.3223
 7210TIP3   OH245824   3.467   4.567   4.891 -0.1905  0.0239  0.5172
 7210TIP3    H145825   3.501   4.525   4.969  0.1871  0.0279  0.3588
 7210TIP3    H245826   3.373   4.547   4.891 -0.3139  0.5466  1.3003
 7211TIP3   OH245827   0.981   1.199   4.774  0.1039  0.2282  0.0773
 7211TIP3    H145828   0.906   1.242   4.733  1.2494  1.3089 -0.9762
 7211TIP3    H245829   0.956   1.107   4.781 -1.1547  0.4983 -0.6124
 7212TIP3   OH245830   4.441   0.942   5.503  0.0281 -0.3748 -0.2505
 7212TIP3    H145831   4.517   0.951   5.446 -0.3404 -1.3379 -0.9016
 7212TIP3    H245832   4.422   0.848   5.504 -0.8437 -0.2028  0.3097
 7213TIP3   OH245833   3.447   5.966   6.517 -0.3747  0.0325 -0.7802
 7213TIP3    H145834   3.485   5.931   6.597 -0.9995  2.2475  0.5940
 7213TIP3    H245835   3.515   5.956   6.451  1.5496  1.2793  0.8917
 7214TIP3   OH245836   6.103   3.765   6.420  0.4288  0.0329  0.6275
 7214TIP3    H145837   6.184   3.770   6.472  1.8373  0.0249 -1.4125
 7214TIP3    H245838   6.054   3.843   6.445  1.2751  0.2868  1.6035
 7215TIP3   OH245839   3.778   1.122   5.775 -0.6164 -0.3488  0.0834
 7215TIP3    H145840   3.723   1.143   5.699  0.6545  1.8315 -0.2957
 7215TIP3    H245841   3.867   1.146   5.749  0.0044 -0.4322  1.9330
 7216TIP3   OH245842   7.403   4.663   6.169  0.4425  0.3413 -0.5714
 7216TIP3    H145843   7.431   4.585   6.217 -2.6434  0.1151  1.1287
 7216TIP3    H245844   7.372   4.630   6.085 -1.0390 -0.3795  0.2166
 7217TIP3   OH245845   5.924   3.164   6.433  0.1298 -0.2325 -0.2725
 7217TIP3    H145846   5.971   3.082   6.443  0.4461 -0.2763 -1.9434
 7217TIP3    H245847   5.968   3.225   6.493  1.3413 -0.6690 -0.7115
 7218TIP3   OH245848   0.231   2.622   6.683 -0.0502 -1.0298  0.0646
 7218TIP3    H145849   0.190   2.556   6.737 -1.7316  0.6140  0.9129
 7218TIP3    H245850   0.184   2.619   6.600  0.4786 -1.4887 -0.2238
 7219TIP3   OH245851   3.010   6.427   4.836 -0.0118 -0.4046  0.3308
 7219TIP3    H145852   3.026   6.364   4.766  1.4072  1.2248 -0.8876
 7219TIP3    H245853   2.918   6.452   4.825  0.0218 -0.6326 -0.5668
 7220TIP3   OH245854   2.786   5.082   6.903 -0.1322 -0.2068  0.2147
 7220TIP3    H145855   2.785   4.989   6.924 -1.2411 -0.6521 -1.6166
 7220TIP3    H245856   2.824   5.123   6.980  2.4660 -2.3599  0.2134
 7221TIP3   OH245857   3.955   6.417   5.221 -0.1069 -0.3319 -0.5222
 7221TIP3    H145858   3.944   6.375   5.136 -2.6213 -1.7182  0.3555
 7221TIP3    H245859   3.906   6.499   5.214 -1.5091 -1.0981 -0.0503
 7222TIP3   OH245860   7.365   5.562   6.904  0.0486  0.4074  0.4683
 7222TIP3    H145861   7.281   5.597   6.934  0.4999  0.6596  1.4743
 7222TIP3    H245862   7.388   5.616   6.829 -2.0009 -1.4146 -1.6477
 7223TIP3   OH245863   5.680   6.676   7.352 -0.2454 -0.1435  0.5774
 7223TIP3    H145864   5.715   6.629   7.277  0.1543  1.4995 -0.3089
 7223TIP3    H245865   5.750   6.674   7.417 -0.6648 -1.7420  1.0356
 7224TIP3   OH245866   2.858   1.379   5.435  0.5234 -1.0894 -0.4661
 7224TIP3    H145867   2.886   1.314   5.500 -0.0406 -0.3081  0.5902
 7224TIP3    H245868   2.767   1.399   5.459  0.6594  0.0142 -0.8227
 7225TIP3   OH245869   0.273   6.293   4.767  0.3738  0.2603 -0.0551
 7225TIP3    H145870   0.351   6.249   4.734 -0.6269 -0.9760 -0.8978
 7225TIP3    H245871   0.202   6.263   4.709 -0.6701  1.5877  0.4775
 7226TIP3   OH245872   5.517   7.388   6.946  0.2657  0.9523 -0.1596
 7226TIP3    H145873   5.440   7.352   6.991  0.7209  2.1767  1.7231
 7226TIP3    H245874   5.486   7.470   6.907  0.9423  2.4191  2.1820
 7227TIP3   OH245875   2.711   7.212   6.036  1.1095 -0.0238 -0.6206
 7227TIP3    H145876   2.796   7.238   5.998  1.5096  0.5078  0.6085
 7227TIP3    H245877   2.706   7.259   6.119 -0.8877  0.7866 -1.1427
 7228TIP3   OH245878   4.235   0.386   6.522 -0.1938  0.6542 -0.0549
 7228TIP3    H145879   4.227   0.297   6.489  2.7851  0.3607 -0.2300
 7228TIP3    H245880   4.183   0.387   6.602 -1.6812 -0.6991 -0.9597
 7229TIP3   OH245881   0.946   0.903   4.591 -0.6767 -0.0796  0.5896
 7229TIP3    H145882   0.922   0.843   4.521 -0.8928  1.3214 -0.5800
 7229TIP3    H245883   0.903   0.868   4.669 -0.0328 -1.9399  0.1581
 7230TIP3   OH245884   5.298   3.074   5.982  0.1417  0.3822  0.5152
 7230TIP3    H145885   5.346   3.012   5.928 -0.2351  0.5892 -0.0618
 7230TIP3    H245886   5.211   3.036   5.993  0.2331  0.3100  1.0351
 7231TIP3   OH245887   0.395   5.645   5.500 -0.0815  0.0417  0.2074
 7231TIP3    H145888   0.366   5.579   5.437 -0.7624 -0.4206  0.9841
 7231TIP3    H245889   0.314   5.674   5.543  0.3503  0.5007  0.7272
 7232TIP3   OH245890   1.686   0.901   6.486 -0.1013 -0.0783 -0.0665
 7232TIP3    H145891   1.604   0.909   6.437 -0.0700 -0.7762 -0.2512
 7232TIP3    H245892   1.720   0.815   6.460 -0.4173 -0.7830  1.6912
 7233TIP3   OH245893   6.345   1.915   6.385 -0.2546  0.0736 -0.1561
 7233TIP3    H145894   6.418   1.954   6.433 -0.4867  0.6181 -0.2410
 7233TIP3    H245895   6.358   1.821   6.394  1.6186  0.1108 -1.9217
 7234TIP3   OH245896   4.514   7.630   6.243  0.1526  0.0749  0.4620
 7234TIP3    H145897   4.575   7.585   6.301  0.0513 -1.4134 -0.5358
 7234TIP3    H245898   4.553   7.620   6.156 -1.3893 -0.7559 -0.1691
 7235TIP3   OH245899   3.337   6.231   6.599 -0.1437 -0.4725 -0.2775
 7235TIP3    H145900   3.350   6.220   6.505 -2.7338 -1.3408 -0.6340
 7235TIP3    H245901   3.300   6.147   6.628 -4.2246  1.3136  0.4282
 7236TIP3   OH245902   7.475   3.853   5.429  0.1321  0.0441 -0.1659
 7236TIP3    H145903   7.522   3.908   5.493  1.2139  1.2888 -1.9397
 7236TIP3    H245904   7.488   3.898   5.345 -0.5299 -1.9730 -1.4110
 7237TIP3   OH245905   3.715   6.701   6.089  0.0419 -0.1580  0.3910
 7237TIP3    H145906   3.661   6.771   6.052  0.4177  0.1557  0.4283
 7237TIP3    H245907   3.776   6.678   6.019 -0.5451 -0.9592  0.1217
 7238TIP3   OH245908   0.135   4.770   6.572  0.1513  0.5108  0.0003
 7238TIP3    H145909   0.162   4.862   6.566  0.6589  0.3998  0.5252
 7238TIP3    H245910   0.044   4.770   6.542  0.4023  1.0529 -0.7942
 7239TIP3   OH245911   7.305   3.027   4.503  0.0412  0.1588  0.2687
 7239TIP3    H145912   7.393   2.996   4.527  0.8529  1.5637 -0.7283
 7239TIP3    H245913   7.275   2.965   4.436  0.6786  0.1907 -0.0556
 7240TIP3   OH245914   3.325   0.831   5.026  0.2245 -0.3999  0.1166
 7240TIP3    H145915   3.397   0.775   5.055 -2.0813 -2.5843  2.1237
 7240TIP3    H245916   3.324   0.903   5.089  0.4506 -0.5628  0.3096
 7241TIP3   OH245917   6.460   5.284   6.394  0.1007  0.2275  0.2250
 7241TIP3    H145918   6.484   5.231   6.470 -2.5603  0.3825  1.3154
 7241TIP3    H245919   6.516   5.361   6.400 -0.5962  0.6356  2.6065
 7242TIP3   OH245920   1.323   2.217   5.461  0.4701 -0.2659 -0.1045
 7242TIP3    H145921   1.257   2.228   5.529 -1.4798 -1.9724 -1.5643
 7242TIP3    H245922   1.284   2.258   5.383  2.1322  0.6303 -0.5193
 7243TIP3   OH245923   4.315   1.848   4.800  0.7780 -0.3853  0.0402
 7243TIP3    H145924   4.268   1.931   4.813 -1.1082 -0.7016 -3.3662
 7243TIP3    H245925   4.407   1.871   4.810  0.3151  2.1627 -0.7100
 7244TIP3   OH245926   4.730   4.867   6.700  0.2463 -0.5239  0.2799
 7244TIP3    H145927   4.740   4.956   6.665  0.9625 -0.5984  0.2786
 7244TIP3    H245928   4.652   4.872   6.755 -0.3195 -0.1545 -0.5373
 7245TIP3   OH245929   5.031   6.467   5.121  0.4255 -0.2920  0.3976
 7245TIP3    H145930   5.088   6.537   5.091  0.6200 -0.0770  1.2267
 7245TIP3    H245931   5.056   6.455   5.213 -1.5973  0.5487  1.0986
 7246TIP3   OH245932   6.486   5.239   4.871  0.5093  0.0302  0.3080
 7246TIP3    H145933   6.392   5.257   4.873  0.0802 -1.8054 -0.7441
 7246TIP3    H245934   6.527   5.322   4.895 -1.3392  1.2123 -0.3886
 7247TIP3   OH245935   4.878   3.010   5.393  0.4678  0.0764 -0.0891
 7247TIP3    H145936   4.865   3.033   5.301  0.2308 -0.8311 -0.2917
 7247TIP3    H245937   4.801   3.046   5.437  0.9470  1.1644 -0.1182
 7248TIP3   OH245938   2.900   6.618   5.069  0.1552 -0.2916 -0.7183
 7248TIP3    H145939   2.855   6.629   5.153  0.8186  1.7770 -0.5743
 7248TIP3    H245940   2.831   6.598   5.007 -0.2769 -2.5776  0.3970
 7249TIP3   OH245941   2.279   1.578   6.945  0.4490  0.2599  0.2113
 7249TIP3    H145942   2.269   1.577   7.040  0.8476  0.4141  0.2583
 7249TIP3    H245943   2.338   1.651   6.928  0.4842  0.1498 -0.1439
 7250TIP3   OH245944   6.304   1.785   7.027  0.0052  0.0410  0.5422
 7250TIP3    H145945   6.382   1.789   7.083 -0.6575 -2.2754  1.7581
 7250TIP3    H245946   6.244   1.728   7.074 -0.8316 -1.5807 -2.2576
 7251TIP3   OH245947   1.519   2.100   4.788  0.2401  0.2125 -0.1858
 7251TIP3    H145948   1.507   2.140   4.874 -0.9877 -1.2294  0.3515
 7251TIP3    H245949   1.608   2.066   4.790  0.2869  0.3630  0.4230
 7252TIP3   OH245950   5.285   5.201   5.817  0.3591 -0.2512  0.1179
 7252TIP3    H145951   5.375   5.221   5.845  0.2941 -0.4347  0.4629
 7252TIP3    H245952   5.293   5.121   5.765  0.5564  0.3925 -0.8718
 7253TIP3   OH245953   0.692   2.923   4.913 -0.2487 -0.3462  0.1578
 7253TIP3    H145954   0.759   2.962   4.969 -0.1650  0.7084 -0.6405
 7253TIP3    H245955   0.633   2.996   4.893 -1.4099 -1.1555  0.4997
 7254TIP3   OH245956   1.956   6.906   4.522 -0.9344  0.3363  0.5544
 7254TIP3    H145957   1.966   6.947   4.608 -1.2162 -0.9287  1.2229
 7254TIP3    H245958   2.014   6.829   4.525 -0.2278  0.7879 -0.7469
 7255TIP3   OH245959   2.508   3.321   5.071 -0.0012  0.0827 -0.7451
 7255TIP3    H145960   2.569   3.372   5.124 -1.9566  3.5853 -1.5264
 7255TIP3    H245961   2.421   3.350   5.100 -1.3407 -3.2545 -0.9883
 7256TIP3   OH245962   5.391   5.680   5.854  0.5850 -0.6215 -0.3776
 7256TIP3    H145963   5.357   5.718   5.772  1.7861  0.0653 -0.5835
 7256TIP3    H245964   5.453   5.746   5.886 -0.7009 -0.3508  1.7146
 7257TIP3   OH245965   5.740   3.199   5.423 -0.0296 -0.0013  0.0349
 7257TIP3    H145966   5.663   3.192   5.480 -0.2422 -1.0253 -0.3532
 7257TIP3    H245967   5.801   3.134   5.458 -0.2625 -0.8199 -1.0366
 7258TIP3   OH245968   1.692   1.183   6.375  0.1204 -0.4052 -0.7080
 7258TIP3    H145969   1.635   1.110   6.351 -0.3256 -0.2315 -0.1974
 7258TIP3    H245970   1.763   1.142   6.426 -0.7211 -0.3667  0.5512
 7259TIP3   OH245971   4.327   2.739   7.211  0.9179  0.2045 -0.6803
 7259TIP3    H145972   4.241   2.777   7.228  1.6106  1.5853 -0.0491
 7259TIP3    H245973   4.349   2.767   7.122  1.7284  1.9678  0.0366
 7260TIP3   OH245974   2.350   4.439   5.606 -0.3404  0.1456  0.0621
 7260TIP3    H145975   2.435   4.469   5.639 -0.4059  0.5815 -0.1679
 7260TIP3    H245976   2.288   4.458   5.676 -0.4911  1.1298 -0.3316
 7261TIP3   OH245977   1.664   5.290   5.967  0.1996  0.1264 -0.1726
 7261TIP3    H145978   1.618   5.210   5.994 -0.2691  0.4902  0.1277
 7261TIP3    H245979   1.656   5.292   5.872  1.3654 -0.8714 -0.3222
 7262TIP3   OH245980   1.911   5.633   6.768 -0.6044 -0.0914 -0.5820
 7262TIP3    H145981   1.966   5.705   6.738  0.4447  0.1519  1.6977
 7262TIP3    H245982   1.879   5.661   6.853 -0.7149 -2.0316  0.0714
 7263TIP3   OH245983   4.481   6.954   4.948 -0.6397 -0.2828  0.0762
 7263TIP3    H145984   4.517   7.009   5.018 -0.9776 -1.3382  1.1123
 7263TIP3    H245985   4.553   6.895   4.925 -0.4670  0.1867 -0.6213
 7264TIP3   OH245986   2.109   2.118   6.095 -0.4282  0.2781  0.4545
 7264TIP3    H145987   2.044   2.060   6.133 -0.7397 -0.0147 -0.4947
 7264TIP3    H245988   2.097   2.201   6.141  0.1888 -0.4458  1.9940
 7265TIP3   OH245989   5.181   6.826  12.500  0.7687 -0.0071  0.6850
 7265TIP3    H145990   5.187   6.899  12.439  2.0798  0.2564  1.1046
 7265TIP3    H245991   5.201   6.749  12.447 -1.0562 -0.1483  0.1407
 7266TIP3   OH245992   4.872   4.499   6.269 -0.1987  0.2996  0.0253
 7266TIP3    H145993   4.818   4.577   6.283  0.3155  0.5346  0.8177
 7266TIP3    H245994   4.810   4.430   6.248 -0.6591  0.9318 -0.7270
 7267TIP3   OH245995   5.793   2.827   5.293  0.0889  0.1596 -0.5235
 7267TIP3    H145996   5.807   2.737   5.322 -1.5010 -0.2494 -0.9116
 7267TIP3    H245997   5.774   2.875   5.374 -0.3325 -0.1345 -0.4416
 7268TIP3   OH245998   5.682   7.549   7.460 -0.1066  0.3077 -0.8295
 7268TIP3    H145999   5.645   7.519   7.543  0.2812 -1.0713 -1.1292
 7268TIP3    H246000   5.681   7.472   7.404  0.8530  0.8893 -1.6827
 7269TIP3   OH246001   4.163   3.681   4.988  0.0776  0.0698 -0.2033
 7269TIP3    H146002   4.127   3.592   4.986 -1.7017  0.7523 -0.7635
 7269TIP3    H246003   4.243   3.676   4.937  0.2124 -1.2854  0.1024
 7270TIP3   OH246004   4.981   2.367   5.622  0.4564  0.1915  0.7933
 7270TIP3    H146005   4.981   2.398   5.531  0.6009 -1.2381  0.2917
 7270TIP3    H246006   4.996   2.447   5.673 -0.2224  1.1230 -0.3854
 7271TIP3   OH246007   5.460   2.178   7.283 -0.3820  0.1005  0.3167
 7271TIP3    H146008   5.496   2.107   7.335  0.9049  0.6051  0.1434
 7271TIP3    H246009   5.523   2.192   7.213 -1.8818 -0.2911 -1.1744
 7272TIP3   OH246010   3.148   0.540   4.685 -0.3048 -0.1977  0.3253
 7272TIP3    H146011   3.054   0.521   4.683 -0.5493  0.8792 -2.6014
 7272TIP3    H246012   3.153   0.635   4.693  0.5436 -0.2262  0.1999
 7273TIP3   OH246013   1.414   7.522   4.462  0.2017  0.1227 -0.1131
 7273TIP3    H146014   1.490   7.468   4.482  0.0954 -0.0638 -0.2098
 7273TIP3    H246015   1.346   7.459   4.437  0.1066  0.3075 -0.3185
 7274TIP3   OH246016   6.631   3.628   5.355 -0.0404 -0.1373 -0.0269
 7274TIP3    H146017   6.617   3.560   5.288 -1.1992 -0.3668  0.4143
 7274TIP3    H246018   6.590   3.706   5.318  1.4390  0.3815 -0.6043
 7275TIP3   OH246019   5.348   6.482   6.592  0.2346 -0.1628  0.5331
 7275TIP3    H146020   5.397   6.523   6.520 -1.9294 -0.2284 -1.0859
 7275TIP3    H246021   5.261   6.468   6.556 -1.2472  0.6691  3.5162
 7276TIP3   OH246022   0.327   2.257   5.911 -0.1890  0.8239  0.9620
 7276TIP3    H146023   0.269   2.196   5.957 -0.2529  0.5154  0.4798
 7276TIP3    H246024   0.413   2.214   5.913 -0.2737  0.6304  0.4577
 7277TIP3   OH246025   0.753   5.353   4.611  0.1229 -0.5193 -0.0947
 7277TIP3    H146026   0.754   5.257   4.607  0.3623 -0.4987 -0.5221
 7277TIP3    H246027   0.836   5.376   4.653 -0.5875 -0.5554  1.4095
 7278TIP3   OH246028   0.487   1.994   4.747  0.3648 -0.6293  0.5424
 7278TIP3    H146029   0.483   2.083   4.782 -0.4021 -1.0644  1.6108
 7278TIP3    H246030   0.580   1.981   4.727  0.6004  0.1504  1.0569
 7279TIP3   OH246031   5.108   3.821   5.120 -0.0202  0.2191  0.0909
 7279TIP3    H146032   5.083   3.844   5.030 -0.3719 -0.1758  0.0855
 7279TIP3    H246033   5.034   3.771   5.154 -0.4907  1.5216  1.0698
 7280TIP3   OH246034   5.585   0.289   6.944  0.5729 -0.0259  0.4431
 7280TIP3    H146035   5.511   0.299   6.885  0.4340 -1.5600  0.3224
 7280TIP3    H246036   5.548   0.248   7.023  0.8543  1.4709  1.4031
 7281TIP3   OH246037   0.526   0.000   7.109  0.6785  0.3426 -0.0176
 7281TIP3    H146038   0.544  -0.028   7.199  0.0815  1.3948  0.4506
 7281TIP3    H246039   0.610  -0.005   7.065  1.7919  3.0394  1.5308
 7282TIP3   OH246040   6.314   7.230   6.503 -0.0301  0.3616  0.4703
 7282TIP3    H146041   6.240   7.184   6.543 -0.4671  0.8948  0.2828
 7282TIP3    H246042   6.380   7.161   6.488 -0.5733 -0.1563  0.4249
 7283TIP3   OH246043   0.575   2.266   6.763  0.1547 -0.0886 -0.0721
 7283TIP3    H146044   0.654   2.270   6.709  0.9034  1.2808  1.0345
 7283TIP3    H246045   0.518   2.334   6.727  0.4868  0.5473  0.5716
 7284TIP3   OH246046   4.785   3.205   5.176 -0.2775 -0.2366 -0.1087
 7284TIP3    H146047   4.693   3.186   5.194 -0.6148  2.2096  1.3425
 7284TIP3    H246048   4.783   3.277   5.113  0.5721  0.5736  0.7501
 7285TIP3   OH246049   1.939   3.924   6.802 -0.1587  0.0159  0.7628
 7285TIP3    H146050   1.911   3.853   6.745 -0.7544  1.1959 -0.4660
 7285TIP3    H246051   1.864   3.941   6.858 -1.0659  1.4481 -0.7889
 7286TIP3   OH246052   1.273   3.941   5.754  0.4331 -0.1005 -0.6260
 7286TIP3    H146053   1.291   4.027   5.716  0.6439 -0.2079 -0.7743
 7286TIP3    H246054   1.217   3.897   5.690  1.3299 -0.5288 -1.1372
 7287TIP3   OH246055   3.051   1.457   6.890 -0.1192  0.3097 -0.0026
 7287TIP3    H146056   3.039   1.402   6.968  0.1190 -0.5256 -0.5458
 7287TIP3    H246057   3.081   1.541   6.925  1.9150 -0.6436  0.7174
 7288TIP3   OH246058   6.962   6.073   7.761 -0.3249 -0.1106  0.2919
 7288TIP3    H146059   6.918   6.058   7.678 -0.0872  0.6475  0.0172
 7288TIP3    H246060   6.942   6.164   7.783  0.2224 -0.0772  0.6863
 7289TIP3   OH246061   4.387   4.148   5.121 -0.1122  0.3777 -0.4576
 7289TIP3    H146062   4.399   4.179   5.211  0.6097  0.1018 -0.4550
 7289TIP3    H246063   4.298   4.177   5.098 -0.1877  0.7256  0.2289
 7290TIP3   OH246064   7.477   1.859   4.887 -0.2645  0.2887 -0.5477
 7290TIP3    H146065   7.564   1.882   4.854  0.7351  0.8575  2.2908
 7290TIP3    H246066   7.490   1.777   4.934 -0.8074  1.2982  1.4733
 7291TIP3   OH246067   3.343   1.785   5.030 -0.1836  0.2674 -0.1031
 7291TIP3    H146068   3.260   1.832   5.025  0.5004  1.5973  0.4974
 7291TIP3    H246069   3.372   1.778   4.940 -0.5345  0.5576 -0.2403
 7292TIP3   OH246070   4.595   7.391   6.522 -0.2923 -0.5881 -0.1629
 7292TIP3    H146071   4.635   7.321   6.471 -1.1315 -1.4149  0.2938
 7292TIP3    H246072   4.567   7.350   6.604 -0.7298  0.2869  0.1510
 7293TIP3   OH246073   4.951   3.361   5.409 -0.1884 -0.0841  0.2727
 7293TIP3    H146074   4.939   3.268   5.392 -0.5617 -0.0868  0.5336
 7293TIP3    H246075   4.883   3.383   5.473 -0.7220  0.5675 -0.4878
 7294TIP3   OH246076   1.283   0.255   5.900 -0.4725 -0.0577 -0.3275
 7294TIP3    H146077   1.356   0.312   5.876  0.5794 -0.1048  2.3931
 7294TIP3    H246078   1.312   0.167   5.877  0.3675 -0.0736  0.7329
 7295TIP3   OH246079   0.018   4.662   4.811  0.4057 -0.0449 -0.0040
 7295TIP3    H146080  -0.062   4.695   4.768 -0.5108  0.1561  1.7692
 7295TIP3    H246081  -0.004   4.572   4.835  0.4499  0.2369  1.1141
 7296TIP3   OH246082   2.726   6.138   4.730 -0.4752  0.2538  0.5563
 7296TIP3    H146083   2.678   6.074   4.678  0.6244  1.5219 -2.2188
 7296TIP3    H246084   2.761   6.087   4.803 -1.3717 -1.8634 -0.3861
 7297TIP3   OH246085   4.301   3.177   5.576 -0.3838 -0.1193 -0.1435
 7297TIP3    H146086   4.375   3.211   5.526 -0.5878 -0.6038 -0.7953
 7297TIP3    H246087   4.225   3.195   5.520 -0.4308 -2.1912 -0.8190
 7298TIP3   OH246088   2.418   6.783   7.309 -0.0460  0.4274 -0.4389
 7298TIP3    H146089   2.466   6.705   7.337 -0.8354  0.8550  2.3621
 7298TIP3    H246090   2.326   6.757   7.310 -0.3587  1.4439  0.9612
 7299TIP3   OH246091   1.468   1.349   6.016  0.3197  0.0888 -0.3823
 7299TIP3    H146092   1.441   1.392   6.097 -0.7043 -0.2198 -0.5564
 7299TIP3    H246093   1.557   1.319   6.034  0.4827  0.9194  0.2693
 7300TIP3   OH246094   1.018   7.064   7.105  0.2186 -0.1511 -0.2683
 7300TIP3    H146095   1.073   6.989   7.131  2.1613  1.8241  1.8295
 7300TIP3    H246096   1.032   7.072   7.011  1.5174 -1.3087 -0.2171
 7301TIP3   OH246097   7.672   6.759   5.199 -0.3384 -0.2385  0.4052
 7301TIP3    H146098   7.586   6.738   5.234 -1.6273  1.3753 -1.6153
 7301TIP3    H246099   7.668   6.851   5.176  2.0592 -0.0310  0.5190
 7302TIP3   OH246100   7.574   5.304   6.758  0.3774 -0.2484 -0.0025
 7302TIP3    H146101   7.544   5.364   6.690 -0.6591 -1.4850 -0.6587
 7302TIP3    H246102   7.634   5.358   6.811 -0.8529  1.4957 -0.2874
 7303TIP3   OH246103   0.719   1.071   6.464  0.2803 -0.5353  0.1255
 7303TIP3    H146104   0.695   1.149   6.414  1.2288  0.7313  1.5617
 7303TIP3    H246105   0.756   1.011   6.399  0.5674  0.6572 -0.8438
 7304TIP3   OH246106   5.806   1.203   6.584 -1.4454  0.4031  0.0592
 7304TIP3    H146107   5.723   1.197   6.631 -1.3053 -1.6838  0.1522
 7304TIP3    H246108   5.822   1.114   6.553  1.3156  0.4723  1.0273
 7305TIP3   OH246109   5.760   6.352   5.426  0.3516 -0.3029 -0.1424
 7305TIP3    H146110   5.820   6.278   5.441  0.8730  0.0680 -0.3747
 7305TIP3    H246111   5.780   6.381   5.337  0.6115  0.5320  0.1805
 7306TIP3   OH246112   3.720   2.073   5.736  0.3084  0.2875 -0.3967
 7306TIP3    H146113   3.645   2.086   5.678 -0.8720 -1.8837  0.5215
 7306TIP3    H246114   3.773   2.007   5.691  0.8249  0.6141 -0.2718
 7307TIP3   OH246115   3.038   6.520   6.675  0.5226 -0.1950  0.1254
 7307TIP3    H146116   3.102   6.586   6.702  0.4918 -0.6553  1.4006
 7307TIP3    H246117   3.007   6.549   6.589  1.5990  0.6423  0.0112
 7308TIP3   OH246118   7.552   0.156   5.693  0.7765  0.0257 -0.3491
 7308TIP3    H146119   7.584   0.096   5.626  0.8132  0.4758 -0.7419
 7308TIP3    H246120   7.503   0.222   5.644  2.3215  1.3781 -0.1253
 7309TIP3   OH246121   4.735   7.174   6.405 -0.3205 -0.1514 -0.2430
 7309TIP3    H146122   4.760   7.168   6.497  0.0013  0.7476 -0.2550
 7309TIP3    H246123   4.806   7.224   6.364 -0.9380  0.3266 -0.7641
 7310TIP3   OH246124   6.827   2.733   5.608  0.2081  0.2045 -0.4711
 7310TIP3    H146125   6.748   2.680   5.605  0.2235  0.0820  0.7150
 7310TIP3    H246126   6.807   2.802   5.672  0.1474  1.7144 -2.0474
 7311TIP3   OH246127   0.810   4.538   5.589 -0.2970  0.6775  0.1249
 7311TIP3    H146128   0.898   4.503   5.603 -0.2894  0.6907  0.1107
 7311TIP3    H246129   0.808   4.620   5.638  0.7940  2.3752 -2.4832
 7312TIP3   OH246130   5.350   2.192   4.961  0.0718  0.2385  0.3393
 7312TIP3    H146131   5.383   2.273   4.920 -0.1734 -0.6439 -1.7097
 7312TIP3    H246132   5.423   2.131   4.955 -0.7773 -0.6794 -1.1187
 7313TIP3   OH246133   6.748   3.817   6.645 -0.9850  0.1821  0.0154
 7313TIP3    H146134   6.772   3.877   6.716 -0.0644 -0.0692 -0.0773
 7313TIP3    H246135   6.657   3.841   6.624 -0.7881  1.2431  0.2809
 7314TIP3   OH246136   6.260   5.978   7.289  0.0855 -0.1769  0.0315
 7314TIP3    H146137   6.341   5.933   7.265  0.2040  0.4534 -0.7749
 7314TIP3    H246138   6.227   5.928   7.364  1.2743 -0.3730  0.4485
 7315TIP3   OH246139   7.480   0.922   5.542  0.0102  0.1066  0.1024
 7315TIP3    H146140   7.563   0.913   5.496  1.0770  0.9997  1.7403
 7315TIP3    H246141   7.452   0.832   5.559  1.3055 -0.2157  0.6351
 7316TIP3   OH246142   3.267   0.460   5.420 -0.3237 -0.0233 -0.0485
 7316TIP3    H146143   3.307   0.456   5.333 -1.4938  1.2675 -0.6789
 7316TIP3    H246144   3.177   0.487   5.403 -1.1537 -1.6695  1.4218
 7317TIP3   OH246145   4.678   0.265   5.138  0.3530 -0.2438 -0.2002
 7317TIP3    H146146   4.637   0.288   5.055  0.4534 -0.9094 -0.4397
 7317TIP3    H246147   4.765   0.235   5.114  0.4240 -0.3260  0.1576
 7318TIP3   OH246148   4.732   0.139   5.893  0.2550 -0.0187 -0.1252
 7318TIP3    H146149   4.712   0.189   5.972 -0.8948  0.3768 -0.6405
 7318TIP3    H246150   4.757   0.053   5.924  0.3305  0.2918  0.6915
 7319TIP3   OH246151   2.366   1.346   6.507 -0.5015  0.0484  0.6747
 7319TIP3    H146152   2.432   1.393   6.558 -0.5793 -0.3309  1.1291
 7319TIP3    H246153   2.292   1.336   6.567 -0.7468 -0.0532  0.3574
 7320TIP3   OH246154   7.679   6.025   5.086 -0.0668  0.6338  0.1250
 7320TIP3    H146155   7.766   5.998   5.115 -1.0963 -1.6163  1.3432
 7320TIP3    H246156   7.683   6.121   5.085  2.3167  0.5866  0.4274
 7321TIP3   OH246157   1.072   6.204   5.101 -0.3232  0.5961 -0.0393
 7321TIP3    H146158   1.106   6.115   5.094  0.3982  0.9352 -1.0910
 7321TIP3    H246159   1.089   6.243   5.015 -0.2800  1.8649  0.5224
 7322TIP3   OH246160   0.333   0.810   5.195 -0.2192  0.1185  0.2154
 7322TIP3    H146161   0.417   0.803   5.150 -0.1085 -0.1802  0.4655
 7322TIP3    H246162   0.270   0.775   5.132 -0.2856  1.1552 -0.3170
 7323TIP3   OH246163   6.919   5.073   5.054 -0.3645  0.2333 -0.0698
 7323TIP3    H146164   6.894   5.143   5.114  0.1481 -0.0195  0.4401
 7323TIP3    H246165   6.899   5.109   4.967 -1.2649  0.5373  0.2471
 7324TIP3   OH246166   4.504   6.006   5.617  0.4450 -0.0192  0.1072
 7324TIP3    H146167   4.587   5.959   5.629  0.0730 -0.3556  1.5654
 7324TIP3    H246168   4.439   5.951   5.662 -0.5410  0.3416 -0.8402
 7325TIP3   OH246169   0.829   6.730   6.781 -0.5244  0.2660 -0.0998
 7325TIP3    H146170   0.803   6.649   6.738  0.0825 -0.6068  1.1219
 7325TIP3    H246171   0.767   6.740   6.853  0.1234  0.2362  0.4736
 7326TIP3   OH246172   1.966   1.576   7.568 -0.1617  0.8591  0.0893
 7326TIP3    H146173   1.953   1.481   7.560 -0.3824  0.7533  1.4077
 7326TIP3    H246174   1.919   1.613   7.494 -2.8199  0.1122  1.2677
 7327TIP3   OH246175   5.854   2.241   6.607 -0.4114 -0.2705  0.1397
 7327TIP3    H146176   5.820   2.161   6.568 -1.1976  0.3544 -0.4796
 7327TIP3    H246177   5.814   2.312   6.557  0.0920  0.5217  0.8227
 7328TIP3   OH246178   0.923   4.553   4.751 -0.2572  0.1257 -0.5842
 7328TIP3    H146179   0.863   4.484   4.724 -0.8963  0.3337  0.2636
 7328TIP3    H246180   0.995   4.547   4.689 -1.6906  0.6353 -2.3972
 7329TIP3   OH246181   4.293   5.248   7.094 -0.6558  0.0399  0.4759
 7329TIP3    H146182   4.275   5.333   7.133  1.9369  0.0135  1.9922
 7329TIP3    H246183   4.360   5.209   7.151 -0.3381 -2.1869 -1.2591
 7330TIP3   OH246184   3.588   5.663   6.484  0.0058 -0.1161 -0.1467
 7330TIP3    H146185   3.570   5.636   6.394  0.1677 -1.2049  0.1313
 7330TIP3    H246186   3.514   5.630   6.534 -0.0033  0.3438  0.1487
 7331TIP3   OH246187   4.778   4.198   5.882  0.2889 -0.1611  0.4277
 7331TIP3    H146188   4.706   4.225   5.825  0.6693 -0.1456 -0.0595
 7331TIP3    H246189   4.763   4.104   5.896  0.8536 -0.4379 -0.7070
 7332TIP3   OH246190   4.215   1.921   7.089  0.3548  0.2663  0.0992
 7332TIP3    H146191   4.231   1.828   7.076  0.8157  0.2525  0.7203
 7332TIP3    H246192   4.151   1.924   7.161  1.0668  0.4435  0.7419
 7333TIP3   OH246193   0.856   0.965   4.901  0.3470  0.0108  0.4436
 7333TIP3    H146194   0.907   0.888   4.926 -0.4083 -1.0930 -1.2061
 7333TIP3    H246195   0.771   0.951   4.943  0.4172  0.2811  0.6755
 7334TIP3   OH246196   2.149   2.653   5.670 -0.5285  0.0797  0.6583
 7334TIP3    H146197   2.175   2.578   5.723  1.0703 -0.1961 -0.4165
 7334TIP3    H246198   2.225   2.712   5.673 -0.4511  0.1243 -1.1383
 7335TIP3   OH246199   7.063   6.249   5.338 -0.0041 -0.0746 -0.4930
 7335TIP3    H146200   7.045   6.327   5.286 -0.3457  0.3348  0.2167
 7335TIP3    H246201   7.079   6.282   5.427  0.8361 -0.7305 -0.3835
 7336TIP3   OH246202   4.108   5.296   4.879 -0.5394  0.4637 -0.4448
 7336TIP3    H146203   4.146   5.208   4.882 -0.2274  0.6185  0.8605
 7336TIP3    H246204   4.096   5.314   4.786  2.6253  0.3886 -0.9824
 7337TIP3   OH246205   0.147   6.254   6.175  0.5749 -0.0014  0.8171
 7337TIP3    H146206   0.113   6.340   6.153  1.8480  0.4929  0.7078
 7337TIP3    H246207   0.098   6.194   6.119  1.0631  0.8565 -0.5840
 7338TIP3   OH246208   0.113   6.190   6.821  0.5241  0.3473  0.4965
 7338TIP3    H146209   0.111   6.095   6.825 -0.3452  0.1737 -2.2314
 7338TIP3    H246210   0.202   6.211   6.792 -0.1324  0.0860 -1.9487
 7339TIP3   OH246211   2.428   4.670   5.178 -0.5138  0.4125  0.2873
 7339TIP3    H146212   2.374   4.661   5.257 -0.4666  0.1140  0.2883
 7339TIP3    H246213   2.366   4.657   5.106 -0.2825 -0.9029  0.3007
 7340TIP3   OH246214   6.263   4.693   7.059 -0.3156  0.0423  0.0706
 7340TIP3    H146215   6.320   4.750   7.007 -0.8195 -0.1540 -0.7144
 7340TIP3    H246216   6.180   4.739   7.064 -0.6163 -0.4516 -0.2575
 7341TIP3   OH246217   2.805   6.224   5.598 -0.4307 -0.2496  0.1171
 7341TIP3    H146218   2.717   6.230   5.561 -0.2844 -1.2976 -0.4330
 7341TIP3    H246219   2.803   6.145   5.651  0.4956 -0.9137 -0.7993
 7342TIP3   OH246220   7.137   0.542   5.994  0.0714  0.3236 -0.1521
 7342TIP3    H146221   7.083   0.476   5.950 -0.4551 -0.9332  2.1716
 7342TIP3    H246222   7.083   0.571   6.068  1.0231  2.0491 -0.0963
 7343TIP3   OH246223   5.758   5.658   5.775  0.8380 -0.0726 -0.4646
 7343TIP3    H146224   5.793   5.706   5.850  3.4035 -0.8118 -1.1111
 7343TIP3    H246225   5.799   5.699   5.699 -3.0442  1.8471 -1.7858
 7344TIP3   OH246226   7.175   5.269   6.649  0.4914  0.4364  0.7086
 7344TIP3    H146227   7.232   5.288   6.574 -0.8065 -0.4250 -0.5453
 7344TIP3    H246228   7.126   5.192   6.623 -0.1249  0.2143  2.4105
 7345TIP3   OH246229   6.023   7.188   4.778  0.4612  0.7920  0.1524
 7345TIP3    H146230   5.956   7.141   4.827  1.1615  1.3795  1.7306
 7345TIP3    H246231   6.012   7.280   4.803  0.3063  1.2471 -1.4524
 7346TIP3   OH246232   1.756   3.876   5.035  0.2149  0.2533  0.3354
 7346TIP3    H146233   1.834   3.824   5.053  0.3703  0.6672  0.8850
 7346TIP3    H246234   1.789   3.964   5.015 -0.0237  0.0753 -0.9170
 7347TIP3   OH246235   5.120   7.052   5.200 -0.1102 -0.3922  0.1452
 7347TIP3    H146236   5.151   7.077   5.113  0.1256 -0.6160  0.1660
 7347TIP3    H246237   5.130   6.957   5.204 -1.7062 -0.6028 -0.2092
 7348TIP3   OH246238   2.100   5.712   4.717 -0.2764 -0.0820 -0.1014
 7348TIP3    H146239   2.036   5.648   4.748 -2.2556  1.5763 -0.5408
 7348TIP3    H246240   2.129   5.678   4.633  0.9143 -1.8039  0.9463
 7349TIP3   OH246241   4.226   6.801   5.207 -0.1837  0.2251 -0.1078
 7349TIP3    H146242   4.242   6.706   5.205  0.0427  0.2297  1.1393
 7349TIP3    H246243   4.193   6.819   5.295  0.9914  1.4912  0.1112
 7350TIP3   OH246244   1.312   6.478   7.346 -0.0839 -0.3230 -0.1286
 7350TIP3    H146245   1.380   6.457   7.282  0.5897  1.3711 -0.0235
 7350TIP3    H246246   1.249   6.531   7.298 -1.1353 -1.4877 -0.1023
 7351TIP3   OH246247   6.415   2.337   5.301 -0.2807  0.6545 -0.1592
 7351TIP3    H146248   6.424   2.265   5.363 -1.4777  1.8456  1.4894
 7351TIP3    H246249   6.355   2.304   5.234  0.1110 -0.2536 -0.0839
 7352TIP3   OH246250   3.328   5.544   6.599 -0.4618 -0.0249 -0.3919
 7352TIP3    H146251   3.309   5.450   6.592  0.1257 -0.0660 -1.6802
 7352TIP3    H246252   3.260   5.578   6.657  0.3147 -1.5316  1.5321
 7353TIP3   OH246253   5.934   3.627   4.725  0.0722 -1.2485 -0.3061
 7353TIP3    H146254   5.917   3.577   4.804  2.6071  1.2562  2.0294
 7353TIP3    H246255   5.874   3.701   4.730  0.8456 -0.6205 -0.2481
 7354TIP3   OH246256   0.311   6.191   5.053 -0.3803  0.3956 -0.3106
 7354TIP3    H146257   0.302   6.189   4.957  0.5171  0.1604 -0.3990
 7354TIP3    H246258   0.304   6.283   5.076  0.5241  0.5798 -0.7294
 7355TIP3   OH246259   2.112   4.350   6.280 -0.0331  0.2255 -0.0280
 7355TIP3    H146260   2.168   4.299   6.338 -0.3234  1.1569  1.0990
 7355TIP3    H246261   2.102   4.434   6.323 -1.3606  0.4857 -0.7716
 7356TIP3   OH246262   0.683   6.034   6.166  0.1520  0.0450 -0.9081
 7356TIP3    H146263   0.759   5.982   6.192  1.8897  1.5281 -2.6240
 7356TIP3    H246264   0.692   6.116   6.214 -0.6149  0.0743 -0.8043
 7357TIP3   OH246265   5.948   3.645   6.703  0.1058 -0.4671 -0.3325
 7357TIP3    H146266   6.022   3.642   6.764 -0.4234 -0.0352  0.3419
 7357TIP3    H246267   5.955   3.731   6.661  0.4639 -0.7595 -0.8905
 7358TIP3   OH246268   1.264   7.551   5.216 -0.2968 -0.4830 -0.2962
 7358TIP3    H146269   1.346   7.581   5.257 -0.4160 -0.3208 -0.1738
 7358TIP3    H246270   1.203   7.622   5.232  0.0555  0.2588 -2.0902
 7359TIP3   OH246271   0.147   2.448   5.703  0.9383 -0.1458 -0.9042
 7359TIP3    H146272   0.214   2.426   5.767 -1.0284 -0.1130  1.3291
 7359TIP3    H246273   0.125   2.364   5.661  2.2374 -0.1685 -1.5702
 7360TIP3   OH246274   5.851   0.883   6.602 -0.4532 -0.1280 -0.1435
 7360TIP3    H146275   5.916   0.866   6.670 -1.1674  0.5916  0.7432
 7360TIP3    H246276   5.902   0.911   6.527  0.3755 -1.2731 -0.0308
 7361TIP3   OH246277   6.748   4.547   4.837  0.2007 -0.3002 -0.0501
 7361TIP3    H146278   6.693   4.469   4.837  1.8158 -1.6663  3.7995
 7361TIP3    H246279   6.832   4.518   4.801  0.1701  0.3197 -0.6635
 7362TIP3   OH246280   2.692   5.809   6.197  0.3690  0.4136 -0.3240
 7362TIP3    H146281   2.686   5.736   6.134 -1.4820 -1.0385  1.4017
 7362TIP3    H246282   2.754   5.778   6.263  0.0215  0.6206  0.1051
 7363TIP3   OH246283   3.694   3.120   5.192 -0.3133  0.1748 -0.1756
 7363TIP3    H146284   3.752   3.109   5.268 -2.1306  2.9684  1.7992
 7363TIP3    H246285   3.619   3.065   5.211 -0.0979 -0.3320 -0.7603
 7364TIP3   OH246286   7.090   4.588   6.710 -0.1367  0.3884 -0.8631
 7364TIP3    H146287   7.159   4.530   6.742 -0.1312  0.5696 -0.5494
 7364TIP3    H246288   7.130   4.635   6.637 -0.3730 -0.5504 -1.6146
 7365TIP3   OH246289   2.329   1.128   4.547  0.6713  0.6076 -0.4122
 7365TIP3    H146290   2.415   1.153   4.581 -0.1368  0.7399  1.6699
 7365TIP3    H246291   2.266   1.170   4.606 -0.8252 -0.2505 -1.3211
 7366TIP3   OH246292   7.617   5.171   4.830  0.4296  0.0086  0.1528
 7366TIP3    H146293   7.664   5.139   4.907  1.3553  0.2194 -0.3104
 7366TIP3    H246294   7.614   5.095   4.770  2.1876  0.5814 -0.7395
 7367TIP3   OH246295   1.655   3.034   7.225  0.0705 -0.2432  0.2727
 7367TIP3    H146296   1.673   3.094   7.299  1.8793  0.3669 -0.5945
 7367TIP3    H246297   1.654   2.947   7.265 -0.1008  0.1659  1.1961
 7368TIP3   OH246298   3.817   3.466   5.149 -0.0836  0.0363 -0.0298
 7368TIP3    H146299   3.780   3.488   5.064  0.0809 -0.3250 -0.1992
 7368TIP3    H246300   3.742   3.456   5.207 -0.2708 -0.8118 -0.3982
 7369TIP3   OH246301   7.172   3.095   4.826 -0.1522  0.1166 -0.6840
 7369TIP3    H146302   7.205   3.164   4.884  0.1897 -0.3017 -0.3795
 7369TIP3    H246303   7.170   3.136   4.739 -0.4794  0.6821 -0.4147
 7370TIP3   OH246304   3.969   4.594   6.742  0.0090  0.1934 -0.3574
 7370TIP3    H146305   3.947   4.503   6.762  0.1641  0.3233  0.4368
 7370TIP3    H246306   4.048   4.612   6.794  0.6841  0.4177 -1.4374
 7371TIP3   OH246307   2.037   5.268   6.678  1.0986  0.0810  0.1761
 7371TIP3    H146308   2.130   5.260   6.658  1.0673  1.5163 -0.7386
 7371TIP3    H246309   2.033   5.338   6.743  0.7392 -0.8182  1.1448
 7372TIP3   OH246310   7.028   7.389   7.267  0.3990 -0.3293 -0.4829
 7372TIP3    H146311   7.077   7.470   7.282  1.5570 -1.1375  0.2979
 7372TIP3    H246312   7.081   7.342   7.201  0.1469 -0.7744 -0.3724
 7373TIP3   OH246313   6.756   5.841   6.853  0.3157 -0.4896 -0.0500
 7373TIP3    H146314   6.799   5.891   6.784  0.4729  0.4362  0.6860
 7373TIP3    H246315   6.703   5.906   6.900  0.7630 -0.9529  1.1298
 7374TIP3   OH246316   0.405   5.924   5.480  0.0949 -0.2189 -0.2440
 7374TIP3    H146317   0.452   5.959   5.555 -3.0122 -0.9785  2.2317
 7374TIP3    H246318   0.423   5.830   5.482 -1.8886 -0.6138  1.1060
 7375TIP3   OH246319   0.967   6.354   7.273 -0.2253  0.4289 -0.1245
 7375TIP3    H146320   1.015   6.306   7.205  0.6971 -2.1035  2.1222
 7375TIP3    H246321   0.965   6.444   7.242  1.5035 -0.3139 -2.7363
 7376TIP3   OH246322   5.456   6.371   6.961 -0.0154  0.0639  0.0206
 7376TIP3    H146323   5.439   6.291   6.910 -0.9519  1.1953 -1.5593
 7376TIP3    H246324   5.398   6.364   7.037 -1.7456  0.1865 -1.2214
 7377TIP3   OH246325   3.078   0.861   6.531 -0.3090 -0.0440  0.4378
 7377TIP3    H146326   3.112   0.773   6.515 -0.6502 -0.0959 -0.0150
 7377TIP3    H246327   2.992   0.862   6.488  0.4213  1.0742 -1.1054
 7378TIP3   OH246328   1.094   7.587   5.707 -0.0654 -0.3337 -0.3217
 7378TIP3    H146329   1.149   7.656   5.670  0.0572 -0.0605  0.3682
 7378TIP3    H246330   1.120   7.508   5.660 -0.5079  0.1518 -1.4337
 7379TIP3   OH246331   4.004   6.064   5.212 -0.1541  0.5485  0.3590
 7379TIP3    H146332   4.018   5.976   5.177  2.0462  0.8617  0.2828
 7379TIP3    H246333   4.014   6.122   5.136 -2.3453  0.8788  0.2560
 7380TIP3   OH246334   2.949   1.900   6.124  0.2986  0.2852  0.2079
 7380TIP3    H146335   3.042   1.894   6.146  0.4496 -0.1433 -0.5195
 7380TIP3    H246336   2.946   1.889   6.029 -0.3226  2.2673 -0.0485
 7381TIP3   OH246337   3.363   6.202   7.636  0.1095 -0.4211  0.3639
 7381TIP3    H146338   3.314   6.267   7.686 -0.2660 -2.1393  2.4003
 7381TIP3    H246339   3.305   6.125   7.633  1.3577 -1.3863 -0.0628
 7382TIP3   OH246340   6.828   5.440   5.742 -0.6413 -0.3437  0.3649
 7382TIP3    H146341   6.736   5.428   5.719 -0.2602 -1.2222 -0.8315
 7382TIP3    H246342   6.830   5.519   5.795 -2.1088 -0.4398  0.6047
 7383TIP3   OH246343   7.557   2.852   5.572  0.5006  0.5464  0.1957
 7383TIP3    H146344   7.555   2.760   5.544  1.4602  0.8758 -1.0309
 7383TIP3    H246345   7.496   2.896   5.513  0.7309  0.8545  0.1892
 7384TIP3   OH246346   4.532   2.125   5.616  0.1504 -0.1369 -0.0855
 7384TIP3    H146347   4.498   2.036   5.624 -1.0705 -0.0978 -3.3007
 7384TIP3    H246348   4.578   2.141   5.698 -2.1327 -2.6005  1.8546
 7385TIP3   OH246349   1.741   4.841   5.958  0.6018  0.4333 -0.2833
 7385TIP3    H146350   1.760   4.828   5.865 -1.0066  1.8084 -0.8488
 7385TIP3    H246351   1.730   4.752   5.993  2.4728 -0.1663 -1.0674
 7386TIP3   OH246352   6.006   4.762   5.836 -0.0899 -0.1244  0.0127
 7386TIP3    H146353   5.934   4.700   5.823 -0.9573  1.1955 -2.1608
 7386TIP3    H246354   5.971   4.827   5.896 -0.1924 -0.2579  0.0978
 7387TIP3   OH246355   3.946   2.835   5.565  0.4393 -0.2918  0.5993
 7387TIP3    H146356   3.980   2.747   5.551  1.3968  0.0633  0.5882
 7387TIP3    H246357   3.980   2.860   5.652 -1.2383 -0.5666  1.3780
 7388TIP3   OH246358   5.087   4.885   4.986 -0.0016 -0.2156 -0.1351
 7388TIP3    H146359   5.154   4.944   5.021 -0.1629 -0.0453 -0.1075
 7388TIP3    H246360   5.125   4.798   4.994  0.0185 -0.1686  0.3509
 7389TIP3   OH246361   7.112   6.273   5.915  0.2432 -0.1155 -0.5003
 7389TIP3    H146362   7.141   6.357   5.950  2.6603 -1.5367  1.1769
 7389TIP3    H246363   7.062   6.296   5.836 -0.2191  2.9012  0.5500
 7390TIP3   OH246364   3.045   1.746   7.581  0.4923 -0.8650  0.1319
 7390TIP3    H146365   3.038   1.752   7.676 -0.5871  0.0768  0.0247
 7390TIP3    H246366   3.011   1.830   7.550  1.2668 -0.9764 -1.0707
 7391TIP3   OH246367   5.507   5.121   6.760 -0.0594 -0.3402 -0.2765
 7391TIP3    H146368   5.483   5.117   6.667 -1.3863  1.1991 -0.0432
 7391TIP3    H246369   5.491   5.033   6.792 -1.2744 -0.4652 -1.1464
 7392TIP3   OH246370   3.749   6.677   7.154 -0.0450 -0.4246 -0.0618
 7392TIP3    H146371   3.821   6.737   7.135 -1.7592  1.7213 -0.1457
 7392TIP3    H246372   3.694   6.680   7.076 -1.0012 -0.8387  0.5808
 7393TIP3   OH246373   2.892   4.210   5.074 -0.1698 -0.5673  0.5929
 7393TIP3    H146374   2.802   4.206   5.040 -0.0114 -3.9846  0.2885
 7393TIP3    H246375   2.890   4.155   5.152  1.4104  0.3821  1.3490
 7394TIP3   OH246376   2.160   7.095   5.749 -0.3053  0.0202 -0.0569
 7394TIP3    H146377   2.179   7.017   5.697  2.5977  0.7399 -0.2269
 7394TIP3    H246378   2.115   7.153   5.688  0.5101 -0.2568 -0.9614
 7395TIP3   OH246379   0.250   6.723   5.064  0.4432 -0.7573  0.2488
 7395TIP3    H146380   0.228   6.647   5.010 -0.8443 -0.5968  0.5181
 7395TIP3    H246381   0.168   6.746   5.108  0.8187  0.7629  0.2074
 7396TIP3   OH246382   5.898   2.396   5.541 -0.1280  0.2301  0.1427
 7396TIP3    H146383   5.916   2.419   5.450  1.7283 -1.1398  0.1114
 7396TIP3    H246384   5.952   2.320   5.558  0.9314  1.4557  2.8982
 7397TIP3   OH246385   6.771   6.849   7.058  0.1833 -0.0336  0.1348
 7397TIP3    H146386   6.791   6.793   7.133 -0.2818  0.6200  0.7593
 7397TIP3    H246387   6.823   6.928   7.073 -0.2112  0.2573 -0.0297
 7398TIP3   OH246388   1.664   3.692   6.920  0.1814 -0.4002  0.0595
 7398TIP3    H146389   1.607   3.636   6.869  1.7454 -0.5013 -1.6665
 7398TIP3    H246390   1.629   3.687   7.009 -1.1933 -2.1061 -0.5250
 7399TIP3   OH246391   6.023   6.892   7.016  0.1132  0.3186 -0.0420
 7399TIP3    H146392   5.960   6.819   7.017  1.3598 -0.8083 -0.3130
 7399TIP3    H246393   5.973   6.967   7.046 -1.5549 -0.3739 -0.9520
 7400TIP3   OH246394   6.407   5.831   6.393 -0.3554 -0.1884  0.1402
 7400TIP3    H146395   6.384   5.860   6.481 -1.3913 -0.7251  0.0695
 7400TIP3    H246396   6.323   5.830   6.345  0.3423  1.1634 -1.1806
 7401TIP3   OH246397   6.045   4.277   6.520  0.3518  0.2971  0.0273
 7401TIP3    H146398   6.085   4.268   6.434  1.0245  0.7510  0.2830
 7401TIP3    H246399   6.118   4.295   6.579 -0.0003 -0.8112  0.8331
 7402TIP3   OH246400   2.283   0.859   7.653  1.1396  0.7687  0.4684
 7402TIP3    H146401   2.278   0.764   7.644  1.1365  0.8013  0.1195
 7402TIP3    H246402   2.306   0.873   7.745  2.6825  0.3852  0.1731
 7403TIP3   OH246403   2.440   6.243   6.041 -0.1470 -0.1442  0.0366
 7403TIP3    H146404   2.462   6.152   6.021 -1.3258 -0.3585 -0.3681
 7403TIP3    H246405   2.376   6.238   6.112  0.3696  0.4126  0.5598
 7404TIP3   OH246406   7.353   0.179   6.899  0.4430 -0.7939  0.3550
 7404TIP3    H146407   7.302   0.258   6.883 -1.0593 -1.8719 -0.3618
 7404TIP3    H246408   7.390   0.193   6.986  0.1711  0.6690  0.2682
 7405TIP3   OH246409   6.117   4.293   6.260 -0.1737  0.5223 -0.3645
 7405TIP3    H146410   6.124   4.222   6.196  1.8290  0.6389 -0.3353
 7405TIP3    H246411   6.207   4.324   6.272 -0.8224  2.1404  0.6818
 7406TIP3   OH246412   6.505   6.822   6.342 -0.4526  0.3509  0.0954
 7406TIP3    H146413   6.415   6.847   6.361  0.1845  3.4062 -0.4504
 7406TIP3    H246414   6.558   6.877   6.399  1.1306 -2.1730  1.2341
 7407TIP3   OH246415   0.177   7.126   5.236  0.2717 -0.2061 -0.2032
 7407TIP3    H146416   0.095   7.080   5.216  0.3629 -0.2059 -0.5781
 7407TIP3    H246417   0.157   7.218   5.223  0.6138 -0.2759 -1.3119
 7408TIP3   OH246418   1.953   2.861   6.011  0.6676 -0.1493 -0.2785
 7408TIP3    H146419   1.885   2.834   5.948  0.3504 -1.2289  0.4839
 7408TIP3    H246420   2.030   2.880   5.958  0.5533 -1.5310 -0.9713
 7409TIP3   OH246421   7.518   5.324   7.177 -0.5147 -0.0861  1.1514
 7409TIP3    H146422   7.472   5.250   7.217  1.9577 -1.5785  1.4167
 7409TIP3    H246423   7.579   5.353   7.244  0.9756 -0.0871 -0.1502
 7410TIP3   OH246424   2.201   1.617   5.196  0.2611  0.2024 -0.0029
 7410TIP3    H146425   2.132   1.553   5.212 -0.7502  1.2387 -0.0457
 7410TIP3    H246426   2.202   1.628   5.101  1.4610 -0.8252 -0.1271
 7411TIP3   OH246427   5.459   1.561   5.759  0.1286 -0.1935 -0.0731
 7411TIP3    H146428   5.551   1.550   5.737  0.2294 -0.7000  0.5777
 7411TIP3    H246429   5.460   1.604   5.845 -0.2443  2.6156 -1.3467
 7412TIP3   OH246430   5.626   5.215   5.115 -0.3394  0.8897 -1.1404
 7412TIP3    H146431   5.615   5.135   5.167  1.6193  0.1859 -1.7248
 7412TIP3    H246432   5.578   5.198   5.034 -2.4967  1.5650 -0.0795
 7413TIP3   OH246433   1.527   4.612   4.986  0.0889  0.0046 -0.2942
 7413TIP3    H146434   1.446   4.573   5.019 -0.5561  1.8526  0.4012
 7413TIP3    H246435   1.504   4.650   4.902 -0.1311  1.5838  0.4355
 7414TIP3   OH246436   1.335   6.850   5.172  0.2851 -0.3557  0.2447
 7414TIP3    H146437   1.286   6.786   5.222  0.2850 -0.4548  0.1181
 7414TIP3    H246438   1.269   6.907   5.133  0.1546 -1.4700 -1.2845
 7415TIP3   OH246439   7.662   2.705   6.002  0.1491 -0.2144  0.1286
 7415TIP3    H146440   7.609   2.670   6.074 -0.6426 -0.7329 -0.6933
 7415TIP3    H246441   7.646   2.646   5.929 -0.6741  1.4612 -1.0947
 7416TIP3   OH246442   4.339   5.203   5.278 -0.4352  0.2219 -0.4140
 7416TIP3    H146443   4.395   5.141   5.232  0.2182  1.0288 -0.7352
 7416TIP3    H246444   4.379   5.289   5.261 -1.1273  0.7003  0.2860
 7417TIP3   OH246445   1.878   3.537   5.572 -0.4650 -0.0263  0.1447
 7417TIP3    H146446   1.958   3.499   5.537 -1.1063 -1.3155  0.0233
 7417TIP3    H246447   1.895   3.631   5.575 -0.1451  0.1095 -3.0081
 7418TIP3   OH246448   5.932   4.135   5.265 -0.4116 -0.0352  0.0708
 7418TIP3    H146449   6.005   4.129   5.327 -1.2934  1.4906  1.3179
 7418TIP3    H246450   5.905   4.227   5.269 -3.0690 -0.7644  0.4268
 7419TIP3   OH246451   7.456   3.579   5.424 -0.1001 -0.1442  0.5257
 7419TIP3    H146452   7.461   3.675   5.421 -0.2428 -0.1611 -1.1942
 7419TIP3    H246453   7.545   3.550   5.404 -0.0617 -0.3659  1.0284
 7420TIP3   OH246454   0.105   5.111   6.944 -0.5367  0.0055 -0.4098
 7420TIP3    H146455   0.109   5.180   7.011 -0.6747  0.7970 -1.1949
 7420TIP3    H246456   0.016   5.117   6.910 -0.4032 -0.2605 -0.8029
 7421TIP3   OH246457   2.959   1.634   5.911 -0.5920  0.0349  0.1036
 7421TIP3    H146458   2.987   1.592   5.829 -0.7415  0.9334 -0.4199
 7421TIP3    H246459   2.983   1.726   5.900 -2.3923  0.5666  0.2352
 7422TIP3   OH246460   0.985   0.031   6.719 -0.2919 -0.2841  0.1372
 7422TIP3    H146461   1.049   0.076   6.774 -0.1605 -0.4270  0.1016
 7422TIP3    H246462   0.970   0.089   6.645  0.9161 -0.9022 -0.6238
 7423TIP3   OH246463   3.713   1.455   4.881  0.3006 -0.3158 -0.2108
 7423TIP3    H146464   3.637   1.397   4.882  1.2122 -1.5820 -1.3045
 7423TIP3    H246465   3.678   1.540   4.853 -0.7612 -0.7728 -0.3073
 7424TIP3   OH246466   1.468   7.610   5.433 -0.2800  0.2383 -0.3488
 7424TIP3    H146467   1.463   7.522   5.471 -0.1715 -0.1495 -1.1979
 7424TIP3    H246468   1.556   7.641   5.455 -0.3680  0.1964  0.0715
 7425TIP3   OH246469   2.833   0.480   4.701  0.2581 -0.6723  0.1133
 7425TIP3    H146470   2.794   0.460   4.616 -0.2277 -0.0960  0.2005
 7425TIP3    H246471   2.779   0.433   4.764 -0.6810  0.5865  0.2875
 7426TIP3   OH246472   0.472   6.430   5.910 -0.8748 -0.0414 -0.0167
 7426TIP3    H146473   0.516   6.428   5.995  0.2725  1.6105 -0.5220
 7426TIP3    H246474   0.544   6.440   5.847 -1.7332 -0.9004 -1.1535
 7427TIP3   OH246475   4.287   0.987   7.353  0.0629  0.0127 -0.1949
 7427TIP3    H146476   4.334   0.904   7.344 -0.6099 -0.7178  2.3739
 7427TIP3    H246477   4.213   0.979   7.293  0.1629 -1.1384 -0.1851
 7428TIP3   OH246478   1.528   5.771   5.683 -0.3377 -0.7601 -0.0560
 7428TIP3    H146479   1.584   5.848   5.691 -1.3745  0.1156 -0.7465
 7428TIP3    H246480   1.553   5.715   5.756 -0.3135  0.7458  1.1576
 7429TIP3   OH246481   4.645   3.812   7.338  0.0060 -0.1357 -0.3409
 7429TIP3    H146482   4.695   3.769   7.268 -0.4969 -1.9245  0.3353
 7429TIP3    H246483   4.712   3.845   7.398  0.4182 -0.3053 -0.6966
 7430TIP3   OH246484   4.176   1.186   6.045  0.0106 -0.2648  0.1902
 7430TIP3    H146485   4.083   1.181   6.069 -0.2452 -0.5134 -0.8049
 7430TIP3    H246486   4.190   1.279   6.027 -0.0559 -0.2319  0.3037
 7431TIP3   OH246487   2.447   0.585   5.855 -0.5412  0.0518  0.1127
 7431TIP3    H146488   2.474   0.656   5.797 -2.0666  1.4140  0.9964
 7431TIP3    H246489   2.375   0.542   5.808 -0.6451  0.0833  0.2410
 7432TIP3   OH246490   2.509   6.314   6.801  0.5642  0.3971  0.1785
 7432TIP3    H146491   2.464   6.242   6.845 -0.2564  0.7042 -0.1487
 7432TIP3    H246492   2.470   6.393   6.838  0.8899  0.6705 -0.0529
 7433TIP3   OH246493   3.499   0.062   6.452 -0.1439  0.0750  0.2841
 7433TIP3    H146494   3.447   0.041   6.375  0.5103 -0.2039 -0.0826
 7433TIP3    H246495   3.529  -0.023   6.485  0.2910  0.2495  0.3448
 7434TIP3   OH246496   6.862   2.327   5.110 -0.3005 -0.0251  0.2834
 7434TIP3    H146497   6.954   2.303   5.093 -0.7765 -0.1105 -2.7754
 7434TIP3    H246498   6.814   2.246   5.097 -0.9262  0.2361  0.9079
 7435TIP3   OH246499   3.451   4.052   6.086 -0.0304  0.2960  0.1805
 7435TIP3    H146500   3.520   4.004   6.041 -0.7969  1.1120 -2.0130
 7435TIP3    H246501   3.498   4.109   6.147  1.0358 -1.0765  0.6975
 7436TIP3   OH246502   5.123   0.911   5.074  0.0376 -0.1610  0.1741
 7436TIP3    H146503   5.133   1.006   5.084  0.6296 -0.0641 -1.1205
 7436TIP3    H246504   5.031   0.895   5.093 -0.1838  0.7409 -0.0782
 7437TIP3   OH246505   3.022   2.256   7.456  0.3190  0.7400  0.5134
 7437TIP3    H146506   2.997   2.346   7.478  0.6713  1.1474 -0.6891
 7437TIP3    H246507   2.978   2.239   7.372  0.8970  0.0737  0.3380
 7438TIP3   OH246508   0.169   6.479   4.962 -0.3762 -0.0974 -0.2317
 7438TIP3    H146509   0.078   6.451   4.968 -0.2019 -1.0809 -1.5922
 7438TIP3    H246510   0.212   6.408   4.913  1.2993 -0.0760  1.1105
 7439TIP3   OH246511   4.501   7.578   5.138  0.2209 -0.5553  0.4206
 7439TIP3    H146512   4.462   7.649   5.087  0.1415 -0.7411  0.2218
 7439TIP3    H246513   4.426   7.525   5.167  0.1294  0.3727  1.9887
 7440TIP3   OH246514   7.354   0.348   5.927 -0.8093 -0.3548  0.0517
 7440TIP3    H146515   7.448   0.344   5.947 -0.7243 -2.4008 -0.5622
 7440TIP3    H246516   7.333   0.441   5.933  1.6213  0.4038 -1.3862
 7441TIP3   OH246517   3.411   7.116   4.752  0.0486 -0.3543  0.9278
 7441TIP3    H146518   3.369   7.200   4.733  0.9859 -0.1727 -0.4492
 7441TIP3    H246519   3.339   7.053   4.753 -0.3857  0.0804 -0.5247
 7442TIP3   OH246520   6.026   3.741   6.060 -0.5071  0.7286 -0.4824
 7442TIP3    H146521   5.984   3.691   6.130  0.4951 -1.4530 -1.3465
 7442TIP3    H246522   5.967   3.730   5.985 -0.1776  0.6402 -0.7324
 7443TIP3   OH246523   1.851   5.299   4.818  0.1916  0.5158  0.1694
 7443TIP3    H146524   1.774   5.244   4.803 -0.1791  0.0903  2.9986
 7443TIP3    H246525   1.916   5.239   4.854  0.4229  1.5328  1.5474
 7444TIP3   OH246526   6.313   3.240   5.246 -0.2442  0.3276 -0.2649
 7444TIP3    H146527   6.256   3.169   5.218  3.3033 -2.3779 -1.2350
 7444TIP3    H246528   6.324   3.295   5.168 -0.3030 -0.0022 -0.5037
 7445TIP3   OH246529   3.275   5.907   5.241  0.1368  0.3924  0.7603
 7445TIP3    H146530   3.196   5.962   5.233  0.5929  1.1679  1.4226
 7445TIP3    H246531   3.242   5.823   5.273 -0.5514  0.3348 -0.0662
 7446TIP3   OH246532   3.984   5.595   5.312 -0.0797 -0.2380 -0.9515
 7446TIP3    H146533   3.900   5.575   5.270  0.0889 -0.4822 -1.1782
 7446TIP3    H246534   4.049   5.572   5.245  0.1562  0.1460 -0.8508
 7447TIP3   OH246535   3.100   2.219   5.019  0.6162 -0.2762  0.2674
 7447TIP3    H146536   3.169   2.240   5.081 -1.3325 -0.1391  2.5464
 7447TIP3    H246537   3.049   2.300   5.012  0.5517 -0.4102 -1.2612
 7448TIP3   OH246538   6.144   0.040   6.776 -0.3073  0.5528 -0.1419
 7448TIP3    H146539   6.204   0.023   6.849 -1.2329 -0.3939  0.4235
 7448TIP3    H246540   6.151  -0.038   6.721 -1.1773  0.3379  0.0453
 7449TIP3   OH246541   2.061   7.323   5.604  0.5861 -0.5241  0.0650
 7449TIP3    H146542   2.025   7.380   5.536  1.0709 -1.7554 -1.2798
 7449TIP3    H246543   2.140   7.286   5.565  0.7582 -1.4427  1.2215
 7450TIP3   OH246544   2.794   1.011   5.036  0.1685  0.5298 -0.0459
 7450TIP3    H146545   2.742   1.003   5.117 -0.1689  1.5828 -0.1376
 7450TIP3    H246546   2.801   0.922   5.003 -0.0219  0.1329  0.9471
 7451TIP3   OH246547   6.531   2.100   6.159  0.2625 -0.1963  0.2523
 7451TIP3    H146548   6.554   2.184   6.198 -0.9734 -0.8663  2.6701
 7451TIP3    H246549   6.587   2.037   6.204  1.4877 -0.6935 -1.8385
 7452TIP3   OH246550   6.459   0.280   5.700  0.9071 -0.0478 -0.1984
 7452TIP3    H146551   6.367   0.287   5.675  0.8606  0.5901  0.1375
 7452TIP3    H246552   6.506   0.328   5.631  1.0356 -0.7161 -0.5933
 7453TIP3   OH246553   2.279   7.509   5.901 -0.5079  0.0373  0.0698
 7453TIP3    H146554   2.290   7.601   5.879  1.0956 -0.3114 -0.7586
 7453TIP3    H246555   2.337   7.495   5.976  0.7462 -0.6843 -0.9928
 7454TIP3   OH246556   1.682   6.437   6.868 -0.6704 -0.2802  0.2900
 7454TIP3    H146557   1.743   6.391   6.810  1.0742  1.4338  0.6467
 7454TIP3    H246558   1.727   6.519   6.889 -2.6953  0.6063  1.4166
 7455TIP3   OH246559   5.357   4.863   7.305  0.9189 -0.2404 -0.2821
 7455TIP3    H146560   5.374   4.917   7.228  0.2961  0.1730 -0.1402
 7455TIP3    H246561   5.322   4.925   7.370 -1.0379 -1.0013 -0.5309
 7456TIP3   OH246562   2.989   6.444   6.082 -0.3064 -0.1775 -0.1320
 7456TIP3    H146563   2.976   6.536   6.106  2.1776  0.2417 -0.1304
 7456TIP3    H246564   2.925   6.397   6.134 -1.2049  1.5060  0.3624
 7457TIP3   OH246565   0.824   3.945   5.750 -0.8785 -0.2835 -0.5553
 7457TIP3    H146566   0.874   4.026   5.765 -1.8582  0.0517  1.2302
 7457TIP3    H246567   0.880   3.876   5.785 -1.2129 -0.0277  0.5159
 7458TIP3   OH246568   3.392   0.450   5.177  0.5779 -0.3531 -0.0029
 7458TIP3    H146569   3.348   0.488   5.101 -0.2888 -0.6005  0.3599
 7458TIP3    H246570   3.469   0.406   5.141  0.3085 -0.2643 -0.7059
 7459TIP3   OH246571   6.839   0.048   5.130  0.0972 -0.2304  0.4934
 7459TIP3    H146572   6.796  -0.011   5.068 -0.3902  0.4683  0.1576
 7459TIP3    H246573   6.768   0.100   5.168  0.6124  0.8670  0.0062
 7460TIP3   OH246574   3.647   2.911   6.475  0.4056 -0.3071  0.1844
 7460TIP3    H146575   3.602   2.992   6.452  0.4454 -0.3391 -0.0126
 7460TIP3    H246576   3.651   2.912   6.571  0.4753 -0.0387  0.1811
 7461TIP3   OH246577   0.598   0.920   6.079  0.1098  0.1402 -0.8068
 7461TIP3    H146578   0.610   1.007   6.040 -0.0496  0.9599  0.8969
 7461TIP3    H246579   0.518   0.927   6.130  0.6716 -0.6914  0.2235
 7462TIP3   OH246580   7.355   1.794   5.982 -0.4745 -0.0148  0.8508
 7462TIP3    H146581   7.429   1.752   6.026 -0.4389 -1.2961 -0.3537
 7462TIP3    H246582   7.351   1.882   6.019  0.8684 -0.3397  1.8282
 7463TIP3   OH246583   7.291   6.615   5.453  0.3863  0.5110 -0.2397
 7463TIP3    H146584   7.316   6.533   5.410 -0.6132 -0.5149  1.0466
 7463TIP3    H246585   7.366   6.673   5.440  0.1506  0.2857 -3.3342
 7464TIP3   OH246586   4.830   5.136   5.483  0.0432  0.0753 -0.6042
 7464TIP3    H146587   4.893   5.146   5.411 -0.4895 -0.9561 -1.2351
 7464TIP3    H246588   4.852   5.207   5.543  1.6565 -0.1065 -0.9163
 7465TIP3   OH246589   3.476   2.142   5.623  0.0367 -0.2322 -0.4908
 7465TIP3    H146590   3.517   2.186   5.549  0.3947  0.7838  0.2846
 7465TIP3    H246591   3.389   2.182   5.630 -0.0773 -0.4770 -0.4909
 7466TIP3   OH246592   4.377   3.465   5.666  0.0046  0.0250  0.4071
 7466TIP3    H146593   4.288   3.451   5.634 -0.9843  1.0526  2.4766
 7466TIP3    H246594   4.401   3.552   5.634  0.3496 -0.3160 -0.2820
 7467TIP3   OH246595   1.107   5.913   6.810 -0.3928 -0.5879 -0.0522
 7467TIP3    H146596   1.041   5.908   6.879  0.7495 -1.4252  1.0402
 7467TIP3    H246597   1.108   6.005   6.783 -0.4247 -0.1138  1.4976
 7468TIP3   OH246598   2.105   2.053   6.483  0.5875  0.4271 -0.6997
 7468TIP3    H146599   2.187   2.099   6.503  0.9700 -0.3553 -0.3807
 7468TIP3    H246600   2.130   1.989   6.416 -0.3559  1.9668 -2.6229
 7469TIP3   OH246601   5.208   3.640   4.728 -0.0944 -0.2386  0.2508
 7469TIP3    H146602   5.137   3.608   4.673 -0.1405  2.1605 -1.1984
 7469TIP3    H246603   5.270   3.567   4.731 -1.6314 -1.6215 -0.1670
 7470TIP3   OH246604   5.683   4.848   4.751 -0.4839  0.1736  0.6380
 7470TIP3    H146605   5.759   4.834   4.807  0.2693  1.2239 -0.0863
 7470TIP3    H246606   5.719   4.883   4.669 -1.4793 -1.9977 -0.8069
 7471TIP3   OH246607   1.909   7.639   5.998 -0.2474  0.3625 -0.1727
 7471TIP3    H146608   1.859   7.562   6.025  1.3834 -0.8170 -0.3346
 7471TIP3    H246609   1.918   7.631   5.903 -0.3533  0.9400 -0.2382
 7472TIP3   OH246610   2.549   6.521   4.760  0.0321  0.0498  0.2538
 7472TIP3    H146611   2.480   6.469   4.802  1.6885 -1.0844  1.7057
 7472TIP3    H246612   2.519   6.611   4.767 -0.9643 -0.3613  1.5171
 7473TIP3   OH246613   5.839   5.520   4.872 -0.7477  0.4244  0.6117
 7473TIP3    H146614   5.846   5.473   4.955 -1.6282 -0.3586  0.2642
 7473TIP3    H246615   5.751   5.559   4.873 -0.6106  0.7592  0.2268
 7474TIP3   OH246616   0.776   1.461   5.515 -0.1019  0.5012  0.0862
 7474TIP3    H146617   0.810   1.470   5.426  0.0506  0.5924  0.1530
 7474TIP3    H246618   0.853   1.469   5.571 -0.0570 -0.4621  0.1873
 7475TIP3   OH246619   3.099   7.387   6.317  0.1292 -0.1005  0.4704
 7475TIP3    H146620   3.047   7.342   6.383 -0.4369  0.9546  0.7562
 7475TIP3    H246621   3.035   7.418   6.253  0.2799  1.8511  1.1968
 7476TIP3   OH246622   4.930   4.467   5.506 -0.3194 -0.3598  0.7840
 7476TIP3    H146623   4.894   4.473   5.594 -1.1210 -0.4311  0.4752
 7476TIP3    H246624   4.874   4.526   5.454  0.8018  0.5047  0.5243
 7477TIP3   OH246625   6.052   2.003   5.969  0.5058  0.5262 -0.2561
 7477TIP3    H146626   5.977   2.019   5.911  0.9723  0.6680 -0.8325
 7477TIP3    H246627   6.013   1.970   6.050 -0.3325  2.1608  0.0709
 7478TIP3   OH246628   1.203   7.325   6.882  0.0362  0.1216  0.7344
 7478TIP3    H146629   1.205   7.406   6.831  0.5451  0.6131  1.5029
 7478TIP3    H246630   1.161   7.350   6.964  0.3587 -0.3541  1.0449
 7479TIP3   OH246631   2.483   6.334  11.438 -0.8252 -0.1717 -0.1237
 7479TIP3    H146632   2.531   6.400  11.388 -0.9059 -1.1750 -1.6097
 7479TIP3    H246633   2.479   6.369  11.527  0.5523  1.0504 -0.4966
 7480TIP3   OH246634   6.171   3.205   7.044 -0.0478  0.1994  0.0361
 7480TIP3    H146635   6.144   3.115   7.064  0.3825  0.2787  1.0477
 7480TIP3    H246636   6.265   3.199   7.026 -0.0085  0.4442  0.1495
 7481TIP3   OH246637   2.054   4.517   5.101 -0.5528  0.1793 -0.4906
 7481TIP3    H146638   2.090   4.429   5.097 -0.8531  0.0480 -0.3708
 7481TIP3    H246639   1.963   4.507   5.074 -0.9135  0.2543  0.6372
 7482TIP3   OH246640   6.859   1.349   5.082  0.6122 -0.5084 -0.2498
 7482TIP3    H146641   6.792   1.368   5.016 -1.2556  0.2100  1.7061
 7482TIP3    H246642   6.882   1.435   5.119  0.2130 -1.0097  1.2550
 7483TIP3   OH246643   6.760   2.057   5.968  0.2511  0.0397  0.2091
 7483TIP3    H146644   6.669   2.042   5.941  0.4678 -1.4312  0.1841
 7483TIP3    H246645   6.798   1.969   5.970  1.5765  0.6085  0.5731
 7484TIP3   OH246646   2.399   6.458   5.848  0.3807  0.0173 -0.0606
 7484TIP3    H146647   2.408   6.379   5.901  2.0554  1.2712  1.6465
 7484TIP3    H246648   2.305   6.477   5.849  0.1517 -1.0665  0.8012
 7485TIP3   OH246649   3.378   2.088   6.050  0.2113 -0.3506  0.3198
 7485TIP3    H146650   3.426   2.171   6.053  0.4080 -0.4316 -0.3970
 7485TIP3    H246651   3.286   2.114   6.059  0.3070 -0.0994  0.5940
 7486TIP3   OH246652   2.203   2.864   5.898  0.5026  0.2233 -0.2112
 7486TIP3    H146653   2.259   2.939   5.918  0.3534  0.7227 -1.5180
 7486TIP3    H246654   2.259   2.806   5.847  0.4757 -0.3227  0.3847
 7487TIP3   OH246655   7.609   4.314   6.196  0.2846 -0.3691 -0.5091
 7487TIP3    H146656   7.548   4.385   6.217 -0.8773 -0.7033 -2.4788
 7487TIP3    H246657   7.644   4.287   6.281 -0.0385  1.8274  0.3952
 7488TIP3   OH246658   4.008   0.358   5.771  0.2785 -0.2143  0.2617
 7488TIP3    H146659   4.001   0.269   5.736  0.2516  0.8005 -2.5824
 7488TIP3    H246660   3.929   0.402   5.740  1.7827  1.6369 -1.1927
 7489TIP3   OH246661   1.731   5.381   6.643 -0.1085  0.0887 -0.2561
 7489TIP3    H146662   1.672   5.377   6.568  0.9529 -0.7379 -1.0869
 7489TIP3    H246663   1.803   5.437   6.614 -0.2398  0.7024  0.5719
 7490TIP3   OH246664   4.996   2.946   5.631  0.3449 -0.3780 -0.3541
 7490TIP3    H146665   5.027   3.028   5.669 -1.3375  0.3416 -0.4291
 7490TIP3    H246666   4.965   2.970   5.544 -0.9823 -0.8829 -0.0538
 7491TIP3   OH246667   0.041   0.897   6.321 -0.6052 -0.2078  0.2825
 7491TIP3    H146668   0.055   0.860   6.408 -0.5876  2.4572  1.5117
 7491TIP3    H246669  -0.041   0.946   6.328 -0.4106  0.3765 -1.0925
 7492TIP3   OH246670   0.516   6.085   7.181 -0.0060 -0.3915  0.5790
 7492TIP3    H146671   0.429   6.045   7.186  0.6670 -1.8295  1.2247
 7492TIP3    H246672   0.565   6.029   7.122 -0.1324  1.7118 -1.6644
 7493TIP3   OH246673   3.422   2.198   4.560  0.4481 -0.1063 -0.3167
 7493TIP3    H146674   3.365   2.161   4.628 -1.6210 -0.1107 -1.9762
 7493TIP3    H246675   3.365   2.212   4.485  2.5535  0.3694 -1.9346
 7494TIP3   OH246676   0.143   3.984   5.710 -0.3161 -0.2631  0.1523
 7494TIP3    H146677   0.159   4.069   5.752 -0.9184 -0.8263  1.5682
 7494TIP3    H246678   0.230   3.945   5.701  0.0035  0.6097 -0.8094
 7495TIP3   OH246679   1.673   7.322   6.808 -0.2504 -0.3307  0.5741
 7495TIP3    H146680   1.659   7.292   6.718 -0.3018  2.2677 -0.3612
 7495TIP3    H246681   1.730   7.398   6.800 -1.2462  0.7181  2.6390
 7496TIP3   OH246682   7.105   3.562   6.329 -0.6699 -0.1155 -0.3549
 7496TIP3    H146683   7.130   3.607   6.248 -1.3816 -0.1382 -0.5951
 7496TIP3    H246684   7.079   3.633   6.388  0.6374 -0.0322  0.1559
 7497TIP3   OH246685   0.044   3.504   5.408 -0.0283 -0.2067 -0.0135
 7497TIP3    H146686   0.104   3.506   5.333  0.2844  0.3285  0.2423
 7497TIP3    H246687   0.085   3.562   5.472 -0.5403 -0.2818  0.3845
 7498TIP3   OH246688   6.935   0.318   6.750 -0.3222  0.2179  0.1666
 7498TIP3    H146689   6.981   0.250   6.799  0.2379  0.4609 -0.0221
 7498TIP3    H246690   7.003   0.377   6.719 -0.5369 -0.5393 -1.8966
 7499TIP3   OH246691   5.470   2.956   5.404  0.3244 -0.0016  0.3920
 7499TIP3    H146692   5.446   2.989   5.317  1.0703 -3.7263 -1.4404
 7499TIP3    H246693   5.395   2.903   5.431  1.2608 -1.2424  0.6238
 7500TIP3   OH246694   2.495   6.766   5.313 -0.1966 -0.2743  0.4218
 7500TIP3    H146695   2.488   6.684   5.362 -0.0248 -0.9707 -0.6880
 7500TIP3    H246696   2.423   6.764   5.250  0.7870 -0.3936 -0.7538
 7501TIP3   OH246697   4.424   2.729   5.394  0.2293  0.4530 -0.0808
 7501TIP3    H146698   4.385   2.685   5.470  0.2467  0.6417  0.0357
 7501TIP3    H246699   4.498   2.777   5.429  0.5252  0.1563 -0.2940
 7502TIP3   OH246700   1.967   7.273   6.941 -0.3406  0.0855 -0.0318
 7502TIP3    H146701   1.904   7.203   6.958 -0.4566  0.3201  0.5563
 7502TIP3    H246702   1.975   7.318   7.025 -0.6340  1.0688 -0.5092
 7503TIP3   OH246703   2.623   1.778   7.170 -0.2568  0.3364 -0.1024
 7503TIP3    H146704   2.595   1.867   7.191  1.3741  0.8073  0.2086
 7503TIP3    H246705   2.641   1.738   7.255  1.4729  0.5739 -0.3311
 7504TIP3   OH246706   2.958   0.763   5.943  0.9384  0.2499 -0.1769
 7504TIP3    H146707   2.938   0.759   6.036  0.7684  1.8316 -0.1110
 7504TIP3    H246708   3.014   0.687   5.926  0.5328 -0.3453  1.0921
 7505TIP3   OH246709   7.403   0.080   5.148  0.2565 -0.4393  0.6670
 7505TIP3    H146710   7.400   0.146   5.078  1.8878  0.3474  1.3103
 7505TIP3    H246711   7.312   0.048   5.154 -0.4114  1.1854 -0.1817
 7506TIP3   OH246712   2.022   2.295   4.897 -0.1418 -0.2499 -0.5557
 7506TIP3    H146713   2.041   2.234   4.969 -0.8910 -2.1530 -1.9066
 7506TIP3    H246714   2.101   2.349   4.891  0.5204 -1.0146  0.7506
 7507TIP3   OH246715   6.870   1.926   6.476 -0.3402  0.8977  0.1331
 7507TIP3    H146716   6.790   1.935   6.424 -0.0054 -0.0948 -0.5859
 7507TIP3    H246717   6.923   1.863   6.427  0.8221  1.4371  0.6803
 7508TIP3   OH246718   2.384   7.414   7.870 -0.4097  0.0917 -0.4236
 7508TIP3    H146719   2.315   7.383   7.928 -1.0865  0.4558 -1.0288
 7508TIP3    H246720   2.462   7.364   7.897 -0.7206  0.2022  0.7451
 7509TIP3   OH246721   6.613   0.409   5.532 -0.7584  0.6966  0.6164
 7509TIP3    H146722   6.659   0.452   5.604  0.4110  0.3262  0.1154
 7509TIP3    H246723   6.668   0.426   5.455  0.3853 -2.5287  0.5609
 7510TIP3   OH246724   7.098   4.805   4.534  0.3922 -0.8265  0.1056
 7510TIP3    H146725   7.018   4.753   4.524  0.8148 -1.5055  0.1400
 7510TIP3    H246726   7.085   4.881   4.478 -1.0161  0.0020  1.4745
 7511TIP3   OH246727   6.694   4.047   6.408  0.4037 -0.1494 -0.0052
 7511TIP3    H146728   6.659   4.127   6.447 -1.4454  0.4089 -2.5171
 7511TIP3    H246729   6.632   3.979   6.434  1.1537 -0.4909  0.9167
 7512TIP3   OH246730   1.127   0.127   5.205 -0.4286 -0.2207 -0.2257
 7512TIP3    H146731   1.156   0.206   5.159 -0.4797  0.8077  1.4215
 7512TIP3    H246732   1.101   0.158   5.292  0.2389 -2.1573  0.7286
 7513TIP3   OH246733   3.607   1.725   7.308 -0.6859 -0.1359 -0.1336
 7513TIP3    H146734   3.580   1.636   7.332 -0.5489 -0.4562 -1.1251
 7513TIP3    H246735   3.576   1.737   7.218  1.8816 -0.3193 -1.1331
 7514TIP3   OH246736   5.510   7.232   6.514 -0.0160 -0.2154 -0.1985
 7514TIP3    H146737   5.551   7.310   6.551 -0.8369  0.6213 -1.0033
 7514TIP3    H246738   5.478   7.183   6.589  1.3618 -0.2852  0.3777
 7515TIP3   OH246739   0.610   5.688   5.809  0.8879  0.1457 -0.5367
 7515TIP3    H146740   0.602   5.681   5.904  2.3239  0.9607 -0.3303
 7515TIP3    H246741   0.571   5.772   5.787 -1.5932 -1.0474 -1.0040
 7516TIP3   OH246742   1.351   5.111   5.721  0.2682 -0.3792 -0.1555
 7516TIP3    H146743   1.348   5.091   5.627  2.2809 -2.6888  0.1767
 7516TIP3    H246744   1.315   5.033   5.764  0.8026 -0.0069  1.0180
 7517TIP3   OH246745   3.497   7.029   7.102 -0.5431 -0.3340 -0.1288
 7517TIP3    H146746   3.553   7.092   7.056 -1.1946 -0.5659 -1.2765
 7517TIP3    H246747   3.484   7.067   7.188 -0.8469  1.0734 -0.7645
 7518TIP3   OH246748   1.187   6.352   6.355 -0.3080 -0.3920  0.2654
 7518TIP3    H146749   1.236   6.272   6.338 -0.5850 -0.7127  0.9593
 7518TIP3    H246750   1.214   6.411   6.285  0.1101 -0.9920 -0.0930
 7519TIP3   OH246751   3.695   5.380   6.541  0.4893 -0.9053  0.0408
 7519TIP3    H146752   3.635   5.385   6.468 -0.2901 -0.3616  0.7034
 7519TIP3    H246753   3.684   5.463   6.587  0.4638 -1.5012  1.1496
 7520TIP3   OH246754   3.318   3.355   5.298 -0.5646 -0.0283 -0.1537
 7520TIP3    H146755   3.240   3.359   5.243  0.6010  0.8757 -1.8271
 7520TIP3    H246756   3.306   3.425   5.361  0.0852  2.0001 -2.1492
 7521TIP3   OH246757   7.319   2.248   6.290  0.3353  0.3179  0.0659
 7521TIP3    H146758   7.380   2.206   6.228  0.4882 -0.7429  0.9067
 7521TIP3    H246759   7.345   2.213   6.376 -1.1124  0.2684  0.5024
 7522TIP3   OH246760   0.890   0.617   4.719  0.4108  0.1933 -0.2460
 7522TIP3    H146761   0.796   0.626   4.736  0.9378  3.5213  1.6466
 7522TIP3    H246762   0.914   0.534   4.761 -1.3319  0.2534  0.9847
 7523TIP3   OH246763   4.061   1.195   5.693 -0.7509  0.1120  0.0219
 7523TIP3    H146764   4.153   1.207   5.716 -0.7217  1.6553 -0.7671
 7523TIP3    H246765   4.062   1.131   5.622 -0.1257  1.2857 -1.0543
 7524TIP3   OH246766   2.781   4.485   5.441  0.4626  0.3163  0.4971
 7524TIP3    H146767   2.735   4.481   5.357  1.7709 -1.2860 -0.2139
 7524TIP3    H246768   2.737   4.420   5.495  0.6186  0.2006  0.4874
 7525TIP3   OH246769   0.482   5.439   4.866  0.2683 -0.1364 -0.1711
 7525TIP3    H146770   0.492   5.363   4.809  0.9475 -1.1695  1.2661
 7525TIP3    H246771   0.571   5.466   4.888  0.0927 -1.3209  2.3466
 7526TIP3   OH246772   1.323   6.440   5.046  0.0507 -0.5770  0.3725
 7526TIP3    H146773   1.352   6.502   4.980 -2.8913  2.4829  1.6567
 7526TIP3    H246774   1.260   6.384   5.000 -0.7835  0.4896  0.1862
 7527TIP3   OH246775   2.796   7.544   5.907  0.5847  0.3028  0.1307
 7527TIP3    H146776   2.815   7.637   5.892  0.7233 -0.0040 -1.9928
 7527TIP3    H246777   2.772   7.511   5.820  1.8164 -1.9304  0.5761
 7528TIP3   OH246778   7.296   1.367   5.790  0.6599 -0.5954  0.1610
 7528TIP3    H146779   7.383   1.394   5.821  0.9120 -0.7266 -0.4283
 7528TIP3    H246780   7.314   1.303   5.722  0.1071 -0.2429 -0.3219
 7529TIP3   OH246781   0.599   3.736   6.931  0.5420  0.4575  0.2528
 7529TIP3    H146782   0.573   3.721   7.022 -2.7817  1.1016 -0.4776
 7529TIP3    H246783   0.562   3.662   6.883 -0.4472  1.6877 -0.9563
 7530TIP3   OH246784   2.722   1.506   6.432 -0.3229  0.0948 -0.0489
 7530TIP3    H146785   2.750   1.522   6.342  0.0815  0.9346  0.2125
 7530TIP3    H246786   2.670   1.426   6.427  0.8847 -0.6858 -0.7932
 7531TIP3   OH246787   7.407   5.242   5.011 -0.1705  0.6613  0.2004
 7531TIP3    H146788   7.338   5.227   4.946 -0.5579 -0.3525  0.8282
 7531TIP3    H246789   7.485   5.263   4.959  0.3075 -3.0208 -0.8310
 7532TIP3   OH246790   6.085   1.059   6.138 -0.0727 -0.4488  0.3977
 7532TIP3    H146791   6.049   1.136   6.094 -2.0554 -2.2182 -1.2910
 7532TIP3    H246792   6.173   1.086   6.165 -1.5885  3.2752  2.4050
 7533TIP3   OH246793   5.161   1.193   5.140  0.5580 -0.5167  0.1249
 7533TIP3    H146794   5.110   1.257   5.091  0.7395  0.5176  1.2569
 7533TIP3    H246795   5.252   1.212   5.117  0.5845 -0.7458  0.0335
 7534TIP3   OH246796   2.370   1.062   5.019 -0.0855  0.6319 -0.0871
 7534TIP3    H146797   2.374   1.059   4.924 -0.5340 -0.3542 -0.0930
 7534TIP3    H246798   2.343   1.152   5.039  1.0307  1.1552 -0.8294
 7535TIP3   OH246799   6.162   3.552   4.559 -0.5685 -0.4519 -0.6784
 7535TIP3    H146800   6.093   3.568   4.624 -0.6205  3.9346 -1.4691
 7535TIP3    H246801   6.116   3.525   4.480 -0.9608 -1.2923 -0.1739
 7536TIP3   OH246802   7.246   0.447   5.062 -0.3583 -0.4316  0.0428
 7536TIP3    H146803   7.156   0.480   5.061 -0.3710 -0.4289 -1.4166
 7536TIP3    H246804   7.299   0.520   5.030  0.2397 -0.2795  1.3179
 7537TIP3   OH246805   1.100   7.111   7.625  0.3623 -0.1362 -0.6003
 7537TIP3    H146806   1.061   7.173   7.686  0.0856  0.8801 -1.7804
 7537TIP3    H246807   1.077   7.144   7.538  2.0841 -0.6475 -1.3028
 7538TIP3   OH246808   2.416   4.780   6.864  0.4351  0.0535  0.2624
 7538TIP3    H146809   2.423   4.685   6.855  0.5418 -0.1061  1.8248
 7538TIP3    H246810   2.407   4.795   6.958 -0.2363  1.5526 -0.0108
 7539TIP3   OH246811   2.872   3.069   5.703 -0.0406 -0.3395 -0.2242
 7539TIP3    H146812   2.844   3.038   5.789  0.3588  0.4779  0.2154
 7539TIP3    H246813   2.967   3.062   5.704  0.1797  1.9378  0.3472
 7540TIP3   OH246814   4.822   2.167   6.627  0.3512  0.6593 -0.1430
 7540TIP3    H146815   4.916   2.153   6.621  0.7430  1.1195  3.2116
 7540TIP3    H246816   4.790   2.095   6.681 -0.7605  1.9202  0.9602
 7541TIP3   OH246817   7.518   5.697   5.340  0.3660  0.1874  0.1336
 7541TIP3    H146818   7.550   5.611   5.314  1.8612  0.7708 -0.0651
 7541TIP3    H246819   7.543   5.755   5.268 -1.5849  0.6316 -0.2488
 7542TIP3   OH246820   0.837   2.280   5.300  0.1261  0.1522 -0.2675
 7542TIP3    H146821   0.853   2.375   5.294 -1.4343  0.4357 -0.5568
 7542TIP3    H246822   0.924   2.241   5.302  0.8202  1.6614  1.0380
 7543TIP3   OH246823   0.663   3.997   6.958  0.1363 -0.2507 -0.0278
 7543TIP3    H146824   0.622   4.040   7.033 -0.1864  0.4595 -0.5919
 7543TIP3    H246825   0.631   3.907   6.961  0.1237 -0.2283  0.6784
 7544TIP3   OH246826   3.909   0.940   5.102 -0.0749 -0.2818 -0.3960
 7544TIP3    H146827   3.959   0.959   5.181 -0.9412 -0.8460  0.3063
 7544TIP3    H246828   3.835   1.000   5.105 -0.1711 -0.3815 -0.7185
 7545TIP3   OH246829   5.197   0.089   5.772  0.0228  0.4391  0.0244
 7545TIP3    H146830   5.217   0.064   5.862  2.3133 -1.7362 -0.9688
 7545TIP3    H246831   5.121   0.036   5.749  0.9206 -0.8666 -0.0341
 7546TIP3   OH246832   2.354   7.130   5.185  0.4063 -0.1142  0.0289
 7546TIP3    H146833   2.388   7.205   5.137  0.6592  0.6322  1.3184
 7546TIP3    H246834   2.427   7.067   5.187 -0.6609 -1.7111 -3.4878
 7547TIP3   OH246835   1.609   4.546   6.101 -0.6264  0.1422 -0.0205
 7547TIP3    H146836   1.552   4.553   6.025 -0.5670 -1.5154 -0.2359
 7547TIP3    H246837   1.557   4.583   6.173 -1.1191  0.6473 -0.6224
 7548TIP3   OH246838   3.168   2.049   6.826  0.0493  0.3449 -0.2268
 7548TIP3    H146839   3.211   1.994   6.891 -0.7480  0.0966  0.0985
 7548TIP3    H246840   3.085   2.074   6.867  0.7341  2.4769 -0.0223
 7549TIP3   OH246841   5.634   2.216   7.090  0.0601 -0.1784  0.3722
 7549TIP3    H146842   5.705   2.253   7.143  1.3888 -0.6121 -1.0017
 7549TIP3    H246843   5.640   2.264   7.007 -2.1394  0.6895  0.6452
 7550TIP3   OH246844   5.275   6.828   6.665  0.1154 -0.3221 -0.1139
 7550TIP3    H146845   5.257   6.910   6.712  1.4499  0.2269 -0.5181
 7550TIP3    H246846   5.300   6.767   6.734  0.3380 -0.0321  0.0649
 7551TIP3   OH246847   4.889   2.698   6.442 -0.5580 -0.2593 -0.1357
 7551TIP3    H146848   4.939   2.740   6.372 -0.4488  1.7821  1.0838
 7551TIP3    H246849   4.918   2.607   6.440  0.2998  0.0008 -1.9635
 7552TIP3   OH246850   0.566   0.942   7.818  0.0584  0.2099 -0.0650
 7552TIP3    H146851   0.604   0.855   7.831  1.2575  0.8563  1.0477
 7552TIP3    H246852   0.628   1.001   7.861 -2.0417  1.3873  1.4974
 7553TIP3   OH246853   5.244   0.583   6.496  0.6189 -0.7023  0.0898
 7553TIP3    H146854   5.185   0.658   6.489  0.7095 -0.7047 -0.8298
 7553TIP3    H246855   5.320   0.616   6.544  0.2555 -0.4577  0.4967
 7554TIP3   OH246856   7.188   4.830   6.287  0.3907  0.1951 -0.3754
 7554TIP3    H146857   7.254   4.770   6.253  0.3751 -2.5471  3.7215
 7554TIP3    H246858   7.111   4.814   6.231  1.1898 -1.6728 -1.0478
 7555TIP3   OH246859   2.461   7.381   5.722 -0.1767  0.0592  0.0441
 7555TIP3    H146860   2.409   7.340   5.653  0.4430  2.7742 -2.2511
 7555TIP3    H246861   2.397   7.431   5.774 -0.2161  2.1599 -1.8447
 7556TIP3   OH246862   0.813   2.604   6.337  0.5699 -0.0302  0.1214
 7556TIP3    H146863   0.886   2.557   6.296  0.5736  0.3043 -0.2658
 7556TIP3    H246864   0.735   2.561   6.302  0.5679 -0.9503  1.1937
 7557TIP3   OH246865   5.829   4.241   6.074  0.4761  0.0974 -0.1644
 7557TIP3    H146866   5.804   4.283   6.156  2.3977  1.1802 -0.0882
 7557TIP3    H246867   5.747   4.234   6.025 -1.1515 -2.4901  2.5814
 7558TIP3   OH246868   3.135   1.127   6.631  0.0547 -0.0170 -0.3280
 7558TIP3    H146869   3.229   1.125   6.618 -0.0121  1.9744 -1.5646
 7558TIP3    H246870   3.102   1.052   6.581  0.9722 -0.8704  0.3150
 7559TIP3   OH246871   1.428   1.221   4.476 -0.1478 -0.0176 -0.1395
 7559TIP3    H146872   1.375   1.151   4.438 -0.9304  0.2052  0.5092
 7559TIP3    H246873   1.364   1.282   4.512  0.4870  1.5931 -1.6130
 7560TIP3   OH246874   3.956   2.384   5.166  0.3461  0.0995  0.4573
 7560TIP3    H146875   3.940   2.381   5.260  0.1071 -0.7045  0.4014
 7560TIP3    H246876   4.022   2.316   5.151  0.9001  0.7014  0.1406
 7561TIP3   OH246877   7.147   2.768   4.799  0.5682 -0.1000 -0.1909
 7561TIP3    H146878   7.101   2.753   4.882  3.1318 -0.9405  1.1974
 7561TIP3    H246879   7.128   2.859   4.778 -0.9922 -0.1599  0.7395
 7562TIP3   OH246880   4.729   1.989   7.027  0.0349 -0.4080 -0.2488
 7562TIP3    H146881   4.667   2.061   7.014  1.4232  0.6348 -1.3352
 7562TIP3    H246882   4.675   1.919   7.064 -1.6861  0.6280 -0.6344
 7563TIP3   OH246883   5.726   5.808   5.310  0.0442  0.2130  0.3589
 7563TIP3    H146884   5.664   5.742   5.281 -0.3923  0.2740  1.1392
 7563TIP3    H246885   5.673   5.886   5.325  0.1468  0.0042  1.9254
 7564TIP3   OH246886   1.506   0.233   4.864 -0.2729 -0.5278  0.5806
 7564TIP3    H146887   1.534   0.168   4.800 -1.6313  0.2612 -0.8878
 7564TIP3    H246888   1.560   0.216   4.941  2.0311 -0.9909 -1.0341
 7565TIP3   OH246889   0.541   1.741   4.884  0.0904 -0.3650 -0.8427
 7565TIP3    H146890   0.451   1.723   4.910 -0.6804  3.4361 -0.1804
 7565TIP3    H246891   0.533   1.773   4.794  0.5162  1.2178 -0.3490
 7566TIP3   OH246892   0.150   7.376   6.507 -0.3413 -0.0540  0.8977
 7566TIP3    H146893   0.117   7.373   6.596  0.0583  0.9547  1.0954
 7566TIP3    H246894   0.176   7.286   6.487 -0.6349 -0.3239  1.7134
 7567TIP3   OH246895   1.487   6.135   5.308  0.5397  0.0074 -0.3723
 7567TIP3    H146896   1.462   6.117   5.218  1.7247  0.7130 -0.8664
 7567TIP3    H246897   1.527   6.053   5.338  1.9951  0.3871 -1.1841
 7568TIP3   OH246898   3.021   4.293   6.572  0.2629 -1.1131 -0.7705
 7568TIP3    H146899   3.026   4.210   6.524  3.7760 -1.4060 -0.1948
 7568TIP3    H246900   3.023   4.268   6.664 -0.5114 -0.4067 -0.5486
 7569TIP3   OH246901   3.973   1.099   5.311 -0.1077 -0.6179  0.3422
 7569TIP3    H146902   3.993   1.172   5.252 -0.5908 -1.9112 -1.5077
 7569TIP3    H246903   4.039   1.105   5.380 -2.2784  3.7885  2.5087
 7570TIP3   OH246904   6.814   7.527   6.526  0.2829 -0.0377 -0.4853
 7570TIP3    H146905   6.795   7.549   6.434 -2.3768 -0.6019 -0.1488
 7570TIP3    H246906   6.851   7.607   6.562 -0.1813  0.7378 -1.6492
 7571TIP3   OH246907   0.224   2.366   4.795 -0.1365 -0.2519  0.0656
 7571TIP3    H146908   0.139   2.322   4.803 -0.1056 -0.0608  1.8680
 7571TIP3    H246909   0.208   2.456   4.823  0.2184  0.4366 -1.7475
 7572TIP3   OH246910   7.342   1.586   6.261  0.1218  0.0576 -0.2607
 7572TIP3    H146911   7.409   1.582   6.192  0.0517 -0.8900 -0.2859
 7572TIP3    H246912   7.381   1.644   6.328 -0.1888  1.7391 -1.4624
 7573TIP3   OH246913   7.000   4.544   5.535 -0.4017 -0.2649  0.1957
 7573TIP3    H146914   6.963   4.488   5.603 -1.4843  2.8933  2.4409
 7573TIP3    H246915   6.925   4.584   5.492  0.3108 -1.1210 -1.9791
 7574TIP3   OH246916   0.289   4.936   7.038  0.6094  0.2251 -0.1217
 7574TIP3    H146917   0.347   4.963   7.109  2.5928 -1.6710 -0.8983
 7574TIP3    H246918   0.251   5.017   7.005  0.6465  1.2730  2.2287
 7575TIP3   OH246919   6.374   0.354   6.087 -0.5671  0.2009  0.3037
 7575TIP3    H146920   6.303   0.307   6.044 -0.3756 -0.6002  0.8214
 7575TIP3    H246921   6.413   0.408   6.019 -0.1111 -1.2187 -0.6112
 7576TIP3   OH246922   3.191   1.699   6.927 -0.5366  0.8005  0.1217
 7576TIP3    H146923   3.193   1.782   6.975 -0.3796  0.6579  0.3627
 7576TIP3    H246924   3.282   1.683   6.903 -0.6446  0.9857 -0.4238
 7577TIP3   OH246925   7.508   7.510   6.861  0.6884 -0.4372 -0.5278
 7577TIP3    H146926   7.533   7.584   6.915  1.1054 -0.8801 -0.1025
 7577TIP3    H246927   7.477   7.549   6.779  1.2082  0.1834 -0.4328
 7578TIP3   OH246928   1.980   6.259   6.435 -0.3162 -0.3433 -0.2433
 7578TIP3    H146929   1.983   6.174   6.392 -0.9934 -0.7472  0.4702
 7578TIP3    H246930   2.072   6.287   6.440 -0.0719 -1.1051 -0.3533
 7579TIP3   OH246931   3.077   7.578   5.491  0.4884  0.0652 -0.4101
 7579TIP3    H146932   3.129   7.563   5.570  0.5000 -1.9858 -0.7393
 7579TIP3    H246933   3.007   7.636   5.518  0.4007 -0.7253  1.1638
 7580TIP3   OH246934   6.098   7.456   5.139 -0.2615 -0.1242 -0.1477
 7580TIP3    H146935   6.095   7.552   5.142  1.4852 -0.0629  0.4043
 7580TIP3    H246936   6.184   7.436   5.103  0.6441 -1.5137  2.5898
 7581TIP3   OH246937   1.462   5.842   6.068 -0.3612 -0.0365  0.5549
 7581TIP3    H146938   1.408   5.763   6.061  1.5126 -1.3382 -0.4112
 7581TIP3    H246939   1.537   5.814   6.121 -0.9000  1.9129  2.4834
 7582TIP3   OH246940   0.517   3.078   6.152 -0.2775  0.3243  0.5404
 7582TIP3    H146941   0.534   3.024   6.075  0.3049  1.2327  0.0089
 7582TIP3    H246942   0.428   3.110   6.140 -0.1685  0.5105  0.2016
 7583TIP3   OH246943   6.837   5.705   5.180 -0.8193  0.3836  0.2899
 7583TIP3    H146944   6.857   5.615   5.154  0.2505  0.4458  0.8501
 7583TIP3    H246945   6.878   5.759   5.113 -0.8343  0.4702  0.3503
 7584TIP3   OH246946   2.572   4.011   5.210 -0.2455  0.2731  0.1360
 7584TIP3    H146947   2.651   4.014   5.265 -0.2911 -0.8472  0.2831
 7584TIP3    H246948   2.502   4.045   5.267 -0.2369 -0.6147  0.7026
 7585TIP3   OH246949   4.135   6.133   5.773 -0.7666  0.2752 -0.1473
 7585TIP3    H146950   4.133   6.055   5.828 -1.2216  0.9482  0.8197
 7585TIP3    H246951   4.076   6.113   5.700 -0.6527 -0.3842 -0.0621
 7586TIP3   OH246952   1.809   7.383   6.058 -0.1687  0.2129  0.3852
 7586TIP3    H146953   1.877   7.353   5.998  0.5776  1.6465  0.4693
 7586TIP3    H246954   1.832   7.346   6.143 -0.1505 -0.2415  0.1857
 7587TIP3   OH246955   7.011   7.625   5.418  0.9005 -0.1934 -0.0683
 7587TIP3    H146956   7.044   7.560   5.481 -1.2497 -0.2937  1.0812
 7587TIP3    H246957   6.958   7.573   5.357  0.5611  0.2639 -0.1643
 7588TIP3   OH246958   3.041   3.133   5.213  0.1246 -0.0275 -0.0401
 7588TIP3    H146959   2.973   3.185   5.255  0.2902  0.6328 -0.5755
 7588TIP3    H246960   3.085   3.194   5.153 -2.3605 -1.6417 -3.9251
 7589TIP3   OH246961   3.995   5.310   7.204  0.3569  0.1259  0.1597
 7589TIP3    H146962   4.010   5.381   7.267 -1.9760  0.6895  0.1860
 7589TIP3    H246963   3.980   5.355   7.121  2.8166 -0.5882 -0.7565
 7590TIP3   OH246964   1.177   5.674   5.624  0.3371 -0.0964  0.2524
 7590TIP3    H146965   1.157   5.764   5.596 -0.8319 -1.3399 -3.4996
 7590TIP3    H246966   1.121   5.660   5.700  2.3056  2.9918  2.5203
 7591TIP3   OH246967   2.830   1.506   6.696  0.0678  0.4258 -0.2845
 7591TIP3    H146968   2.818   1.530   6.605 -1.1462 -1.0455 -0.5530
 7591TIP3    H246969   2.895   1.568   6.729  0.7179  0.8244 -2.1955
 7592TIP3   OH246970   0.446   2.584   4.747  0.0524 -0.0190 -0.2333
 7592TIP3    H146971   0.458   2.652   4.681 -0.1684  0.5819  0.3411
 7592TIP3    H246972   0.382   2.524   4.708  0.7486 -0.2738 -1.0160
 7593TIP3   OH246973   2.340   4.956   4.914  0.2015  0.2154 -0.1775
 7593TIP3    H146974   2.299   4.975   4.998  2.4479 -0.4777  1.1628
 7593TIP3    H246975   2.315   4.865   4.895  1.6250 -0.4759  1.0268
 7594TIP3   OH246976   4.035   5.104   5.555  0.6896  0.7158 -0.3107
 7594TIP3    H146977   4.031   5.179   5.496 -1.2847  0.4493 -0.5926
 7594TIP3    H246978   4.010   5.029   5.501 -0.6214  0.3862  0.6936
 7595TIP3   OH246979   0.803   1.120   6.738  0.0649  0.5372  0.0536
 7595TIP3    H146980   0.756   1.108   6.655 -3.4806  1.2991  1.7303
 7595TIP3    H246981   0.747   1.077   6.803  3.9508 -2.2996  1.9084
 7596TIP3   OH246982   4.554   6.128   6.153 -0.0567 -0.0022  0.5825
 7596TIP3    H146983   4.589   6.157   6.069  0.9869  1.4463  1.4707
 7596TIP3    H246984   4.498   6.053   6.131 -0.7636  1.0608 -1.5284
 7597TIP3   OH246985   2.413   0.431   6.292 -0.2401 -0.7193  0.1412
 7597TIP3    H146986   2.498   0.473   6.308 -1.2184  1.4668 -0.1023
 7597TIP3    H246987   2.415   0.352   6.346  1.2221  0.2488  1.5994
 7598TIP3   OH246988   0.902   5.180   6.727  0.6825 -0.1543  0.2726
 7598TIP3    H146989   0.947   5.253   6.685  1.2266 -1.7199 -1.9953
 7598TIP3    H246990   0.809   5.201   6.717  0.8196 -0.0880 -1.0239
 7599TIP3   OH246991   1.502   0.266   5.320  0.2307  0.1037 -0.1148
 7599TIP3    H146992   1.541   0.215   5.249  0.2795  0.0007 -0.0145
 7599TIP3    H246993   1.496   0.355   5.285 -1.8238 -0.3621 -1.0924
 7600TIP3   OH246994   1.300   0.740   5.562  0.3743  0.4563  0.3581
 7600TIP3    H146995   1.240   0.684   5.513  1.9884 -0.9031 -0.1890
 7600TIP3    H246996   1.332   0.683   5.632 -0.0421  1.6086  1.5212
 7601TIP3   OH246997   2.914   0.249   6.824  0.3020 -0.0871 -0.5547
 7601TIP3    H146998   2.933   0.313   6.893 -1.3645  1.2267 -1.2580
 7601TIP3    H246999   2.876   0.174   6.870  1.2408 -0.1392  0.1633
 7602TIP3   OH247000   4.086   2.011   5.884 -0.5616  0.1367 -0.0976
 7602TIP3    H147001   4.033   2.074   5.933 -0.0932  0.7728 -0.3891
 7602TIP3    H247002   4.172   2.013   5.927 -0.7990 -1.0042  0.4720
 7603TIP3   OH247003   2.940   5.399   5.116 -0.3538  0.4547  0.4263
 7603TIP3    H147004   2.899   5.326   5.162  1.3230  0.1630  1.5329
 7603TIP3    H247005   2.999   5.357   5.053  1.3970  0.7769  1.7715
 7604TIP3   OH247006   6.802   0.654   5.088 -0.2807  0.2333  0.6843
 7604TIP3    H147007   6.783   0.563   5.109 -2.4187  0.4626 -0.0505
 7604TIP3    H247008   6.747   0.705   5.148  0.1603  1.0211  0.4385
 7605TIP3   OH247009   6.764   4.875   5.681  0.3175 -0.1763  0.1132
 7605TIP3    H147010   6.818   4.819   5.737 -0.1559 -0.8336 -0.0694
 7605TIP3    H247011   6.738   4.948   5.737  1.4369  0.1849  0.1833
 7606TIP3   OH247012   1.024   0.441   6.880 -0.1453 -0.0083 -0.1040
 7606TIP3    H147013   1.027   0.537   6.887  0.3930 -0.0854  0.8462
 7606TIP3    H247014   0.937   0.423   6.843 -0.2403  0.8421 -0.3300
 7607TIP3   OH247015   5.603   2.743   5.708 -0.7990  0.0219  0.2297
 7607TIP3    H147016   5.642   2.700   5.785 -0.6361  0.6217  0.4927
 7607TIP3    H247017   5.509   2.737   5.723 -0.7809 -0.3185  0.2196
 7608TIP3   OH247018   6.808   4.320   6.016  0.7167 -0.3916 -0.7195
 7608TIP3    H147019   6.760   4.280   6.088 -2.2175  2.0431 -1.1415
 7608TIP3    H247020   6.742   4.336   5.948  2.5667  1.0710 -2.3237
 7609TIP3   OH247021   0.784   4.213   6.093 -0.3053 -0.2352 -0.0324
 7609TIP3    H147022   0.753   4.303   6.086 -1.6169 -0.7395 -1.5316
 7609TIP3    H247023   0.714   4.161   6.053 -0.0797 -2.0403  1.7544
 7610TIP3   OH247024   4.327   5.747   5.238 -0.0416  0.2473 -0.1037
 7610TIP3    H147025   4.376   5.824   5.209  0.2530  0.0909 -0.0215
 7610TIP3    H247026   4.392   5.677   5.242 -0.0002  0.3377  1.2785
 7611TIP3   OH247027   0.398   2.510   5.970  0.1949  0.1836  0.0896
 7611TIP3    H147028   0.356   2.427   5.946  0.7088  0.0406 -0.3432
 7611TIP3    H247029   0.380   2.521   6.063  0.2433 -0.4906  0.1820
 7612TIP3   OH247030   3.157   4.630   6.916 -0.1753  0.2687  0.0905
 7612TIP3    H147031   3.193   4.546   6.945  1.1430  0.0301 -1.9901
 7612TIP3    H247032   3.083   4.606   6.860 -0.0859  0.4850 -0.1253
 7613TIP3   OH247033   1.831   3.005   5.232  0.4927  0.1482  0.2856
 7613TIP3    H147034   1.858   3.036   5.319 -0.0378 -3.7586  2.0568
 7613TIP3    H247035   1.737   2.991   5.240  0.1925  0.9169 -1.4223
 7614TIP3   OH247036   0.429   4.839   7.415 -0.0084 -0.0277 -0.0034
 7614TIP3    H147037   0.432   4.878   7.327  2.2123  0.2125  0.1144
 7614TIP3    H247038   0.418   4.914   7.473 -0.0800 -0.0327 -0.0108
 7615TIP3   OH247039   2.969   1.359   4.744 -0.2342 -0.5092  0.0969
 7615TIP3    H147040   3.044   1.306   4.720  0.5064  0.2994  0.5753
 7615TIP3    H247041   2.943   1.325   4.830 -0.6974 -1.0740 -0.2582
 7616TIP3   OH247042   2.902   5.494   6.951 -0.0106  0.1206  0.3877
 7616TIP3    H147043   2.814   5.519   6.979 -0.7973 -2.4936  0.5005
 7616TIP3    H247044   2.951   5.484   7.033 -0.2851 -0.6173  0.4721
 7617TIP3   OH247045   1.219   2.534   7.437  0.4104 -0.1467  0.7272
 7617TIP3    H147046   1.125   2.529   7.454  0.2711  0.3593  0.1466
 7617TIP3    H247047   1.227   2.599   7.368  1.2044 -0.1030  0.8562
 7618TIP3   OH247048   6.520   1.686   7.472 -0.4948 -0.0301 -0.2640
 7618TIP3    H147049   6.521   1.775   7.509 -0.5589  0.1216 -0.6171
 7618TIP3    H247050   6.500   1.629   7.546  0.6845  0.1383  0.1897
 7619TIP3   OH247051   4.404   1.325   6.192 -0.0431 -0.5287  0.1375
 7619TIP3    H147052   4.448   1.241   6.207 -0.2428 -0.7158 -0.3257
 7619TIP3    H247053   4.468   1.390   6.221  0.0110 -0.8463  0.7589
 7620TIP3   OH247054   1.769   7.089   6.906 -0.6487 -0.3027 -0.7192
 7620TIP3    H147055   1.724   7.173   6.907  1.1136  0.7078  1.0734
 7620TIP3    H247056   1.732   7.041   6.981  1.6882  0.9061  1.3748
 7621TIP3   OH247057   5.982   1.894   7.214 -0.6007 -0.2340  0.2331
 7621TIP3    H147058   5.992   1.985   7.185 -1.8502  0.0057  0.5161
 7621TIP3    H247059   6.067   1.872   7.252 -0.5566  1.1250  0.9918
 7622TIP3   OH247060   0.952   5.459   6.702  0.2025  0.3822  0.5018
 7622TIP3    H147061   0.972   5.551   6.689 -2.2792  1.0311  0.9997
 7622TIP3    H247062   0.977   5.441   6.793  1.4059  0.3248  0.1775
 7623TIP3   OH247063   0.827   3.015   5.141  0.0168  0.4379  0.2630
 7623TIP3    H147064   0.839   2.931   5.186 -0.6855 -0.2512 -0.7782
 7623TIP3    H247065   0.757   3.058   5.190  0.2122  0.3109  0.6574
 7624TIP3   OH247066   7.357   1.214   5.557  0.6062 -0.0308  0.7933
 7624TIP3    H147067   7.322   1.233   5.470  0.9056  0.1013  0.7012
 7624TIP3    H247068   7.377   1.121   5.556 -0.2747 -0.2351  1.0357
 7625TIP3   OH247069   6.919   4.725   5.852  0.2238  0.0507  0.2551
 7625TIP3    H147070   6.946   4.634   5.863 -2.7285 -1.2016 -1.5588
 7625TIP3    H247071   6.938   4.766   5.936 -0.4115 -2.8327  1.9556
 7626TIP3   OH247072   1.686   7.569   5.666  0.3024 -0.3828  0.0202
 7626TIP3    H147073   1.769   7.579   5.712 -0.4008 -0.5530  1.3599
 7626TIP3    H247074   1.647   7.489   5.702 -0.1986 -0.6135 -0.9857
 7627TIP3   OH247075   4.882   6.215   6.406  0.4167  0.2152 -0.4804
 7627TIP3    H147076   4.860   6.294   6.456  2.0590  1.7666 -2.0674
 7627TIP3    H247077   4.807   6.201   6.349  0.1600  0.6811 -0.2637
 7628TIP3   OH247078   6.605   5.429   5.224  0.1492  0.0648  0.9906
 7628TIP3    H147079   6.641   5.479   5.297 -0.5458  0.6713  0.9371
 7628TIP3    H247080   6.550   5.492   5.177 -1.3548 -0.9186  1.3451
 7629TIP3   OH247081   3.886   2.291   5.758  0.1069  0.8031 -0.2355
 7629TIP3    H147082   3.827   2.216   5.761  2.2317 -0.9266  0.0797
 7629TIP3    H247083   3.865   2.341   5.837 -0.8904  0.2112 -0.1056
 7630TIP3   OH247084   3.519   0.354   6.225  0.4056  0.5756  0.1634
 7630TIP3    H147085   3.551   0.434   6.182  0.6260  0.1860 -0.4089
 7630TIP3    H247086   3.479   0.304   6.154  2.8129 -1.1428 -0.0772
 7631TIP3   OH247087   2.313   2.213   6.485 -0.1871  0.2121 -0.0725
 7631TIP3    H147088   2.378   2.270   6.526  0.4455 -0.9231  0.5739
 7631TIP3    H247089   2.364   2.148   6.438 -0.7330 -1.8559  2.0188
 7632TIP3   OH247090   5.100   3.764   6.456  0.5234  0.3886  0.2137
 7632TIP3    H147091   5.051   3.841   6.426  1.8417  0.8265 -0.9393
 7632TIP3    H247092   5.142   3.793   6.537  1.2499  1.0261 -0.3650
 7633TIP3   OH247093   6.388   4.369   6.278  0.5815  0.1472  0.2389
 7633TIP3    H147094   6.470   4.346   6.234  1.6366  1.0807  1.6365
 7633TIP3    H247095   6.411   4.443   6.334 -1.8596  2.3372 -1.4429
 7634TIP3   OH247096   4.161   5.982   6.228 -0.2310 -0.4412  0.2100
 7634TIP3    H147097   4.187   6.051   6.167 -1.7608 -0.6910 -0.7907
 7634TIP3    H247098   4.221   5.910   6.210  1.1732  0.4772  1.0444
 7635TIP3   OH247099   6.399   6.318   5.876 -0.6297  0.1503 -0.0688
 7635TIP3    H147100   6.342   6.395   5.882 -0.1913  0.4987 -0.3791
 7635TIP3    H247101   6.423   6.299   5.967 -1.5084 -0.2042  0.0975
 7636TIP3   OH247102   2.238   0.433   7.218  0.3518  0.7967  0.1396
 7636TIP3    H147103   2.235   0.390   7.304  3.2129 -0.0538 -0.0953
 7636TIP3    H247104   2.195   0.371   7.159  1.3506 -0.2082  0.4197
 7637TIP3   OH247105   1.726   1.499   7.171 -0.1177  0.2509  0.1648
 7637TIP3    H147106   1.648   1.553   7.184 -0.0027  0.4576  0.0157
 7637TIP3    H247107   1.768   1.496   7.258 -0.0151  0.5768  0.1283
 7638TIP3   OH247108   0.530   5.575   5.211  0.1524 -0.7365  0.7434
 7638TIP3    H147109   0.609   5.609   5.168  0.5984 -2.0314  0.4912
 7638TIP3    H247110   0.553   5.572   5.304  0.0634 -0.2322  0.7829
 7639TIP3   OH247111   7.454   4.751   5.812 -0.3103  0.1566 -0.0506
 7639TIP3    H147112   7.376   4.730   5.761 -0.9986  1.3013  0.4855
 7639TIP3    H247113   7.461   4.846   5.807  0.8029  0.1107  0.2907
 7640TIP3   OH247114   0.621   2.275   5.481  0.1974 -0.4626 -0.2717
 7640TIP3    H147115   0.701   2.303   5.437  0.5343 -1.4622 -0.3061
 7640TIP3    H247116   0.639   2.292   5.574 -0.1358  0.7082 -0.4010
 7641TIP3   OH247117   7.446   2.738   4.727  0.1981  0.4416 -0.7608
 7641TIP3    H147118   7.494   2.733   4.810 -1.4170 -4.7363  0.2529
 7641TIP3    H247119   7.357   2.765   4.753 -0.1863 -0.7397 -0.7711
 7642TIP3   OH247120   0.757   6.989   7.098  0.4510  0.0146 -0.1547
 7642TIP3    H147121   0.747   6.988   7.193  2.4103 -0.0483  0.0829
 7642TIP3    H247122   0.847   7.019   7.084  0.9354 -2.0903 -1.9256
 7643TIP3   OH247123   6.838   4.429   5.180  0.1413  0.1942 -0.4380
 7643TIP3    H147124   6.835   4.524   5.166  0.8480  0.2944  0.0135
 7643TIP3    H247125   6.812   4.417   5.272 -0.4410 -0.0980 -0.6347
 7644TIP3   OH247126   7.674   6.906   6.509 -0.3850  0.0034 -0.8301
 7644TIP3    H147127   7.750   6.853   6.533 -2.0272 -2.0114  0.1761
 7644TIP3    H247128   7.669   6.973   6.577  0.5142  0.1930 -0.9418
 7645TIP3   OH247129   1.513   3.519   6.752  0.0566 -0.5583  0.1504
 7645TIP3    H147130   1.569   3.443   6.733  0.1873 -0.9778  1.9802
 7645TIP3    H247131   1.425   3.482   6.760 -0.0445 -0.3485  0.0031
 7646TIP3   OH247132   5.013   5.080   6.409  0.1833  0.0158  0.4781
 7646TIP3    H147133   5.091   5.064   6.462 -0.3690  0.4392  1.4375
 7646TIP3    H247134   4.956   5.132   6.465  0.0619  1.4926 -0.9622
 7647TIP3   OH247135   5.152   2.081   6.804  0.8627 -0.2572  0.3717
 7647TIP3    H147136   5.134   2.080   6.710  0.1486 -2.0453  0.4806
 7647TIP3    H247137   5.196   2.164   6.819  0.6386  0.2466 -1.4749
 7648TIP3   OH247138   0.040   1.672   6.776 -0.9068 -0.3303  0.3725
 7648TIP3    H147139   0.065   1.597   6.722  0.6739  1.2285 -1.2064
 7648TIP3    H247140  -0.049   1.693   6.749 -0.9588 -0.9645  0.0425
 7649TIP3   OH247141   2.841   2.726   5.759 -0.4701  0.0515  0.0600
 7649TIP3    H147142   2.786   2.710   5.836  0.0263 -2.9363 -0.0598
 7649TIP3    H247143   2.926   2.690   5.784 -0.3173 -1.0232 -1.8530
 7650TIP3   OH247144   6.499   5.577   6.476  0.4399 -0.2536  0.2368
 7650TIP3    H147145   6.458   5.656   6.442  0.0606 -0.4023  0.3405
 7650TIP3    H247146   6.593   5.591   6.465  0.4543  0.7644  1.4187
 7651TIP3   OH247147   5.520   3.540   6.366 -0.7714  0.8054  0.2469
 7651TIP3    H147148   5.566   3.560   6.448 -0.2850  2.6363 -0.4265
 7651TIP3    H247149   5.435   3.507   6.394 -1.1667  2.7749  1.5308
 7652TIP3   OH247150   4.891   2.794   6.702 -0.1416 -0.4193  0.0736
 7652TIP3    H147151   4.972   2.830   6.666 -0.2800  0.1624  0.3316
 7652TIP3    H247152   4.840   2.768   6.625 -0.0596 -0.0151 -0.1191
 7653TIP3   OH247153   3.390   6.439   6.768 -0.1861  0.0962  0.0676
 7653TIP3    H147154   3.340   6.400   6.839 -1.5680  0.3194 -0.7562
 7653TIP3    H247155   3.368   6.387   6.691 -1.7372  2.1352 -0.9782
 7654TIP3   OH247156   0.315   4.860   6.209  0.0108 -0.0386  0.4579
 7654TIP3    H147157   0.375   4.902   6.146 -0.1956  1.4865  1.2283
 7654TIP3    H247158   0.307   4.924   6.280 -0.9339 -1.0987  1.3348
 7655TIP3   OH247159   1.985   2.624   6.179  0.4167 -0.2866 -0.4109
 7655TIP3    H147160   2.069   2.624   6.223  0.4805  0.2884 -0.5311
 7655TIP3    H247161   1.973   2.713   6.148 -0.5133 -0.2033  0.1286
 7656TIP3   OH247162   7.616   3.667   4.440  0.1500 -0.1043  0.2930
 7656TIP3    H147163   7.534   3.708   4.466 -0.4088 -0.3728 -0.9493
 7656TIP3    H247164   7.646   3.719   4.365  0.4287 -0.7816 -0.0801
 7657TIP3   OH247165   0.971   4.637   6.926 -0.0528  0.4833  0.1193
 7657TIP3    H147166   0.888   4.589   6.927  1.3507 -2.1509  1.6966
 7657TIP3    H247167   0.947   4.726   6.902 -3.1470 -0.4713 -0.7892
 7658TIP3   OH247168   2.306   3.836   4.589  0.7314 -0.3012  0.2176
 7658TIP3    H147169   2.214   3.849   4.565  0.6776  0.6481  0.9258
 7658TIP3    H247170   2.315   3.878   4.674  2.1742  0.8989 -0.4958
 7659TIP3   OH247171   1.863   5.258   7.219  0.3600  0.1807 -0.0785
 7659TIP3    H147172   1.850   5.352   7.208 -0.1183  0.6192  3.2531
 7659TIP3    H247173   1.783   5.219   7.185  0.5725  0.9311 -1.5228
 7660TIP3   OH247174   4.604   3.249   6.077 -0.6473 -0.2506  0.3926
 7660TIP3    H147175   4.538   3.209   6.134 -0.9975  0.3230  0.3865
 7660TIP3    H247176   4.587   3.343   6.082 -0.3233 -0.1576 -0.2210
 7661TIP3   OH247177   7.607   3.414   5.854 -0.0730  0.7500 -0.6045
 7661TIP3    H147178   7.552   3.340   5.881  1.1243  0.1524  0.3223
 7661TIP3    H247179   7.556   3.459   5.787 -1.1519 -0.4903 -0.6580
 7662TIP3   OH247180   0.041   3.375   6.219  0.7238 -0.0949  0.0784
 7662TIP3    H147181  -0.013   3.445   6.180  1.0209  0.9295  1.4303
 7662TIP3    H247182  -0.019   3.301   6.229  0.4255 -0.0936 -1.4707
 7663TIP3   OH247183   6.790   6.254   4.670  0.0318 -0.1595 -0.1284
 7663TIP3    H147184   6.721   6.307   4.629  0.2705 -0.2881 -0.6965
 7663TIP3    H247185   6.742   6.182   4.711 -0.2887  0.4478  0.5861
 7664TIP3   OH247186   3.438   5.940   4.902 -0.2304  0.0904  0.0139
 7664TIP3    H147187   3.360   5.897   4.867 -1.1957  1.4583  0.4491
 7664TIP3    H247188   3.412   6.030   4.917  1.7358  0.8718 -0.8385
 7665TIP3   OH247189   6.504   3.903   6.799 -0.0487 -0.2472  0.3185
 7665TIP3    H147190   6.492   3.868   6.711  0.2813  0.9472 -0.2245
 7665TIP3    H247191   6.416   3.901   6.838 -0.0976 -1.2755  0.1637
 7666TIP3   OH247192   2.145   1.391   7.387  0.2060  0.0174 -0.7379
 7666TIP3    H147193   2.070   1.335   7.408 -0.3807 -0.1746 -3.1155
 7666TIP3    H247194   2.120   1.478   7.419  0.4461 -0.6797  1.5215
 7667TIP3   OH247195   3.228   4.876   6.803  0.2415  0.2921  0.3495
 7667TIP3    H147196   3.227   4.781   6.812 -0.4205  0.1660 -0.8498
 7667TIP3    H247197   3.145   4.897   6.760  0.4659  1.3947  0.4176
 7668TIP3   OH247198   4.219   7.250   5.799 -0.1078 -0.0564 -0.4593
 7668TIP3    H147199   4.190   7.311   5.867 -1.2320  0.0191 -0.9836
 7668TIP3    H247200   4.209   7.163   5.838 -0.7569 -0.0136 -0.5189
 7669TIP3   OH247201   5.338   2.850   5.844 -0.2765 -0.4708 -0.6506
 7669TIP3    H147202   5.318   2.861   5.751 -0.1533 -0.4137 -0.6715
 7669TIP3    H247203   5.340   2.755   5.857 -2.2221 -0.4869 -0.2753
 7670TIP3   OH247204   1.856   3.388   6.742 -0.4772 -0.1208  0.2934
 7670TIP3    H147205   1.905   3.319   6.788 -1.1981 -1.1645 -0.4621
 7670TIP3    H247206   1.913   3.464   6.746  0.2223 -0.6760  1.4051
 7671TIP3   OH247207   5.779   7.165   5.430 -0.1537 -0.2179 -0.0492
 7671TIP3    H147208   5.850   7.182   5.368 -2.2981  0.4637 -2.4842
 7671TIP3    H247209   5.821   7.170   5.516  3.3144 -2.7814 -1.3526
 7672TIP3   OH247210   2.543   0.081   4.876 -0.1017 -0.0567  0.4430
 7672TIP3    H147211   2.468   0.027   4.902 -0.0088 -0.2504  0.3083
 7672TIP3    H247212   2.615   0.049   4.929 -0.3105  0.7133  1.2064
 7673TIP3   OH247213   3.236   5.767   6.467 -0.0878  1.3576 -0.6067
 7673TIP3    H147214   3.303   5.835   6.477  0.7936  0.5383 -0.7689
 7673TIP3    H247215   3.274   5.690   6.509 -1.2794  1.0809  0.0091
 7674TIP3   OH247216   6.757   3.896   5.251 -0.0814  0.5582 -0.1578
 7674TIP3    H147217   6.820   3.910   5.321  1.0453 -0.2285 -0.9765
 7674TIP3    H247218   6.809   3.863   5.178 -1.3396  0.5904 -1.1064
 7675TIP3   OH247219   1.408   6.888   5.622 -0.5878  0.2071 -0.1302
 7675TIP3    H147220   1.412   6.926   5.710 -0.0249  1.1661 -0.5487
 7675TIP3    H247221   1.315   6.886   5.601 -0.6761  0.7664  0.1705
 7676TIP3   OH247222   4.797   1.114   6.390 -0.3852  0.7084  0.1157
 7676TIP3    H147223   4.724   1.119   6.329 -0.4734  0.8962  0.2362
 7676TIP3    H247224   4.774   1.042   6.449 -0.0973  0.2405 -0.3346
 7677TIP3   OH247225   1.040   7.254   7.372 -0.1893 -0.8716  0.2247
 7677TIP3    H147226   0.992   7.188   7.322 -1.2408  0.8440 -1.1153
 7677TIP3    H247227   0.982   7.330   7.375  1.0548  0.0895  1.5710
 7678TIP3   OH247228   7.398   2.459   4.651  0.1818 -0.1906  0.6425
 7678TIP3    H147229   7.425   2.551   4.656  1.7550 -0.6512  1.3250
 7678TIP3    H247230   7.481   2.411   4.643 -0.5612 -1.6161  1.3124
 7679TIP3   OH247231   5.810   1.853   7.415  0.6936 -0.0138 -0.0440
 7679TIP3    H147232   5.836   1.763   7.434 -0.0169 -0.2934 -0.3719
 7679TIP3    H247233   5.856   1.874   7.333  2.0271  0.4422  0.7981
 7680TIP3   OH247234   6.903   3.719   4.635 -0.5561 -0.2777  0.0071
 7680TIP3    H147235   6.844   3.683   4.701  0.5196  0.5426  1.4654
 7680TIP3    H247236   6.939   3.642   4.590 -1.7422 -0.8220 -0.0321
 7681TIP3   OH247237   1.607   6.351   6.150  0.1484 -0.1698 -0.1094
 7681TIP3    H147238   1.522   6.310   6.159  0.6571 -1.6101 -1.3976
 7681TIP3    H247239   1.588   6.440   6.122 -0.9526  0.0853  1.3682
 7682TIP3   OH247240   6.195   2.780   5.671 -0.1434 -0.3541  0.0519
 7682TIP3    H147241   6.118   2.734   5.636  0.1595 -0.3552 -0.6343
 7682TIP3    H247242   6.261   2.770   5.602  0.4167 -0.2086  0.5663
 7683TIP3   OH247243   5.983   5.421   5.586  0.1140  0.2050  0.4652
 7683TIP3    H147244   6.060   5.366   5.570  0.9299  1.6580 -0.9716
 7683TIP3    H247245   5.924   5.366   5.637  1.4043 -1.5411  0.1655
 7684TIP3   OH247246   7.518   3.896   4.570 -0.1293 -0.5571 -0.2869
 7684TIP3    H147247   7.427   3.923   4.568 -0.2058 -0.8590 -1.0568
 7684TIP3    H247248   7.517   3.809   4.610 -0.2641 -0.8807 -0.9911
 7685TIP3   OH247249   1.057   6.560   6.539  0.0158 -0.1224  0.0815
 7685TIP3    H147250   1.037   6.639   6.488  0.0448 -0.4810 -0.4866
 7685TIP3    H247251   1.078   6.493   6.474  0.0413 -0.5924  0.5634
 7686TIP3   OH247252   1.001   3.660   4.862  0.3229  0.0363  0.3461
 7686TIP3    H147253   0.967   3.571   4.875 -1.9271  0.8814  0.7768
 7686TIP3    H247254   1.071   3.668   4.926  1.2071 -1.7133 -0.3273
 7687TIP3   OH247255   7.324   2.087   7.432 -0.2097 -0.1015  0.1731
 7687TIP3    H147256   7.273   2.052   7.359 -1.1847  2.1655 -0.3380
 7687TIP3    H247257   7.267   2.076   7.508 -0.5542  0.4529 -0.0022
 7688TIP3   OH247258   7.202   4.614   4.923  0.0001 -0.7867  0.3403
 7688TIP3    H147259   7.271   4.676   4.947 -1.3072  0.5271  0.8540
 7688TIP3    H247260   7.210   4.604   4.828 -0.2065  0.7728  0.1307
 7689TIP3   OH247261   2.743   0.254   6.519  0.2476  0.7282  0.2991
 7689TIP3    H147262   2.676   0.210   6.572 -1.1640  1.8023 -0.5252
 7689TIP3    H247263   2.779   0.321   6.577  1.1458 -0.3110  0.9769
 7690TIP3   OH247264   3.729   4.793   5.666  0.5906 -0.7847 -0.8544
 7690TIP3    H147265   3.823   4.778   5.674  0.6352 -1.1199 -1.8527
 7690TIP3    H247266   3.689   4.729   5.724  0.9562 -1.3368 -1.1996
 7691TIP3   OH247267   0.214   6.280   5.653 -0.0609  0.3378 -0.4684
 7691TIP3    H147268   0.245   6.237   5.732  0.1065  0.0292 -0.6996
 7691TIP3    H247269   0.283   6.342   5.631 -0.1563  0.4998 -0.3140
 7692TIP3   OH247270   1.156   5.632   5.286  0.4747 -0.4895  0.4626
 7692TIP3    H147271   1.209   5.693   5.234 -1.2566  0.6562 -0.0431
 7692TIP3    H247272   1.174   5.656   5.377 -0.3999  1.0399  0.2715
 7693TIP3   OH247273   5.235   3.613  11.441 -0.2447 -0.0676  0.4289
 7693TIP3    H147274   5.205   3.554  11.371 -1.4568 -0.9570  1.6294
 7693TIP3    H247275   5.321   3.579  11.465 -1.7666 -2.9190  2.5812
 7694TIP3   OH247276   5.059   4.810   7.071  0.2404 -0.4414  0.8488
 7694TIP3    H147277   5.058   4.723   7.031  0.1221  0.0667 -0.2732
 7694TIP3    H247278   4.966   4.833   7.079  0.2912  0.4347 -0.7816
 7695TIP3   OH247279   1.910   5.602   6.465  0.1209 -0.2906 -0.4979
 7695TIP3    H147280   1.984   5.603   6.526 -0.2106  0.0170 -0.1002
 7695TIP3    H247281   1.871   5.688   6.473  0.9683  0.3183 -2.2645
 7696TIP3   OH247282   2.721   6.373   4.927 -0.6155  0.6365  0.0364
 7696TIP3    H147283   2.687   6.290   4.894 -1.6710  0.6665  0.9933
 7696TIP3    H247284   2.665   6.440   4.886 -0.3956  0.8134  0.0233
 7697TIP3   OH247285   2.628   5.930   6.712 -1.2703  0.8462  0.5958
 7697TIP3    H147286   2.698   5.978   6.758 -1.7353  1.1814  0.9638
 7697TIP3    H247287   2.596   5.991   6.646 -1.7783  1.0086  0.9822
 7698TIP3   OH247288   1.966   1.565   5.513  0.7548 -0.2341  0.1908
 7698TIP3    H147289   1.946   1.533   5.425  0.4307  0.0972  0.1432
 7698TIP3    H247290   1.915   1.646   5.522 -0.4786 -1.0765  1.2541
 7699TIP3   OH247291   4.720   0.966   5.472  0.6587 -0.0948  0.2033
 7699TIP3    H147292   4.799   0.913   5.466  1.0329  0.3612  0.9368
 7699TIP3    H247293   4.752   1.056   5.476  0.0189  0.2247 -1.3765
 7700TIP3   OH247294   0.737   4.202   6.402  0.1285  0.5094  0.3636
 7700TIP3    H147295   0.774   4.200   6.314 -0.6936  2.5796 -0.0866
 7700TIP3    H247296   0.812   4.193   6.461  0.5614 -2.4771 -0.4487
 7701TIP3   OH247297   7.172   4.273   5.853  0.4486  0.2628 -0.2682
 7701TIP3    H147298   7.217   4.285   5.937  0.5553  1.7836 -0.5277
 7701TIP3    H247299   7.242   4.249   5.792  0.8267  1.8116 -0.4882
 7702TIP3   OH247300   4.872   0.405   5.345 -0.1376  0.1001  0.0356
 7702TIP3    H147301   4.875   0.496   5.374 -0.2587  0.1939 -0.2329
 7702TIP3    H247302   4.800   0.404   5.281 -2.2538 -0.8320  2.2615
 7703TIP3   OH247303   2.921   3.798   6.928  0.3553  0.6719 -0.2612
 7703TIP3    H147304   3.004   3.807   6.975 -0.3140 -0.4780  1.2410
 7703TIP3    H247305   2.861   3.855   6.976 -0.6493 -1.4484  1.1878
 7704TIP3   OH247306   4.175   4.335   5.038  0.7857 -0.5158  0.0663
 7704TIP3    H147307   4.208   4.412   4.992  0.6901 -0.2386  0.4533
 7704TIP3    H247308   4.080   4.338   5.023  0.8012 -0.6560 -0.0619
 7705TIP3   OH247309   3.301   6.810   5.367  0.0913 -0.3186  0.2025
 7705TIP3    H147310   3.256   6.823   5.284  1.4409 -0.2634 -0.5561
 7705TIP3    H247311   3.261   6.731   5.404 -0.7274 -0.1781 -0.3613
 7706TIP3   OH247312   5.427   3.246   6.679  0.3277 -0.2249  0.1142
 7706TIP3    H147313   5.407   3.320   6.736  1.0387  0.1754 -0.1408
 7706TIP3    H247314   5.342   3.218   6.644  0.2131  1.6411 -1.2133
 7707TIP3   OH247315   7.102   3.525   4.497 -0.4182  0.3858 -0.3134
 7707TIP3    H147316   7.092   3.504   4.405  0.7946  1.1480 -0.6422
 7707TIP3    H247317   7.079   3.445   4.543  1.1560 -0.7536 -1.3952
 7708TIP3   OH247318   6.932   1.163   6.777  0.0021  0.1674 -0.5485
 7708TIP3    H147319   6.936   1.253   6.809 -0.9591  0.2720 -0.6910
 7708TIP3    H247320   6.873   1.167   6.702  0.7173 -0.4150 -1.1579
 7709TIP3   OH247321   0.987   3.924   4.924 -0.3570 -0.7807 -0.1449
 7709TIP3    H147322   0.965   3.830   4.920 -0.6078 -0.6899 -0.9464
 7709TIP3    H247323   1.075   3.930   4.888 -0.2992 -0.7168  0.0055
 7710TIP3   OH247324   3.124   4.983   5.501 -0.1867 -0.2588 -0.1611
 7710TIP3    H147325   3.100   4.891   5.514  0.4802 -0.3147  0.7924
 7710TIP3    H247326   3.149   5.013   5.588  2.3730  0.0114 -0.9212
 7711TIP3   OH247327   5.346   7.347   6.316  0.0580 -0.1659 -0.4625
 7711TIP3    H147328   5.397   7.428   6.314  1.1628 -0.8420 -1.5490
 7711TIP3    H247329   5.379   7.299   6.392 -0.0650  0.0632 -0.2618
 7712TIP3   OH247330   3.952   4.037   5.970 -0.3426 -0.5373 -0.0967
 7712TIP3    H147331   3.982   4.125   5.951 -0.8643 -0.1678  0.7094
 7712TIP3    H247332   3.945   3.994   5.885 -2.2138  0.8932 -0.7119
 7713TIP3   OH247333   6.656   7.677   7.001 -0.5491  0.3387  0.4632
 7713TIP3    H147334   6.708   7.650   7.077 -2.2326 -1.6168  1.0460
 7713TIP3    H247335   6.707   7.651   6.925  0.4300  0.7935  0.9548
 7714TIP3   OH247336   3.709   5.421   4.851 -0.0396  0.3232  0.0639
 7714TIP3    H147337   3.623   5.421   4.892 -0.3339 -1.3769 -0.4576
 7714TIP3    H247338   3.759   5.355   4.899 -0.0104 -0.8436 -1.4701
 7715TIP3   OH247339   3.554   2.286   5.942 -0.5157 -0.4960  0.2688
 7715TIP3    H147340   3.522   2.350   5.879 -1.2916 -1.1412 -0.0100
 7715TIP3    H247341   3.564   2.205   5.891  3.8076  0.1454 -0.2588
 7716TIP3   OH247342   0.728   6.813   6.485 -0.6062  0.5360 -0.0004
 7716TIP3    H147343   0.682   6.845   6.563  0.1414 -1.3800  1.2854
 7716TIP3    H247344   0.816   6.852   6.491  0.3898 -1.7892  1.7041
 7717TIP3   OH247345   7.469   4.324   5.526 -0.0414  0.3241  0.0557
 7717TIP3    H147346   7.529   4.398   5.532  0.5295 -0.2268  1.3982
 7717TIP3    H247347   7.526   4.247   5.526 -0.7287 -0.2323  1.9020
 7718TIP3   OH247348   3.792   0.832   5.824 -0.0796  0.0820 -0.3351
 7718TIP3    H147349   3.711   0.790   5.798  0.2642 -0.1849 -0.9920
 7718TIP3    H247350   3.776   0.926   5.814 -0.8483  0.1269  1.1326
 7719TIP3   OH247351   6.050   7.519   6.328 -0.6465  0.7659  0.0975
 7719TIP3    H147352   6.070   7.612   6.313  2.4539  0.9530  3.8931
 7719TIP3    H247353   6.130   7.483   6.366 -1.7681 -3.5455 -1.1010
 7720TIP3   OH247354   5.166   4.129   6.862  0.4852  0.2748 -0.2038
 7720TIP3    H147355   5.105   4.165   6.927 -1.4768 -0.1751 -1.7141
 7720TIP3    H247356   5.157   4.034   6.871  1.7842  0.1730  0.2451
 7721TIP3   OH247357   1.197   2.975   6.892 -0.3474 -0.0812 -0.5567
 7721TIP3    H147358   1.205   2.960   6.798  1.4775 -0.0692 -0.4356
 7721TIP3    H247359   1.282   2.950   6.928 -0.8345  0.4010  1.0311
 7722TIP3   OH247360   3.419   5.955   5.471  0.1906 -0.0301 -0.6744
 7722TIP3    H147361   3.340   5.969   5.523  0.6798  1.5053 -0.2819
 7722TIP3    H247362   3.387   5.944   5.381 -0.5070 -0.1367 -0.4182
 7723TIP3   OH247363   1.417   3.396   7.134 -0.0376 -0.3956 -0.2855
 7723TIP3    H147364   1.362   3.470   7.108  1.3452  0.2490 -1.4847
 7723TIP3    H247365   1.356   3.322   7.138 -1.0557  0.3528 -1.2596
 7724TIP3   OH247366   1.314   7.249   4.811  0.0420  0.1061  0.0459
 7724TIP3    H147367   1.404   7.269   4.839  0.4118  1.2591 -1.7917
 7724TIP3    H247368   1.273   7.335   4.804 -1.4182 -0.4439  1.4313
 7725TIP3   OH247369   3.359   0.763   5.440 -0.1092  0.0040  0.0268
 7725TIP3    H147370   3.267   0.747   5.422 -0.2563  1.4009 -0.5935
 7725TIP3    H247371   3.405   0.721   5.366 -0.2839 -0.1037 -0.0214
 7726TIP3   OH247372   0.111   1.800   6.483  0.3193 -0.4318  0.0316
 7726TIP3    H147373   0.133   1.720   6.531 -1.2645 -1.5421 -0.9971
 7726TIP3    H247374   0.044   1.773   6.420 -1.1418  1.9620  0.4322
 7727TIP3   OH247375   7.675   0.875   5.159  0.3238  0.0296  0.2682
 7727TIP3    H147376   7.683   0.856   5.253  1.9121  1.4362  0.4826
 7727TIP3    H247377   7.670   0.789   5.117 -1.9577 -0.6323  1.6945
 7728TIP3   OH247378   3.367   7.408   5.414  0.3421 -0.2779  0.2781
 7728TIP3    H147379   3.432   7.476   5.394  1.2895 -0.9929  0.8488
 7728TIP3    H247380   3.418   7.335   5.448 -0.8305 -0.5060  1.6936
 7729TIP3   OH247381   5.546   4.671   7.317 -0.6185 -0.0832 -0.5309
 7729TIP3    H147382   5.583   4.672   7.228 -1.3614 -2.5813 -0.9710
 7729TIP3    H247383   5.472   4.731   7.313  1.2040  2.3111 -0.6133
 7730TIP3   OH247384   5.004   0.401   6.257  0.5542  0.2568 -0.1560
 7730TIP3    H147385   4.962   0.480   6.289  0.4572  0.1867 -0.1079
 7730TIP3    H247386   5.050   0.428   6.178  0.4915  0.3525 -0.1596
 7731TIP3   OH247387   4.645   3.982   5.324 -0.1643  0.3807  0.1180
 7731TIP3    H147388   4.702   3.931   5.267 -0.1017 -0.2961  0.7792
 7731TIP3    H247389   4.691   3.985   5.408 -0.6776  0.6021  0.3966
 7732TIP3   OH247390   5.734   3.955   5.357  0.2013 -0.0583  0.2494
 7732TIP3    H147391   5.653   3.986   5.317  0.5224  0.0615 -0.3202
 7732TIP3    H247392   5.791   4.032   5.358  1.1463 -0.6891 -1.5226
 7733TIP3   OH247393   4.562   5.020   6.367  0.1724 -0.8198  0.4806
 7733TIP3    H147394   4.483   4.975   6.396 -0.0087 -1.7981 -1.3502
 7733TIP3    H247395   4.601   4.961   6.302  0.8629  0.9139 -0.7637
 7734TIP3   OH247396   2.850   6.076   6.849 -0.8220 -0.6292 -0.0569
 7734TIP3    H147397   2.897   6.096   6.768 -1.9139  1.1422 -0.3053
 7734TIP3    H247398   2.916   6.083   6.918 -0.1265 -1.0595 -0.6615
 7735TIP3   OH247399   6.504   1.696   5.404  0.1993  0.3020  0.3774
 7735TIP3    H147400   6.507   1.774   5.459 -0.1402  0.3776  0.2912
 7735TIP3    H247401   6.541   1.724   5.321  0.2362  0.3282  0.4031
 7736TIP3   OH247402   0.813   0.232   7.472  0.2852  0.0181 -0.6172
 7736TIP3    H147403   0.797   0.276   7.389 -0.6676 -0.1314 -0.5293
 7736TIP3    H247404   0.807   0.138   7.450  2.4255 -0.1276 -0.8332
 7737TIP3   OH247405   4.284   0.576   6.275 -0.0641 -0.2000 -0.0650
 7737TIP3    H147406   4.299   0.514   6.347  0.0105 -2.6454 -2.0426
 7737TIP3    H247407   4.194   0.605   6.287 -0.5286 -1.6859  0.2635
 7738TIP3   OH247408   1.110   5.598   5.882  0.0990  0.0036  0.0357
 7738TIP3    H147409   1.099   5.514   5.838 -1.1945  1.0174 -1.7087
 7738TIP3    H247410   1.183   5.584   5.942  0.3308 -2.1715 -0.6546
 7739TIP3   OH247411   5.675   0.580   6.325  0.3518 -0.2402 -0.6499
 7739TIP3    H147412   5.621   0.516   6.370 -0.8510 -0.3936 -2.2101
 7739TIP3    H247413   5.615   0.625   6.266  1.2832  1.9114 -0.0639
 7740TIP3   OH247414   0.498   0.102   5.748 -0.4132  0.2571  0.3136
 7740TIP3    H147415   0.465   0.013   5.733  1.2167 -0.6197  1.5877
 7740TIP3    H247416   0.458   0.128   5.831  1.3351 -0.5003  1.4563
 7741TIP3   OH247417   5.980   5.778   5.328  0.4801  0.6043 -0.1952
 7741TIP3    H147418   5.893   5.786   5.290  0.6658  1.6832 -0.4304
 7741TIP3    H247419   6.040   5.798   5.256  0.8453  2.5140  0.5699
 7742TIP3   OH247420   3.099   1.629   4.936  0.1379  0.1265  0.8111
 7742TIP3    H147421   3.023   1.581   4.904 -0.1599  1.2024 -0.1705
 7742TIP3    H247422   3.088   1.631   5.031 -0.7843 -0.1863  0.7185
 7743TIP3   OH247423   2.874   0.892   7.100 -0.1542 -0.1570  0.4968
 7743TIP3    H147424   2.906   0.975   7.063 -1.6187  0.4200  0.4484
 7743TIP3    H247425   2.839   0.916   7.186 -0.8538 -0.6569  0.3602
 7744TIP3   OH247426   2.045   7.264   6.688 -0.6385  0.0563  0.2806
 7744TIP3    H147427   2.050   7.357   6.666  0.6204 -0.2527 -0.9348
 7744TIP3    H247428   2.017   7.261   6.779  0.5834  1.6910  0.7513
 7745TIP3   OH247429   1.069   6.965   5.443 -0.5638 -0.1441 -0.8222
 7745TIP3    H147430   1.035   6.882   5.409  2.0631 -2.2546  1.1848
 7745TIP3    H247431   1.064   6.956   5.538  0.7375  1.5497 -0.5375
 7746TIP3   OH247432   3.276   5.792   7.393 -0.3485  0.5112 -0.0650
 7746TIP3    H147433   3.264   5.715   7.447  0.4038  2.1034  2.5670
 7746TIP3    H247434   3.191   5.835   7.393  0.5016  2.6506  3.6218
 7747TIP3   OH247435   1.353   6.518   5.317 -0.3345  0.1409  0.3760
 7747TIP3    H147436   1.328   6.488   5.230 -0.2841  0.4678  0.2462
 7747TIP3    H247437   1.337   6.443   5.375 -0.0328 -0.1910  0.0283
 7748TIP3   OH247438   7.503   2.006   7.201 -0.1114 -0.4144 -0.1546
 7748TIP3    H147439   7.419   1.960   7.193  0.0676 -0.6736 -0.5575
 7748TIP3    H247440   7.507   2.030   7.294 -0.5902 -0.4781 -0.1113
 7749TIP3   OH247441   7.422   0.677   7.794 -0.2520 -0.3867 -0.2852
 7749TIP3    H147442   7.471   0.602   7.759 -0.0309 -0.0119 -0.7847
 7749TIP3    H247443   7.455   0.752   7.745 -0.6747 -0.0007  0.0184
 7750TIP3   OH247444   7.188   3.028   5.642  0.0205 -0.1517 -0.1272
 7750TIP3    H147445   7.154   2.939   5.637  2.3367 -1.1890  1.2453
 7750TIP3    H247446   7.194   3.056   5.550 -1.9705 -0.8492 -0.5248
 7751TIP3   OH247447   4.628   2.242   5.336  0.1471  0.7660  0.2089
 7751TIP3    H147448   4.581   2.199   5.407 -0.3689 -0.5960 -0.9099
 7751TIP3    H247449   4.657   2.325   5.373 -1.2744  0.6901  1.5845
 7752TIP3   OH247450   2.806   3.356   5.244 -0.8435 -0.0012  0.1251
 7752TIP3    H147451   2.803   3.294   5.317 -0.7728  1.7304  1.6836
 7752TIP3    H247452   2.866   3.425   5.274 -0.4602  0.5355 -1.7797
 7753TIP3   OH247453   3.689   1.790   6.679  0.0906 -0.1487 -0.0948
 7753TIP3    H147454   3.626   1.775   6.609 -0.9989  1.8181  0.3839
 7753TIP3    H247455   3.734   1.706   6.690  0.2678 -0.5314 -3.0768
 7754TIP3   OH247456   4.984   2.142   5.754  0.0756  0.7882 -0.2828
 7754TIP3    H147457   5.078   2.124   5.744  0.4565  2.0441  0.7322
 7754TIP3    H247458   4.968   2.216   5.696  0.3233  2.2802  1.4843
 7755TIP3   OH247459   4.229   5.775   5.491  0.9108 -0.4294  0.2309
 7755TIP3    H147460   4.297   5.752   5.427  1.5710 -2.6178  1.6260
 7755TIP3    H247461   4.155   5.718   5.469  1.3905 -1.7113  1.7761
 7756TIP3   OH247462   5.011   1.825   6.501  0.2159  0.3418 -0.0610
 7756TIP3    H147463   5.011   1.785   6.413 -0.6894  0.0990  0.0330
 7756TIP3    H247464   5.032   1.917   6.485 -1.9014  0.7550 -0.7942
 7757TIP3   OH247465   1.703   6.130   6.328  0.0887 -0.3255 -0.0337
 7757TIP3    H147466   1.662   6.159   6.409  2.1646  2.3487  0.1723
 7757TIP3    H247467   1.717   6.210   6.277  0.7255 -1.6846 -2.1386
 7758TIP3   OH247468   4.648   2.835   5.522  0.6488 -0.1333  0.0985
 7758TIP3    H147469   4.665   2.822   5.615  4.1048  0.1101 -0.3588
 7758TIP3    H247470   4.702   2.769   5.478 -0.9329 -0.2818 -1.7926
 7759TIP3   OH247471   6.432   3.466   5.900 -0.2943 -0.5252  0.1971
 7759TIP3    H147472   6.498   3.534   5.889  0.1911 -0.8784  0.8372
 7759TIP3    H247473   6.481   3.384   5.893 -0.6490 -0.7926  0.7563
 7760TIP3   OH247474   3.863   1.181   6.049  0.1254 -0.1078 -0.0170
 7760TIP3    H147475   3.842   1.183   5.956  1.2505 -0.5845 -0.2977
 7760TIP3    H247476   3.815   1.106   6.084 -0.1077 -0.0712 -0.2566
 7761TIP3   OH247477   3.964   4.679   4.777 -0.4408  0.5651 -0.8921
 7761TIP3    H147478   3.915   4.762   4.782 -0.0747  0.7944 -1.0666
 7761TIP3    H247479   3.901   4.613   4.805 -0.7229  0.9097 -0.6947
 7762TIP3   OH247480   1.416   4.661   7.002 -0.5664  0.1724 -0.1539
 7762TIP3    H147481   1.459   4.740   7.033  0.1933  0.3932 -1.6802
 7762TIP3    H247482   1.470   4.589   7.037  0.4936  0.4238 -1.1951
 7763TIP3   OH247483   1.157   7.319   5.104  0.4672 -0.3854  0.5097
 7763TIP3    H147484   1.211   7.393   5.130  1.3749 -0.5239 -0.8589
 7763TIP3    H247485   1.127   7.281   5.187 -0.1215  1.5372  1.2363
 7764TIP3   OH247486   4.854   6.415   6.564  0.1252  0.3055  0.1117
 7764TIP3    H147487   4.883   6.486   6.507 -0.7988 -0.7041 -1.7135
 7764TIP3    H247488   4.904   6.427   6.645  0.9126  2.2577 -0.6083
 7765TIP3   OH247489   2.654   1.831   6.738  0.3381 -0.4139 -0.0485
 7765TIP3    H147490   2.578   1.781   6.767 -0.8836  1.1525 -0.3694
 7765TIP3    H247491   2.723   1.809   6.801 -1.0868 -0.0788  1.7043
 7766TIP3   OH247492   5.864   4.453   5.555  0.7561  0.3977  0.3281
 7766TIP3    H147493   5.881   4.382   5.617  1.4809  0.1428 -0.1556
 7766TIP3    H247494   5.787   4.498   5.591  0.4439 -0.4679  0.7768
 7767TIP3   OH247495   4.754   2.367   7.148  0.7780  0.0556  0.4918
 7767TIP3    H147496   4.843   2.332   7.155  1.7864  2.4198  0.3799
 7767TIP3    H247497   4.722   2.333   7.065  1.5495 -0.8514  0.5383
 7768TIP3   OH247498   6.465   6.320   7.491 -0.0358 -0.2280 -0.1894
 7768TIP3    H147499   6.512   6.354   7.567  2.4725 -0.8712 -1.3512
 7768TIP3    H247500   6.447   6.228   7.513  0.0344 -0.2206 -0.1018
 7769TIP3   OH247501   4.342   3.806   6.771 -0.0916  0.0127  0.1464
 7769TIP3    H147502   4.323   3.834   6.860 -2.1663 -1.7330  0.3279
 7769TIP3    H247503   4.264   3.831   6.721 -0.1326 -1.4167 -0.5651
 7770TIP3   OH247504   3.580   2.793   6.722  0.3967  0.1124  0.8234
 7770TIP3    H147505   3.524   2.750   6.787  0.1156 -1.0326 -0.1273
 7770TIP3    H247506   3.663   2.745   6.727  0.0984 -0.5697 -0.2123
 7771TIP3   OH247507   5.588   2.961   6.259 -0.5040 -0.1756  0.5197
 7771TIP3    H147508   5.638   2.963   6.178 -1.6770  0.6008 -0.2250
 7771TIP3    H247509   5.551   3.049   6.267 -2.2366 -0.8622  0.6767
 7772TIP3   OH247510   2.139   5.845   6.823  0.3200 -0.1700  0.1969
 7772TIP3    H147511   2.073   5.911   6.801  0.8904 -0.1765 -1.7499
 7772TIP3    H247512   2.172   5.872   6.908  0.7635  2.3038 -0.6587
 7773TIP3   OH247513   3.269   2.089   4.774 -0.0087  0.0442  0.2787
 7773TIP3    H147514   3.226   2.128   4.850 -2.7868  1.0412 -1.6424
 7773TIP3    H247515   3.227   2.004   4.763  0.4000 -0.1111 -0.1404
 7774TIP3   OH247516   0.412   7.531   5.748  0.0328  0.3369  0.0090
 7774TIP3    H147517   0.394   7.486   5.830 -2.1897 -1.0220 -1.1585
 7774TIP3    H247518   0.361   7.485   5.682 -1.2392  3.6082 -1.5528
 7775TIP3   OH247519   3.669   2.626   5.967  0.1848  0.6123 -0.2681
 7775TIP3    H147520   3.579   2.656   5.951 -1.0620 -1.8542  1.3788
 7775TIP3    H247521   3.689   2.660   6.054 -1.7327 -3.7709  2.2033
 7776TIP3   OH247522   2.065   1.894   6.715 -0.2437  0.4477  0.4567
 7776TIP3    H147523   2.090   1.924   6.628 -0.5334 -0.4716  0.0434
 7776TIP3    H247524   2.123   1.942   6.775  2.9019 -1.8756 -0.4646
 7777TIP3   OH247525   3.213   5.237   6.021 -0.6486 -0.1565  0.3944
 7777TIP3    H147526   3.175   5.280   5.944 -0.2342  2.3456  1.4812
 7777TIP3    H247527   3.272   5.171   5.985 -0.2987  1.0781 -1.4614
 7778TIP3   OH247528   5.948   1.391   7.147 -0.1919  0.1771  0.2312
 7778TIP3    H147529   5.987   1.317   7.195  0.6613  2.0404  2.5940
 7778TIP3    H247530   5.882   1.425   7.207  0.4659  2.2325 -0.1448
 7779TIP3   OH247531   0.438   3.388   5.204  0.3302 -0.3878  0.1915
 7779TIP3    H147532   0.428   3.363   5.296  0.9266 -0.4062  0.2553
 7779TIP3    H247533   0.528   3.420   5.197  0.4521 -0.8570 -0.4966
 7780TIP3   OH247534   1.404   2.584   5.615 -0.4058 -0.5287 -0.3171
 7780TIP3    H147535   1.375   2.509   5.666 -0.7587 -0.1506  0.0429
 7780TIP3    H247536   1.483   2.615   5.660 -1.0768  0.1972  0.3905
 7781TIP3   OH247537   5.023   4.268   6.133 -0.3028 -0.1538 -0.0891
 7781TIP3    H147538   4.993   4.347   6.089 -0.7404  0.0367  0.5319
 7781TIP3    H247539   4.945   4.235   6.178  0.5525  0.8188  2.2514
 7782TIP3   OH247540   2.611   6.127   7.219  0.4595 -0.2889 -0.0839
 7782TIP3    H147541   2.615   6.195   7.151  1.8156 -0.0960  0.1501
 7782TIP3    H247542   2.558   6.058   7.180 -0.0095  0.4330 -0.7672
 7783TIP3   OH247543   2.190   1.090   7.551  0.2021 -0.1263  0.2718
 7783TIP3    H147544   2.098   1.076   7.530  0.1187 -1.7683  1.5115
 7783TIP3    H247545   2.220   1.005   7.583  1.6130  0.8768  1.7651
 7784TIP3   OH247546   6.340   4.110   5.244  0.1720 -0.0290  0.1546
 7784TIP3    H147547   6.259   4.132   5.290  0.1843 -0.6538  0.4796
 7784TIP3    H247548   6.399   4.183   5.263 -0.5102  0.7443 -0.5997
 7785TIP3   OH247549   6.931   5.255   4.818  0.0805  0.4119  0.1984
 7785TIP3    H147550   6.987   5.332   4.807  0.4766  0.1118  0.1059
 7785TIP3    H247551   6.916   5.223   4.729  1.9334 -1.0534  0.3698
 7786TIP3   OH247552   1.643   0.149   5.642 -0.0879  0.3242 -0.2447
 7786TIP3    H147553   1.686   0.183   5.721  0.1093  1.3439 -0.7674
 7786TIP3    H247554   1.649   0.054   5.650  0.9157  0.4313  0.4289
 7787TIP3   OH247555   6.399   2.852   7.150  0.0035 -0.1665 -0.4957
 7787TIP3    H147556   6.413   2.803   7.232 -0.9997  1.3400  0.6242
 7787TIP3    H247557   6.342   2.795   7.098 -2.2515  0.2799  1.3297
 7788TIP3   OH247558   3.916   6.825   5.410  0.4176  0.4367 -0.0079
 7788TIP3    H147559   4.006   6.811   5.437  0.6789  2.6622  0.5023
 7788TIP3    H247560   3.865   6.818   5.490  0.6250  2.5380  0.3762
 7789TIP3   OH247561   1.104   2.735   7.265  0.1032  0.1903  0.1321
 7789TIP3    H147562   1.053   2.792   7.208  1.3265  0.9575 -0.2356
 7789TIP3    H247563   1.040   2.673   7.301 -0.9961  0.8557 -0.6219
 7790TIP3   OH247564   7.035   5.981   5.472  0.3484  0.3523  0.1609
 7790TIP3    H147565   6.971   5.966   5.402  1.1143 -1.5427 -0.1951
 7790TIP3    H247566   7.116   6.001   5.425  0.3037  1.6025  0.5874
 7791TIP3   OH247567   4.266   1.866   5.189  0.0819 -0.0970  0.2770
 7791TIP3    H147568   4.332   1.917   5.143 -1.2819  1.2240 -0.3181
 7791TIP3    H247569   4.256   1.911   5.273  0.4931 -0.7648  0.6896
 7792TIP3   OH247570   6.595   3.083   7.410 -0.7262 -0.3431 -0.5495
 7792TIP3    H147571   6.548   3.099   7.328  0.7005  0.0689 -1.3152
 7792TIP3    H247572   6.676   3.132   7.402 -0.4952 -0.3894  1.0807
 7793TIP3   OH247573   4.659   6.659   5.148 -0.6439 -0.2827  0.3464
 7793TIP3    H147574   4.586   6.714   5.177 -0.2691  0.3543  0.1013
 7793TIP3    H247575   4.653   6.581   5.203  0.1902  0.9851  2.3534
 7794TIP3   OH247576   4.288   2.291   6.723 -0.1605  0.4352  0.0515
 7794TIP3    H147577   4.380   2.295   6.748 -0.5190 -1.5591  2.0566
 7794TIP3    H247578   4.284   2.225   6.654 -0.2824 -1.2341  1.5692
 7795TIP3   OH247579   7.584   7.596   5.339  0.1814 -0.2358 -0.6374
 7795TIP3    H147580   7.624   7.617   5.423 -0.1615 -0.5135 -0.3978
 7795TIP3    H247581   7.508   7.654   5.333  0.0373 -0.4207 -0.6188
 7796TIP3   OH247582   4.634   0.290   6.476  0.5465  0.2623 -0.6026
 7796TIP3    H147583   4.550   0.322   6.442  1.7065  3.0296 -1.1234
 7796TIP3    H247584   4.687   0.276   6.397  0.8374 -0.7560 -0.2406
 7797TIP3   OH247585   7.082   5.408   4.611  0.3536 -0.3164 -0.3247
 7797TIP3    H147586   7.123   5.441   4.691  0.6256  0.8055 -0.8993
 7797TIP3    H247587   7.153   5.363   4.565  1.3445  2.4934 -1.8036
 7798TIP3   OH247588   6.610   3.051   6.100 -0.3043  0.5226 -0.3314
 7798TIP3    H147589   6.633   3.096   6.181 -1.4065  0.6494 -0.0742
 7798TIP3    H247590   6.545   2.986   6.126 -0.0853  0.0339 -0.9939
 7799TIP3   OH247591   1.399   7.164   7.199  0.0661  0.2721 -0.0078
 7799TIP3    H147592   1.391   7.069   7.212 -0.2232  0.2302 -0.4873
 7799TIP3    H247593   1.411   7.175   7.105  1.6384  0.6108  0.2028
 7800TIP3   OH247594   1.389   1.059   6.045  0.0189  0.8423 -0.2878
 7800TIP3    H147595   1.295   1.045   6.049  0.1514 -0.5131 -1.4453
 7800TIP3    H247596   1.399   1.152   6.025 -1.0645  0.9271 -0.4583
 7801TIP3   OH247597   2.487   3.929   7.058 -1.4777 -0.5216 -0.2767
 7801TIP3    H147598   2.395   3.955   7.063 -1.4345 -0.5721  1.2801
 7801TIP3    H247599   2.485   3.838   7.031 -1.9075 -0.6279  0.1008
 7802TIP3   OH247600   3.985   1.526   5.368 -0.5042  0.0039 -0.2972
 7802TIP3    H147601   3.911   1.467   5.359 -1.2039  0.6390  1.0829
 7802TIP3    H247602   4.002   1.530   5.462  0.2419  1.1393 -0.4590
 7803TIP3   OH247603   0.813   6.283   5.208  0.3193 -0.0523  0.0513
 7803TIP3    H147604   0.774   6.352   5.155  0.4686  0.4571  0.5936
 7803TIP3    H247605   0.878   6.243   5.150  0.4979  0.5132 -0.1490
 7804TIP3   OH247606   3.927   1.655   6.737 -0.5497  0.5763  0.5449
 7804TIP3    H147607   3.996   1.604   6.780 -0.1530  0.8522  0.2396
 7804TIP3    H247608   3.974   1.710   6.674 -1.2240 -0.8010 -1.2530
 7805TIP3   OH247609   4.446   4.603   6.779 -0.0945 -0.2263  0.2068
 7805TIP3    H147610   4.355   4.614   6.808  0.1865 -0.2508  1.1291
 7805TIP3    H247611   4.489   4.556   6.850  0.7750  0.2445  0.0143
 7806TIP3   OH247612   4.565   0.128   5.391  0.0340 -0.1767 -0.4930
 7806TIP3    H147613   4.630   0.127   5.462 -0.7491  1.2834  0.2943
 7806TIP3    H247614   4.608   0.176   5.320  0.2947 -0.3893 -0.4827
 7807TIP3   OH247615   7.514   5.502   5.594 -0.7428  0.3656  0.2720
 7807TIP3    H147616   7.471   5.587   5.605  1.0715  1.3136  0.3356
 7807TIP3    H247617   7.444   5.444   5.567 -2.5800  1.2669  2.6830
 7808TIP3   OH247618   5.259   5.261   5.083  0.7012 -0.6727  0.3228
 7808TIP3    H147619   5.275   5.173   5.050  0.7593 -0.2240 -0.8716
 7808TIP3    H247620   5.321   5.270   5.156  0.9790 -1.4683  0.1964
 7809TIP3   OH247621   3.649   1.184   5.543  0.1754  0.0693 -0.2252
 7809TIP3    H147622   3.670   1.257   5.486  0.5416 -0.9116 -1.3914
 7809TIP3    H247623   3.560   1.158   5.518  0.1553 -0.0618 -0.0211
 7810TIP3   OH247624   5.774   1.326   6.355  0.6102  0.5508  0.1604
 7810TIP3    H147625   5.789   1.278   6.436 -0.5218 -1.2813 -0.6685
 7810TIP3    H247626   5.863   1.345   6.323  1.0991  2.0710  2.1790
 7811TIP3   OH247627   3.803   0.279   5.337  0.4512  0.0355 -0.5789
 7811TIP3    H147628   3.732   0.267   5.274  0.9009  0.6268 -1.2048
 7811TIP3    H247629   3.864   0.339   5.294  1.5581 -0.8188 -0.2246
 7812TIP3   OH247630   3.042   4.659   5.958  0.0683  0.2667 -0.0094
 7812TIP3    H147631   3.131   4.657   5.991 -0.0218 -0.1000  0.2116
 7812TIP3    H247632   3.049   4.705   5.874  0.0203  2.9061  1.3245
 7813TIP3   OH247633   2.039   3.831   5.969 -0.1216 -0.0333  0.3689
 7813TIP3    H147634   2.107   3.884   5.927 -1.2199  2.1276  1.1768
 7813TIP3    H247635   2.085   3.753   6.000  1.3638 -0.0790 -1.7455
 7814TIP3   OH247636   2.534   1.753   5.092 -0.1748  0.0145  1.1768
 7814TIP3    H147637   2.516   1.687   5.025 -1.7407 -0.0601  1.6194
 7814TIP3    H247638   2.591   1.709   5.155  0.7998 -0.1104  0.2391
 7815TIP3   OH247639   5.470   1.115   7.264  0.4106 -0.1920 -0.1194
 7815TIP3    H147640   5.426   1.030   7.269  1.6821 -0.8195  3.6469
 7815TIP3    H247641   5.402   1.176   7.237 -1.6626 -1.7647  1.2599
 7816TIP3   OH247642   6.735   7.202   6.886 -0.3107  0.6098 -0.0473
 7816TIP3    H147643   6.793   7.191   6.810 -0.2509  1.8979 -0.2124
 7816TIP3    H247644   6.671   7.131   6.878 -1.3704  1.7197 -2.2982
 7817TIP3   OH247645   5.234   5.140   5.450  0.4834 -0.1658  0.2401
 7817TIP3    H147646   5.252   5.129   5.543  0.2652  0.6668  0.3822
 7817TIP3    H247647   5.302   5.200   5.419  0.4236 -0.2664 -0.0899
 7818TIP3   OH247648   2.429   3.005   5.019  0.3250  0.2406  0.8115
 7818TIP3    H147649   2.335   2.987   5.023  0.4806 -0.6164  0.8398
 7818TIP3    H247650   2.438   3.075   4.954 -0.4246  1.0245  1.5348
 7819TIP3   OH247651   7.413   2.314   5.999 -0.6800  0.2618  0.5402
 7819TIP3    H147652   7.478   2.364   5.950 -0.0816 -0.5275  0.5303
 7819TIP3    H247653   7.346   2.379   6.022 -0.4377  0.8574 -0.3853
 7820TIP3   OH247654   1.411   0.821   5.223 -0.0002 -0.3496  0.6153
 7820TIP3    H147655   1.462   0.879   5.279 -0.2064  0.4684 -0.0351
 7820TIP3    H247656   1.321   0.830   5.255 -0.0137 -0.4052  0.5925
 7821TIP3   OH247657   6.384   5.148   7.591 -0.1224  0.2545  0.5717
 7821TIP3    H147658   6.392   5.111   7.503  1.1187  0.7635  0.4546
 7821TIP3    H247659   6.386   5.243   7.577 -0.1303  0.3394  1.1303
 7822TIP3   OH247660   7.171   7.030   5.279 -0.0872  0.2891  0.3256
 7822TIP3    H147661   7.225   6.977   5.220  0.3586  0.1861  0.8175
 7822TIP3    H247662   7.116   7.083   5.221 -1.1849 -1.3404 -0.1957
 7823TIP3   OH247663   4.779   2.402   7.525 -0.3921  0.0379 -0.3333
 7823TIP3    H147664   4.849   2.355   7.480  0.4311 -1.7147  2.4840
 7823TIP3    H247665   4.820   2.482   7.557  0.2109 -0.6636  0.7246
 7824TIP3   OH247666   0.841   1.208   5.092  0.1697 -0.4548 -0.4731
 7824TIP3    H147667   0.936   1.214   5.106 -0.0272  0.4833  0.5402
 7824TIP3    H247668   0.831   1.216   4.997  0.9661  1.7599 -0.4287
 7825TIP3   OH247669   4.358   2.324   6.126 -0.5350 -0.3385  0.1806
 7825TIP3    H147670   4.377   2.412   6.093  0.1771  0.1486  1.7883
 7825TIP3    H247671   4.431   2.270   6.094  0.0055  0.0638  0.7124
 7826TIP3   OH247672   4.586   1.778   6.178 -0.3229 -0.0883 -0.4311
 7826TIP3    H147673   4.499   1.791   6.217 -0.0511 -1.2768  0.6168
 7826TIP3    H247674   4.600   1.683   6.182  1.0573  0.0995 -0.5368
 7827TIP3   OH247675   7.643   6.310   6.535  0.3319 -0.0791  0.5487
 7827TIP3    H147676   7.605   6.378   6.590  3.1587  0.2964  2.2753
 7827TIP3    H247677   7.599   6.229   6.562 -0.4309  0.5343  1.1860
 7828TIP3   OH247678   1.119   0.949   6.066  0.3757 -0.8587  0.5187
 7828TIP3    H147679   1.133   0.957   5.972 -1.6845  1.1627  0.2909
 7828TIP3    H247680   1.045   0.889   6.075 -1.8524  1.6952  0.5035
 7829TIP3   OH247681   3.619   2.733   6.278 -0.5485  0.8292  0.1311
 7829TIP3    H147682   3.568   2.785   6.216 -1.4671  0.2147  0.3486
 7829TIP3    H247683   3.651   2.796   6.342  0.7345  1.5397 -1.1446
 7830TIP3   OH247684   2.036   1.995   5.835 -0.2661  0.6384  0.0191
 7830TIP3    H147685   2.081   2.045   5.903  0.7126  0.3990 -0.4324
 7830TIP3    H247686   1.998   2.061   5.778  0.7302  0.8867 -0.3803
 7831TIP3   OH247687   3.098   6.011   4.831  0.0470 -0.2347 -0.4831
 7831TIP3    H147688   3.120   6.090   4.880  1.2195 -0.4547 -0.6172
 7831TIP3    H247689   3.064   5.950   4.897  0.2497 -0.0229 -0.1835
 7832TIP3   OH247690   0.341   0.698   4.951 -0.3670  0.2081  0.2094
 7832TIP3    H147691   0.412   0.763   4.942  0.2781 -0.5234 -0.1317
 7832TIP3    H247692   0.286   0.713   4.874 -0.9978  1.2390  0.8263
 7833TIP3   OH247693   3.013   6.039   5.151  0.2241  0.6616 -0.6989
 7833TIP3    H147694   3.002   6.080   5.236  0.5906 -0.7809  0.0929
 7833TIP3    H247695   3.050   6.107   5.095  2.5586  0.9451  1.0365
 7834TIP3   OH247696   2.905   7.248   6.485  0.5458  0.1264  0.0544
 7834TIP3    H147697   2.890   7.326   6.538 -0.1101  2.4102 -3.2420
 7834TIP3    H247698   2.824   7.198   6.492 -0.8221  2.0427 -1.3100
 7835TIP3   OH247699   6.772   2.535   4.966 -0.7866 -0.4514  0.3623
 7835TIP3    H147700   6.790   2.451   5.009 -1.4845 -0.9884 -0.3717
 7835TIP3    H247701   6.774   2.515   4.873  0.8956  0.7458  0.0991
 7836TIP3   OH247702   3.946   0.420   5.161  0.0188  0.3451  0.3324
 7836TIP3    H147703   3.976   0.354   5.099  0.6233  1.0402 -0.1347
 7836TIP3    H247704   3.944   0.501   5.110 -3.2646  0.2685  0.1195
 7837TIP3   OH247705   0.006   1.195   5.670  0.6576  0.8018 -0.5304
 7837TIP3    H147706   0.080   1.209   5.611  0.4145  2.2747 -0.5243
 7837TIP3    H247707  -0.069   1.178   5.612  0.3878  2.3926 -0.7055
 7838TIP3   OH247708   6.061   3.009   6.100  0.1299 -0.0692  0.4694
 7838TIP3    H147709   6.133   3.065   6.073  0.6126  0.5735  2.8990
 7838TIP3    H247710   5.985   3.067   6.101 -0.2541 -0.4915 -1.0088
 7839TIP3   OH247711   2.848   1.169   6.827  0.1640 -0.3453 -0.2026
 7839TIP3    H147712   2.771   1.177   6.884 -0.2109 -0.0310 -0.7425
 7839TIP3    H247713   2.918   1.137   6.885 -0.5365 -1.2825  0.1463
 7840TIP3   OH247714   7.149   5.324   5.115  0.0706 -0.5145  0.3542
 7840TIP3    H147715   7.087   5.259   5.149  0.3734  0.0719  2.0975
 7840TIP3    H247716   7.222   5.272   5.082 -0.9357 -1.1739 -0.9897
 7841TIP3   OH247717   0.798   0.363   5.465 -0.3229  0.1777 -0.2530
 7841TIP3    H147718   0.831   0.435   5.519 -0.8953  1.5193 -1.5954
 7841TIP3    H247719   0.775   0.405   5.382 -2.5712 -1.1918 -0.3973
 7842TIP3   OH247720   2.770   6.674   7.366 -0.3633  0.3075  0.3263
 7842TIP3    H147721   2.844   6.618   7.386 -0.4416  0.7622  1.9832
 7842TIP3    H247722   2.693   6.619   7.385 -0.4409  0.6236  0.9335
 7843TIP3   OH247723   5.594   3.975   6.179 -0.0441 -0.0298  0.0630
 7843TIP3    H147724   5.520   3.923   6.209  0.7299 -1.5952 -0.6213
 7843TIP3    H247725   5.571   4.065   6.201 -0.2380 -0.8533  3.7701
 7844TIP3   OH247726   3.288   5.016   5.050 -0.4268 -0.1949 -0.3236
 7844TIP3    H147727   3.281   4.928   5.013 -2.7859 -0.4058  0.4544
 7844TIP3    H247728   3.248   5.008   5.136 -0.5713  1.6189 -0.2030
 7845TIP3   OH247729   0.744   6.254   6.001 -0.2900  0.4286  0.8958
 7845TIP3    H147730   0.684   6.315   6.044 -0.7953 -1.2822  2.7718
 7845TIP3    H247731   0.722   6.169   6.039  1.1949 -0.7432 -0.7462
 7846TIP3   OH247732   1.069   4.609   6.080  0.1519 -0.3925  0.1073
 7846TIP3    H147733   1.112   4.661   6.148 -0.2771  1.8018 -1.1797
 7846TIP3    H247734   0.979   4.600   6.110  0.1964 -0.2579  0.2793
 7847TIP3   OH247735   0.094   3.011   5.605 -0.2594  0.3663  0.2846
 7847TIP3    H147736   0.062   3.094   5.568  0.8242  1.1648  1.0569
 7847TIP3    H247737   0.015   2.958   5.616 -1.6154  2.6449  3.1057
 7848TIP3   OH247738   6.682   1.649   6.089  0.2680 -0.5794  0.6849
 7848TIP3    H147739   6.606   1.646   6.032  0.6349 -0.6105  0.1911
 7848TIP3    H247740   6.701   1.557   6.108  1.8521 -0.7598 -1.4602
 7849TIP3   OH247741   6.131   3.658   5.513  0.0034  0.1225 -0.3915
 7849TIP3    H147742   6.072   3.729   5.489  0.0329 -0.0718 -1.0433
 7849TIP3    H247743   6.176   3.635   5.432  0.8516  0.1452  0.0570
 7850TIP3   OH247744   4.840   6.002   5.720 -0.3976  0.1947  0.4119
 7850TIP3    H147745   4.829   6.004   5.815 -1.1795  0.7032  0.3228
 7850TIP3    H247746   4.792   5.924   5.692  0.1959 -0.1951  0.4720
 7851TIP3   OH247747   7.254   2.814   6.289  0.6162 -0.0442 -0.8118
 7851TIP3    H147748   7.220   2.895   6.251 -2.0955 -0.7416 -0.0887
 7851TIP3    H247749   7.246   2.749   6.219 -0.8737 -0.4983 -0.2579
 7852TIP3   OH247750   0.728   3.630   4.935  0.3791  0.0522 -0.3126
 7852TIP3    H147751   0.744   3.576   5.012  0.1169  0.7321  0.2263
 7852TIP3    H247752   0.814   3.643   4.896  0.5096 -0.3026 -0.1421
 7853TIP3   OH247753   1.254   5.213   5.203 -0.1789 -0.2254 -0.2801
 7853TIP3    H147754   1.283   5.282   5.144  0.0747 -0.3665 -0.3198
 7853TIP3    H247755   1.179   5.173   5.158 -1.4655  1.1638  0.5290
 7854TIP3   OH247756   2.599   5.880   5.372  0.1698 -0.1802  0.0302
 7854TIP3    H147757   2.513   5.918   5.390 -1.2297 -1.1096 -3.8141
 7854TIP3    H247758   2.582   5.788   5.355  1.2676  0.1456 -3.7896
 7855TIP3   OH247759   7.467   3.180   4.801 -0.2336  0.0966 -0.6411
 7855TIP3    H147760   7.397   3.131   4.760 -0.9261  0.9886 -0.5554
 7855TIP3    H247761   7.425   3.228   4.872  0.8352 -0.9653  0.7725
 7856TIP3   OH247762   0.514   4.237   4.755 -0.0043  0.1507 -0.5300
 7856TIP3    H147763   0.495   4.216   4.847 -1.4302  1.2193 -0.5545
 7856TIP3    H247764   0.463   4.173   4.705  1.8550 -1.3395 -0.6256
 7857TIP3   OH247765   0.730   6.865   5.495 -0.1045  0.0213  0.1870
 7857TIP3    H147766   0.760   6.778   5.522 -1.5873 -0.9601 -1.1384
 7857TIP3    H247767   0.635   6.857   5.491 -0.4496  2.2945  1.8426
 7858TIP3   OH247768   0.756   5.883   6.601  0.1499 -0.2260 -0.4329
 7858TIP3    H147769   0.778   5.822   6.671  0.9832 -2.3246 -2.3889
 7858TIP3    H247770   0.841   5.911   6.567 -0.2392  0.5505 -0.7659
 7859TIP3   OH247771   2.936   5.615   6.143 -0.4978 -0.1681  0.3020
 7859TIP3    H147772   2.974   5.531   6.168  0.0637  0.1734  0.6163
 7859TIP3    H247773   3.002   5.679   6.168 -0.3151  0.2621 -1.2171
 7860TIP3   OH247774   0.765   4.327   4.981 -0.1701  0.2216 -0.3442
 7860TIP3    H147775   0.757   4.421   4.961  1.3981  0.8861  1.7409
 7860TIP3    H247776   0.857   4.306   4.962 -0.5469 -0.9647 -0.9542
 7861TIP3   OH247777   0.002   2.107   7.459 -0.2498  0.3722 -0.3111
 7861TIP3    H147778   0.062   2.106   7.385 -0.4064 -0.3471 -0.4413
 7861TIP3    H247779  -0.054   2.182   7.444  0.3624  0.8215 -0.3926
 7862TIP3   OH247780   0.765   7.109   5.354  0.1951 -0.0622  0.4387
 7862TIP3    H147781   0.857   7.133   5.363 -0.3978  1.8335  1.9956
 7862TIP3    H247782   0.754   7.035   5.413  1.0245 -1.3660 -0.9595
 7863TIP3   OH247783   4.174   3.569   7.081  0.4052 -0.9455  0.3643
 7863TIP3    H147784   4.123   3.502   7.037  3.6533 -2.6247 -1.1966
 7863TIP3    H247785   4.237   3.520   7.134  1.5224  0.9224  0.8558
 7864TIP3   OH247786   4.219   0.118   6.547 -0.0035  0.0931 -0.5579
 7864TIP3    H147787   4.262   0.032   6.552  1.3664  0.8151  1.7734
 7864TIP3    H247788   4.126   0.098   6.559  0.5656 -0.9598  3.8534
 7865TIP3   OH247789   4.398   1.038   6.012  0.2966  0.0312 -0.2097
 7865TIP3    H147790   4.327   1.101   6.021  0.9666  0.6979  0.6885
 7865TIP3    H247791   4.399   1.015   5.919 -0.6696  0.4953 -0.3445
 7866TIP3   OH247792   6.014   3.403   6.562  0.2119 -0.0874 -0.0215
 7866TIP3    H147793   6.018   3.414   6.467  1.3879 -0.2943 -0.0038
 7866TIP3    H247794   5.979   3.485   6.595  0.7974  0.3761 -0.5507
 7867TIP3   OH247795   1.116   5.714   6.532  0.2879 -0.1540  0.3061
 7867TIP3    H147796   1.070   5.797   6.533 -1.2418 -0.8702 -2.0964
 7867TIP3    H247797   1.117   5.688   6.439  0.6125 -2.8439  0.9782
 7868TIP3   OH247798   0.204   6.509   6.534  0.1130 -0.1517 -0.0083
 7868TIP3    H147799   0.118   6.467   6.537 -0.0000  0.0774 -0.0666
 7868TIP3    H247800   0.253   6.459   6.469 -0.3281  0.3852 -0.7632
 7869TIP3   OH247801   4.728   5.885   6.215  0.4201  0.2324 -0.0855
 7869TIP3    H147802   4.641   5.850   6.193  0.1959  0.9719 -0.3897
 7869TIP3    H247803   4.745   5.950   6.147  0.8964  0.6085  0.3942
 7870TIP3   OH247804   3.307   5.593   5.676 -0.8762  0.5435 -0.0631
 7870TIP3    H147805   3.298   5.682   5.642 -0.1727  0.6267 -0.0482
 7870TIP3    H247806   3.365   5.550   5.613  0.0186  0.5472  0.7482
 7871TIP3   OH247807   2.565   5.029   6.501 -0.3116 -0.3352 -0.4462
 7871TIP3    H147808   2.553   5.120   6.530 -0.7135 -1.0932  2.0120
 7871TIP3    H247809   2.494   5.014   6.438  0.3818  1.3150 -1.7114
 7872TIP3   OH247810   5.931   3.501   4.966 -0.7038 -0.0744  0.1707
 7872TIP3    H147811   6.023   3.526   4.966 -1.0482  1.3133  1.3261
 7872TIP3    H247812   5.932   3.405   4.965  0.7877 -0.1169  1.7046
 7873TIP3   OH247813   2.512   5.367   6.259 -0.4843 -0.1287 -0.3105
 7873TIP3    H147814   2.526   5.431   6.190 -1.1031  0.0487 -0.2754
 7873TIP3    H247815   2.601   5.342   6.287 -0.2277 -0.5330 -1.4544
 7874TIP3   OH247816   7.305   1.464   6.659  0.0225 -0.1338 -0.4626
 7874TIP3    H147817   7.397   1.487   6.646  0.0881  0.5889  1.0659
 7874TIP3    H247818   7.303   1.369   6.650  0.9719 -0.1859 -0.2712
 7875TIP3   OH247819   0.661   2.590   7.474 -0.3194 -0.6838  0.8156
 7875TIP3    H147820   0.626   2.634   7.397 -0.5610  0.8074  1.7383
 7875TIP3    H247821   0.587   2.543   7.511 -0.8927  0.7587  1.5858
 7876TIP3   OH247822   6.921   0.934   6.465 -0.2550 -0.2115 -0.4334
 7876TIP3    H147823   6.964   0.912   6.382  0.4098 -0.3155 -0.0751
 7876TIP3    H247824   6.988   0.916   6.531 -0.8413 -0.3100  0.1400
 7877TIP3   OH247825   2.503   6.797   4.829 -0.3923  0.3066 -0.0935
 7877TIP3    H147826   2.560   6.868   4.800  0.0743 -0.9240 -2.4246
 7877TIP3    H247827   2.418   6.817   4.789 -0.2851 -0.3576 -0.6761
 7878TIP3   OH247828   6.834   2.392   4.763  0.0037  0.2262  0.5870
 7878TIP3    H147829   6.922   2.417   4.732  0.8169 -1.6913  1.2066
 7878TIP3    H247830   6.827   2.299   4.742 -3.0849  0.9015 -2.0852
 7879TIP3   OH247831   3.622   3.163   5.803  0.5750  0.3997 -0.3078
 7879TIP3    H147832   3.629   3.082   5.754  0.4599  0.7260 -0.8637
 7879TIP3    H247833   3.697   3.161   5.863  0.7886  0.0676 -0.5854
 7880TIP3   OH247834   7.583   4.746   6.896 -0.0285 -0.0980 -0.5596
 7880TIP3    H147835   7.563   4.836   6.870  0.9602 -0.9156 -4.9198
 7880TIP3    H247836   7.679   4.744   6.904  0.1006 -1.0046 -1.9792
 7881TIP3   OH247837   4.630   1.453   6.495 -0.0461  0.0107  0.0241
 7881TIP3    H147838   4.655   1.519   6.560 -1.9315 -0.6713  1.5530
 7881TIP3    H247839   4.619   1.373   6.547 -3.5591 -0.1190 -0.7314
 7882TIP3   OH247840   0.165   2.078   7.220  0.1261 -0.5086 -0.4088
 7882TIP3    H147841   0.260   2.068   7.229  0.4227  0.2639 -2.2811
 7882TIP3    H247842   0.142   2.025   7.144 -0.8765 -0.2721 -0.2858
 7883TIP3   OH247843   0.334   5.694   6.077 -0.0473  0.3042  0.4823
 7883TIP3    H147844   0.324   5.703   6.172  0.1122  0.3560  0.4951
 7883TIP3    H247845   0.422   5.729   6.059  0.2337 -0.4164  0.4147
 7884TIP3   OH247846   2.014   1.868   6.250  0.3006 -0.0236 -0.2386
 7884TIP3    H147847   2.099   1.832   6.225  0.5330 -0.5328  1.1703
 7884TIP3    H247848   1.951   1.825   6.192  0.9269 -0.1886 -0.8023
 7885TIP3   OH247849   5.313   2.282   6.619  0.1284  0.5689  0.4769
 7885TIP3    H147850   5.361   2.360   6.590 -1.6904  1.8633  0.7690
 7885TIP3    H247851   5.361   2.252   6.696  1.0426  1.2130  0.1758
 7886TIP3   OH247852   6.340   3.659   6.548  0.0018 -0.7425 -0.0589
 7886TIP3    H147853   6.307   3.594   6.610  0.8070 -0.7444  0.3726
 7886TIP3    H247854   6.388   3.609   6.482  0.1672 -0.6311 -0.0233
 7887TIP3   OH247855   3.336   1.264   5.702 -0.1010 -0.5019  0.1760
 7887TIP3    H147856   3.354   1.194   5.765  0.3759 -0.1485  0.4435
 7887TIP3    H247857   3.383   1.340   5.738  0.6991 -0.4576 -0.9355
 7888TIP3   OH247858   6.728   3.356   6.487 -0.4883  0.6457  0.3475
 7888TIP3    H147859   6.758   3.412   6.558  0.5348 -0.2842  0.6752
 7888TIP3    H247860   6.636   3.338   6.507 -0.1701  0.2662  1.5258
 7889TIP3   OH247861   3.526   5.148   6.543 -0.2933  0.5590  0.4862
 7889TIP3    H147862   3.457   5.139   6.609  0.5849  0.2863  1.3923
 7889TIP3    H247863   3.498   5.221   6.488 -1.6197  0.0275  0.4272
 7890TIP3   OH247864   0.276   0.474   6.641  0.2610 -0.6357 -0.0129
 7890TIP3    H147865   0.225   0.532   6.698  1.1151  2.0323 -1.7470
 7890TIP3    H247866   0.358   0.461   6.688  0.2263 -0.0366  0.2253
 7891TIP3   OH247867   5.644   4.211   4.686  0.1731  0.2032 -0.6832
 7891TIP3    H147868   5.712   4.267   4.724  1.8873 -2.2082  0.0430
 7891TIP3    H247869   5.683   4.181   4.603 -0.8729  0.3287 -1.2366
 7892TIP3   OH247870   4.396   5.515   6.217  0.5898 -0.3996 -0.0394
 7892TIP3    H147871   4.379   5.426   6.249  0.7317 -0.9495 -1.4187
 7892TIP3    H247872   4.488   5.514   6.192 -0.0626 -0.8091 -2.7675
 7893TIP3   OH247873   5.293   6.988   4.960 -0.1684 -0.1475  0.3676
 7893TIP3    H147874   5.373   7.018   4.917 -0.3564  3.1422  2.0653
 7893TIP3    H247875   5.324   6.934   5.032  0.3351 -1.2892 -0.6610
 7894TIP3   OH247876   3.538   7.202   5.221  0.5285  0.2631  0.3861
 7894TIP3    H147877   3.622   7.235   5.253  0.4668  1.0236 -0.1958
 7894TIP3    H247878   3.505   7.147   5.292  1.5432 -0.0877  0.5928
 7895TIP3   OH247879   3.024   1.700   6.418 -0.2489 -0.4969 -0.1744
 7895TIP3    H147880   3.105   1.718   6.371  0.0752 -2.1818 -0.2942
 7895TIP3    H247881   2.958   1.693   6.349 -0.6463  1.3855 -0.0477
 7896TIP3   OH247882   6.952   5.053   5.455  0.2427  0.5528  0.4874
 7896TIP3    H147883   6.971   4.959   5.453 -0.8072  0.3356 -0.0038
 7896TIP3    H247884   7.038   5.095   5.445  0.8590 -0.3232  1.7392
 7897TIP3   OH247885   7.063   5.883   6.093  0.2813  0.1902  0.1374
 7897TIP3    H147886   7.118   5.942   6.041  0.8312  0.2091  0.7224
 7897TIP3    H247887   7.002   5.845   6.030  1.5419 -0.5060 -0.7048
 7898TIP3   OH247888   3.592   0.970   6.488  0.0987  0.3466 -0.4276
 7898TIP3    H147889   3.563   0.879   6.494  0.1919  0.3110 -0.5110
 7898TIP3    H247890   3.620   0.992   6.577  0.7056  0.0820 -0.5465
 7899TIP3   OH247891   0.993   1.128   5.656 -0.3072  0.1016 -0.7959
 7899TIP3    H147892   1.034   1.205   5.616 -0.1540 -0.3033 -1.4379
 7899TIP3    H247893   0.924   1.103   5.594 -0.9846  0.2842 -0.1225
 7900TIP3   OH247894   2.768   2.136   5.334  0.3471 -0.1541 -0.0469
 7900TIP3    H147895   2.802   2.215   5.375 -0.6813 -0.4347  1.4155
 7900TIP3    H247896   2.718   2.167   5.259  0.2735  0.5635  0.2876
 7901TIP3   OH247897   0.192   1.652   5.270  0.2129  0.6981 -0.3914
 7901TIP3    H147898   0.249   1.616   5.338  2.1930  3.1605 -0.6144
 7901TIP3    H247899   0.153   1.575   5.228  1.8363 -1.0177  1.0709
 7902TIP3   OH247900   2.288   3.748   6.296  0.3820  0.6732 -0.1644
 7902TIP3    H147901   2.373   3.719   6.330  0.1553  0.2823  0.0779
 7902TIP3    H247902   2.245   3.789   6.372  0.2534  0.6380 -0.2171
 7903TIP3   OH247903   6.583   0.755   7.998  0.4131  0.7227 -0.0142
 7903TIP3    H147904   6.505   0.803   7.971 -0.0581 -0.3264 -0.5877
 7903TIP3    H247905   6.655   0.817   7.988  0.5372  0.1856 -4.9966
 7904TIP3   OH247906   3.145   0.573   6.180 -0.1860  0.1154  0.0315
 7904TIP3    H147907   3.080   0.642   6.168  0.6670  0.9446  0.0469
 7904TIP3    H247908   3.228   0.614   6.155  0.1510 -1.3769 -1.4782
 7905TIP3   OH247909   1.575   4.803   5.409  0.1814  0.2858 -0.4457
 7905TIP3    H147910   1.481   4.814   5.417  0.2925  2.0499 -1.1216
 7905TIP3    H247911   1.612   4.876   5.458  1.2384 -0.7313  0.3382
 7906TIP3   OH247912   1.094   6.086   5.488  0.4741  0.3504 -0.2442
 7906TIP3    H147913   1.181   6.047   5.499 -0.0337 -0.1650  2.7417
 7906TIP3    H247914   1.034   6.012   5.495 -0.2829  0.9020 -0.7902
 7907TIP3   OH247915   0.844   4.402  11.325 -0.2342  0.3768 -0.0339
 7907TIP3    H147916   0.924   4.443  11.358 -0.0506 -0.6757  0.9197
 7907TIP3    H247917   0.864   4.381  11.234  1.1850 -1.2269  0.5778
 7908TIP3   OH247918   6.115   5.268   6.120 -0.5463  0.0758 -0.2268
 7908TIP3    H147919   6.143   5.301   6.205 -1.5156 -0.3247  0.2725
 7908TIP3    H247920   6.034   5.316   6.101 -0.3191  0.1972 -0.9582
 7909TIP3   OH247921   0.800   1.844   6.818  0.6356 -0.2497 -0.3610
 7909TIP3    H147922   0.755   1.873   6.898  1.2629  0.0002 -0.0939
 7909TIP3    H247923   0.749   1.769   6.788  2.1979 -2.4562  2.0591
 7910TIP3   OH247924   7.620   5.045   6.676  0.3454  0.4084 -0.3063
 7910TIP3    H147925   7.712   5.058   6.697  0.2903 -1.0527  1.0437
 7910TIP3    H247926   7.573   5.109   6.730  0.4011 -1.2146  1.7778
 7911TIP3   OH247927   2.900   0.024   6.587 -0.3704 -0.1471 -0.2292
 7911TIP3    H147928   2.967   0.009   6.521  0.2030 -1.8420  0.6587
 7911TIP3    H247929   2.875   0.116   6.577  1.6048  0.3438 -1.0210
 7912TIP3   OH247930   1.900   7.593   4.607 -0.3959  0.3163  0.3160
 7912TIP3    H147931   1.882   7.659   4.673  0.5220 -0.3666  1.2807
 7912TIP3    H247932   1.924   7.643   4.529 -1.9765  1.1378  0.3113
 7913TIP3   OH247933   6.801   1.411   5.451  0.9004 -0.3807  0.5196
 7913TIP3    H147934   6.890   1.376   5.458  0.9524 -0.7821 -1.4426
 7913TIP3    H247935   6.813   1.505   5.434  1.0808 -0.7573 -1.7156
 7914TIP3   OH247936   4.041   1.872   5.041  0.0482  0.1656 -0.5701
 7914TIP3    H147937   4.112   1.830   5.089 -0.8981  0.6535  1.3232
 7914TIP3    H247938   4.080   1.893   4.956  1.9208 -0.3263  0.1100
 7915TIP3   OH247939   5.999   7.170   6.694 -0.7200  0.3361 -0.5104
 7915TIP3    H147940   6.081   7.122   6.690 -0.5354  0.5295  0.5959
 7915TIP3    H247941   6.006   7.223   6.774 -1.5399  1.0424 -0.8908
 7916TIP3   OH247942   4.145   2.681   5.868 -0.2276 -0.3477  0.2665
 7916TIP3    H147943   4.051   2.665   5.862 -0.2957 -0.4964  1.5770
 7916TIP3    H247944   4.153   2.765   5.913  0.2651  0.1819 -0.7634
 7917TIP3   OH247945   3.207   3.532   6.129  0.1697  0.5605  0.0058
 7917TIP3    H147946   3.265   3.456   6.128 -0.3987 -0.0333  2.6446
 7917TIP3    H247947   3.260   3.601   6.168  0.2096  1.1062 -0.9883
 7918TIP3   OH247948   1.589   6.199   6.570  0.3816 -0.7633 -0.0015
 7918TIP3    H147949   1.504   6.155   6.578  0.3084 -0.7116 -0.4587
 7918TIP3    H247950   1.635   6.178   6.651 -0.4458  0.0257  0.6837
 7919TIP3   OH247951   3.666   2.054   4.545 -0.0944  0.8934 -1.0184
 7919TIP3    H147952   3.620   1.972   4.528 -0.1287  0.7236 -0.1514
 7919TIP3    H247953   3.611   2.121   4.506 -0.0403  0.5072 -1.7858
 7920TIP3   OH247954   5.225   0.791   5.807  0.1396  0.2353  0.1568
 7920TIP3    H147955   5.192   0.880   5.803  2.6924  1.3258  1.0956
 7920TIP3    H247956   5.298   0.795   5.869  0.3619 -2.4964  0.1991
 7921TIP3   OH247957   5.819   7.048   4.930 -0.3318 -0.1025 -0.3836
 7921TIP3    H147958   5.738   7.034   4.980 -0.9940 -0.3448 -1.4988
 7921TIP3    H247959   5.841   6.961   4.896 -1.0166  0.3924 -2.1761
 7922TIP3   OH247960   1.078   6.964   5.728 -0.5754 -0.4693  0.3213
 7922TIP3    H147961   0.991   6.998   5.710 -0.1925  1.2328  1.4706
 7922TIP3    H247962   1.133   7.041   5.736  1.5139 -1.5484 -2.3800
 7923TIP3   OH247963   4.554   6.465   4.899  0.3325  0.1805 -0.4555
 7923TIP3    H147964   4.586   6.544   4.857  0.4309  0.6526  0.4880
 7923TIP3    H247965   4.631   6.429   4.945  0.2318 -0.3345 -0.6772
 7924TIP3   OH247966   1.084   5.350   5.528 -0.1369  0.4674 -0.1092
 7924TIP3    H147967   1.141   5.421   5.500  0.2096 -0.1926 -1.1054
 7924TIP3    H247968   1.102   5.341   5.622  0.2721  1.2756 -0.1022
 7925TIP3   OH247969   0.810   0.289   6.801 -0.0380 -0.0530  0.4957
 7925TIP3    H147970   0.811   0.194   6.804  0.6217 -0.0756 -0.2108
 7925TIP3    H247971   0.780   0.310   6.713 -0.5465  0.3973  0.7703
 7926TIP3   OH247972   1.714   0.439   6.057 -0.0107 -0.2165 -0.1778
 7926TIP3    H147973   1.775   0.366   6.040 -0.9641 -0.7588 -1.4727
 7926TIP3    H247974   1.737   0.504   5.991 -2.0215 -1.2241 -1.9911
 7927TIP3   OH247975   7.243   5.837   5.102  0.1618 -0.1458 -0.0841
 7927TIP3    H147976   7.252   5.743   5.119  1.3923  0.1090  0.8510
 7927TIP3    H247977   7.327   5.874   5.129 -0.9870  1.4797  1.4556
 7928TIP3   OH247978   0.432   4.854   6.688 -0.4929  0.8775 -0.3573
 7928TIP3    H147979   0.402   4.777   6.735  0.6133  0.6511  0.0161
 7928TIP3    H247980   0.478   4.819   6.611  2.4822  0.9457  1.2154
 7929TIP3   OH247981   2.936   4.020   6.465 -0.4645 -0.3314  0.3618
 7929TIP3    H147982   2.879   4.091   6.434 -0.5096 -0.5576 -0.0839
 7929TIP3    H247983   2.999   4.007   6.394  0.4010  0.1834  1.0192
 7930TIP3   OH247984   4.844   0.387   6.649 -0.4849 -0.1805 -0.6948
 7930TIP3    H147985   4.773   0.374   6.585 -1.1022  1.2119 -0.3375
 7930TIP3    H247986   4.812   0.347   6.730 -0.7541  0.2160 -0.6046
 7931TIP3   OH247987   3.706   1.422   5.415 -0.4583  0.1922  0.4112
 7931TIP3    H147988   3.637   1.487   5.429 -1.3731 -0.6986  0.2023
 7931TIP3    H247989   3.700   1.400   5.322  1.1526  1.2147  0.0234
 7932TIP3   OH247990   7.342   7.093   5.837  0.4588  0.1946 -0.0764
 7932TIP3    H147991   7.369   7.165   5.895 -0.9556  0.2827  0.5243
 7932TIP3    H247992   7.306   7.027   5.896 -1.3196  0.4233 -0.8298
 7933TIP3   OH247993   6.764   7.329   4.717  0.5718  0.0015 -0.1439
 7933TIP3    H147994   6.770   7.290   4.629  0.2293  0.6179 -0.4464
 7933TIP3    H247995   6.699   7.276   4.762 -0.9522  1.0623 -1.0223
 7934TIP3   OH247996   1.967   0.468   7.479 -0.4367 -0.6064  0.6002
 7934TIP3    H147997   2.049   0.421   7.490 -0.5382 -0.5505  1.6922
 7934TIP3    H247998   1.954   0.514   7.562 -0.0984  1.7501 -0.5780
 7935TIP3   OH247999   5.863   1.975   6.203  0.3788  0.3378  0.0233
 7935TIP3    H148000   5.780   1.996   6.160  0.0515 -0.1462  0.4094
 7935TIP3    H248001   5.857   2.016   6.289  0.6227  0.4621 -0.0164
 7936TIP3   OH248002   0.573   6.497   7.421 -0.6244  0.5232  0.1003
 7936TIP3    H148003   0.530   6.448   7.350 -1.4819 -0.9356  1.5556
 7936TIP3    H248004   0.632   6.434   7.462 -1.4425  0.7840  1.7705
 7937TIP3   OH248005   0.376   4.594   6.366  0.9028  0.0451  0.2860
 7937TIP3    H148006   0.301   4.572   6.422  1.7453 -1.2027  0.9749
 7937TIP3    H248007   0.347   4.670   6.317 -1.6316 -1.5964 -1.0051
 7938TIP3   OH248008   3.030   5.016   7.191 -0.4345  0.0556  0.3071
 7938TIP3    H148009   3.021   4.923   7.173 -2.7264  0.8453 -4.0635
 7938TIP3    H248010   3.120   5.037   7.164 -0.9107 -0.4638 -1.8737
 7939TIP3   OH248011   3.458   1.883   6.185 -0.3270  0.4217  0.0992
 7939TIP3    H148012   3.435   1.960   6.133  1.8776 -0.5156 -2.4300
 7939TIP3    H248013   3.537   1.848   6.144 -1.1185 -3.1078  1.2405
 7940TIP3   OH248014   5.828   4.849   6.297  0.1213  0.6171  0.0162
 7940TIP3    H148015   5.857   4.880   6.382  0.9681 -0.5597  0.1849
 7940TIP3    H248016   5.886   4.776   6.276 -1.7686 -0.8950 -0.3029
 7941TIP3   OH248017   7.578   2.716   4.970 -0.0959  0.0348 -0.2565
 7941TIP3    H148018   7.494   2.752   5.000  0.1879  1.3895 -0.9814
 7941TIP3    H248019   7.639   2.789   4.982  0.9078 -0.8145 -0.0978
 7942TIP3   OH248020   0.366   3.940   6.053 -0.0666  0.6174  0.4046
 7942TIP3    H148021   0.300   4.000   6.017  0.7392  1.4084  0.2036
 7942TIP3    H248022   0.358   3.950   6.148 -1.1905 -0.3664  0.4370
 7943TIP3   OH248023   3.047   2.090   6.537  0.7423  0.0106 -0.1280
 7943TIP3    H148024   3.022   2.114   6.626  0.9129  0.8574 -0.3001
 7943TIP3    H248025   2.975   2.036   6.505 -0.2271  1.2941 -0.1440
 7944TIP3   OH248026   0.024   1.917   5.107 -0.0700  0.1459 -0.3737
 7944TIP3    H148027   0.039   1.938   5.015  0.3064  2.8144  0.2135
 7944TIP3    H248028  -0.015   1.830   5.106  1.2524 -0.5054 -2.9455
 7945TIP3   OH248029   3.816   7.662   6.446  0.1629  0.0842 -0.1877
 7945TIP3    H148030   3.810   7.743   6.394 -1.9562  1.8577  2.5393
 7945TIP3    H248031   3.726   7.629   6.449  0.9073 -2.1666 -0.8082
 7946TIP3   OH248032   0.888   4.150   6.621 -0.0374  0.7794 -0.4209
 7946TIP3    H148033   0.824   4.178   6.686 -0.3572 -0.6241 -0.0867
 7946TIP3    H248034   0.973   4.177   6.658 -0.2076 -0.0218  0.6253
 7947TIP3   OH248035   2.123   4.275   6.022 -0.4281 -0.1885 -0.7387
 7947TIP3    H148036   2.125   4.298   6.115 -0.8996  1.9041 -1.1851
 7947TIP3    H248037   2.160   4.188   6.018 -1.3336 -0.7578  1.5294
 7948TIP3   OH248038   6.630   0.319   6.171 -0.4465 -0.1805  0.2924
 7948TIP3    H148039   6.535   0.322   6.155 -0.6500 -2.3246  0.8858
 7948TIP3    H248040   6.641   0.358   6.258 -1.1299 -2.2251  1.3519
 7949TIP3   OH248041   2.922   7.289   5.582 -0.4260 -0.4140 -0.1649
 7949TIP3    H148042   2.840   7.269   5.536 -2.0860  1.1757  1.9265
 7949TIP3    H248043   2.939   7.381   5.562 -0.1763 -0.2194  0.8968
 7950TIP3   OH248044   1.232   5.372   6.188 -0.3306  0.3898  0.1785
 7950TIP3    H148045   1.256   5.357   6.279  1.9660  1.4863 -0.1665
 7950TIP3    H248046   1.249   5.288   6.144  0.3881  0.3981  0.4357
 7951TIP3   OH248047   2.369   2.647   6.346 -0.3554  0.1067  0.1187
 7951TIP3    H148048   2.300   2.708   6.371 -1.6614 -0.8770 -0.9704
 7951TIP3    H248049   2.406   2.684   6.265 -0.3622  0.0521  0.0903
 7952TIP3   OH248050   0.510   6.849   7.206 -0.1460  0.6054  0.4009
 7952TIP3    H148051   0.415   6.856   7.207 -0.3534 -1.3671 -0.7639
 7952TIP3    H248052   0.535   6.845   7.298 -1.5858 -2.5122  0.7820
 7953TIP3   OH248053   5.221   2.142   7.125 -0.1297  0.1560  0.2266
 7953TIP3    H148054   5.266   2.129   7.041 -1.3222  0.2898 -0.4693
 7953TIP3    H248055   5.290   2.144   7.190  1.0978  2.6197 -1.0353
 7954TIP3   OH248056   1.062   5.028   6.914 -0.2240 -0.3241 -0.4831
 7954TIP3    H148057   1.027   5.093   6.852  0.8019 -0.6260 -1.4135
 7954TIP3    H248058   0.984   4.986   6.950 -0.9030 -1.5239 -3.0827
 7955TIP3   OH248059   2.502   7.375   5.356  0.4671 -0.1929 -0.3668
 7955TIP3    H148060   2.460   7.461   5.361 -1.4155 -1.0728 -0.2128
 7955TIP3    H248061   2.469   7.337   5.275 -1.1963 -1.9345  1.0141
 7956TIP3   OH248062   6.896   3.214   5.554 -0.1077  0.5189  0.0232
 7956TIP3    H148063   6.942   3.208   5.638 -1.5852 -0.2010  0.8293
 7956TIP3    H248064   6.909   3.304   5.525  0.5701  0.7229  0.9310
 7957TIP3   OH248065   6.378   5.468   4.962 -0.5719 -0.1921  0.7272
 7957TIP3    H148066   6.318   5.460   4.888 -0.6492 -0.1045  0.7813
 7957TIP3    H248067   6.372   5.560   4.988  0.4455  0.0992  0.0003
 7958TIP3   OH248068   3.547   7.274   5.585  0.3740 -0.4521  0.7201
 7958TIP3    H148069   3.611   7.221   5.539  1.3511  0.2521  1.2419
 7958TIP3    H248070   3.505   7.214   5.646  0.3796 -0.9614  0.2345
 7959TIP3   OH248071   4.949   1.671   6.282 -0.5996  0.0109  0.0554
 7959TIP3    H148072   4.973   1.653   6.191 -0.8811 -0.7304  0.1255
 7959TIP3    H248073   4.893   1.598   6.307  0.4578 -0.4313  1.2073
 7960TIP3   OH248074   7.474   6.301   5.338  0.2606  0.1014  0.2741
 7960TIP3    H148075   7.568   6.293   5.320  0.1702  0.1646 -0.2187
 7960TIP3    H248076   7.445   6.212   5.356  0.2721 -0.0146 -0.2703
 7961TIP3   OH248077   1.801   4.095   6.275 -0.2838  0.1698  0.1961
 7961TIP3    H148078   1.722   4.147   6.260  0.1307  0.6023 -0.5556
 7961TIP3    H248079   1.859   4.152   6.324  0.0058  0.2745 -0.2615
 7962TIP3   OH248080   0.573   7.536   6.642  0.1711  0.0734  0.3622
 7962TIP3    H148081   0.654   7.498   6.609 -0.3632 -0.5071 -0.2944
 7962TIP3    H248082   0.542   7.473   6.707 -1.4724 -1.4409 -1.7459
 7963TIP3   OH248083   4.990   1.099   6.730 -0.0242  0.1981 -0.5147
 7963TIP3    H148084   4.966   1.192   6.726  1.8867  0.6909 -2.7476
 7963TIP3    H248085   5.078   1.096   6.692 -0.2983 -2.6266 -1.1173
 7964TIP3   OH248086   5.704   0.351   5.797  0.2310  0.4773 -0.0792
 7964TIP3    H148087   5.755   0.371   5.718  0.9755  1.6423  0.6792
 7964TIP3    H248088   5.702   0.433   5.846  0.2528 -0.3734  1.3898
 7965TIP3   OH248089   5.449   0.751   5.535 -0.7311 -0.2966  0.0142
 7965TIP3    H148090   5.504   0.701   5.474 -1.5587  0.1031 -1.0862
 7965TIP3    H248091   5.497   0.833   5.549 -0.1943 -0.6787  0.4903
 7966TIP3   OH248092   3.389   0.165   6.024  0.7545 -0.5517 -0.1786
 7966TIP3    H148093   3.313   0.130   6.071  0.1948  1.3443  0.4128
 7966TIP3    H248094   3.369   0.150   5.932 -0.9701  1.0018 -0.1154
 7967TIP3   OH248095   6.553   5.819   6.672  0.3023  0.0924 -0.1264
 7967TIP3    H148096   6.591   5.820   6.584  1.4698  1.0754  0.3495
 7967TIP3    H248097   6.623   5.785   6.728 -0.4227 -0.5093  0.4437
 7968TIP3   OH248098   3.677   2.945   5.636  0.3766 -0.0888  0.1103
 7968TIP3    H148099   3.628   2.995   5.571  1.0066  1.6405  0.9123
 7968TIP3    H248100   3.765   2.937   5.599 -0.0161 -1.7327 -0.5651
 7969TIP3   OH248101   5.411   7.358   5.490  0.1071 -0.1042  0.5612
 7969TIP3    H148102   5.468   7.399   5.554  0.8639  0.7161 -0.5871
 7969TIP3    H248103   5.347   7.426   5.468 -0.0836 -0.3418  0.3781
 7970TIP3   OH248104   4.427   7.283   7.042  0.2163 -0.8027 -0.2506
 7970TIP3    H148105   4.384   7.224   6.981 -3.3707 -0.0532  1.2847
 7970TIP3    H248106   4.455   7.227   7.114 -0.1574 -1.0855 -0.3188
 7971TIP3   OH248107   1.324   5.598   6.074 -0.2527 -0.1976 -0.3044
 7971TIP3    H148108   1.399   5.583   6.016 -0.1448 -1.0816  0.0496
 7971TIP3    H248109   1.306   5.512   6.112 -1.6312 -0.0575 -0.5983
 7972TIP3   OH248110   1.077   3.098   5.391 -0.1793  0.1193 -0.7892
 7972TIP3    H148111   1.155   3.133   5.434 -0.5666 -0.9759  0.8971
 7972TIP3    H248112   1.037   3.175   5.349  0.8560  1.0188 -0.1883
 7973TIP3   OH248113   2.987   4.008   5.774  0.8339  0.5946 -0.3618
 7973TIP3    H148114   3.080   4.020   5.793  0.4953  1.4468  0.9032
 7973TIP3    H248115   2.944   4.012   5.859 -0.4463  1.0664 -0.9920
 7974TIP3   OH248116   5.173   2.390   6.972 -0.4684  0.0087 -0.6405
 7974TIP3    H148117   5.182   2.301   7.003  0.0100  0.1406 -0.3952
 7974TIP3    H248118   5.081   2.398   6.949 -0.6638 -0.3274  0.0113
 7975TIP3   OH248119   3.764   6.627   5.279  0.3648 -1.2105  0.1761
 7975TIP3    H148120   3.799   6.715   5.295 -0.2274 -0.7131 -1.1138
 7975TIP3    H248121   3.752   6.623   5.184  2.2140 -3.3983 -0.0487
 7976TIP3   OH248122   2.023   4.516   4.679 -0.2489  0.0529  0.4859
 7976TIP3    H148123   2.010   4.575   4.753 -1.9344 -0.1128  0.3630
 7976TIP3    H248124   1.975   4.557   4.607  0.9496 -0.0412 -0.3953
 7977TIP3   OH248125   7.557   5.872   6.928  0.4082  0.4109  0.2714
 7977TIP3    H148126   7.462   5.861   6.938  0.4285  1.4357  2.1715
 7977TIP3    H248127   7.574   5.850   6.837 -1.7464  0.7416 -0.2831
 7978TIP3   OH248128   3.768   1.976   6.059  0.3169  0.0326 -0.1213
 7978TIP3    H148129   3.821   2.055   6.067  1.2747 -0.5582 -0.3818
 7978TIP3    H248130   3.750   1.969   5.965 -2.2651  1.4825  0.1644
 7979TIP3   OH248131   5.465   5.728   6.766  0.2719 -0.5706  0.3742
 7979TIP3    H148132   5.405   5.768   6.704  1.3284  0.4594 -0.0235
 7979TIP3    H248133   5.506   5.656   6.717  1.0766  0.2163 -0.1384
 7980TIP3   OH248134   3.754   1.058   6.282  0.0337  0.0283 -0.6076
 7980TIP3    H148135   3.680   1.041   6.341  2.6309 -2.9921  2.2092
 7980TIP3    H248136   3.772   1.151   6.293 -3.1817  0.8396 -1.3303
 7981TIP3   OH248137   6.063   1.445   5.636 -0.1247 -0.2444 -0.3125
 7981TIP3    H148138   6.132   1.511   5.648  0.0976 -0.6963  1.0182
 7981TIP3    H248139   5.982   1.495   5.640  0.0758  0.1948 -1.2098
 7982TIP3   OH248140   2.467   6.535   5.461 -0.3707 -0.3031  0.0598
 7982TIP3    H148141   2.519   6.475   5.516  0.9514  0.1354 -0.6584
 7982TIP3    H248142   2.389   6.485   5.438  0.1319 -1.3100  0.4655
 7983TIP3   OH248143   6.048   2.173   5.579 -0.5632  0.2794  0.2924
 7983TIP3    H148144   6.098   2.180   5.660 -2.1966  1.6692  1.2438
 7983TIP3    H248145   6.093   2.105   5.528  1.2713  0.3179  1.7770
 7984TIP3   OH248146   6.269   0.486   5.748 -0.6150 -0.6240 -0.1432
 7984TIP3    H148147   6.195   0.547   5.754 -0.8713 -1.1087  2.3654
 7984TIP3    H248148   6.237   0.415   5.691 -0.9744  0.5886 -1.5231
 7985TIP3   OH248149   6.363   6.565   7.706 -0.2850 -0.3032  0.2606
 7985TIP3    H148150   6.367   6.613   7.622 -0.8869  0.7246  0.7954
 7985TIP3    H248151   6.443   6.512   7.707 -0.4578 -0.6283 -1.1330
 7986TIP3   OH248152   1.647   1.206   4.641 -0.0430  0.3071 -0.3930
 7986TIP3    H148153   1.684   1.124   4.607 -0.5975  0.8102 -2.3274
 7986TIP3    H248154   1.567   1.218   4.591  0.6299  2.6369 -1.0169
 7987TIP3   OH248155   5.598   0.182   7.192  0.1996  0.2183  0.1129
 7987TIP3    H148156   5.548   0.250   7.238  0.6288  0.9614 -0.4929
 7987TIP3    H248157   5.686   0.218   7.184  0.0887  0.2167 -1.4629
 7988TIP3   OH248158   6.089   7.654   5.748 -0.0724  0.4840 -0.2989
 7988TIP3    H148159   6.114   7.588   5.683  1.4392  0.5565  0.1602
 7988TIP3    H248160   5.995   7.639   5.762  0.2896 -1.9169  0.1311
 7989TIP3   OH248161   3.371   2.653   5.942  0.2662  0.5099  0.2747
 7989TIP3    H148162   3.302   2.716   5.923 -1.0976 -0.8366  0.6089
 7989TIP3    H248163   3.347   2.614   6.026  2.3392  1.1876  1.2595
 7990TIP3   OH248164   6.461   3.541   6.334 -0.2490 -0.2049  1.0331
 7990TIP3    H148165   6.408   3.558   6.257  0.3596 -0.2874  0.5839
 7990TIP3    H248166   6.539   3.496   6.300  1.5443  2.5417  1.2380
 7991TIP3   OH248167   0.060   1.303   6.509 -0.4498  0.0923 -0.5615
 7991TIP3    H148168   0.138   1.257   6.541 -0.6801  0.4151  0.4715
 7991TIP3    H248169   0.002   1.233   6.479 -1.2125 -0.4291  1.9138
 7992TIP3   OH248170   2.307   2.412   6.206 -0.2191  0.0160 -0.0817
 7992TIP3    H148171   2.345   2.487   6.250  0.7409 -0.4811 -0.0418
 7992TIP3    H248172   2.258   2.366   6.274  0.8131 -0.4553  0.3599
 7993TIP3   OH248173   3.880   0.588   6.897  0.1632  0.1602  0.3519
 7993TIP3    H148174   3.926   0.644   6.958 -0.0699  1.1175 -0.3206
 7993TIP3    H248175   3.805   0.554   6.947  0.2621  0.5172  0.7458
 7994TIP3   OH248176   4.440   5.207   4.950 -0.2403 -0.3025  0.5326
 7994TIP3    H148177   4.522   5.211   4.902  0.2150  0.5106  1.3566
 7994TIP3    H248178   4.401   5.123   4.924 -0.0459  0.1217 -1.2827
 7995TIP3   OH248179   0.047   0.694   7.573  0.0210 -0.3462 -0.3066
 7995TIP3    H148180   0.016   0.610   7.539  0.2209 -0.6430  0.2261
 7995TIP3    H248181  -0.028   0.753   7.566 -0.0504 -0.5047 -0.8991
 7996TIP3   OH248182   4.208   4.457   6.636 -0.2578  0.0632 -0.1473
 7996TIP3    H148183   4.201   4.494   6.724  1.0941 -1.1841  0.5164
 7996TIP3    H248184   4.122   4.421   6.618 -0.0074 -1.4895  1.5262
 7997TIP3   OH248185   5.878   3.181   5.124 -0.4770 -0.3235  0.1699
 7997TIP3    H148186   5.960   3.131   5.121  0.4846  0.9890  2.1596
 7997TIP3    H248187   5.840   3.160   5.209 -1.7439 -0.2009 -0.3497
 7998TIP3   OH248188   1.418   0.131   7.448 -0.4569 -0.3336 -0.0847
 7998TIP3    H148189   1.405   0.164   7.537  0.0411 -0.4835  0.0456
 7998TIP3    H248190   1.390   0.040   7.452 -0.2382 -0.3979 -0.0322
 7999TIP3   OH248191   4.018   3.970   6.700  0.0175 -0.4848  0.0153
 7999TIP3    H148192   3.979   3.965   6.613 -1.8015  1.8428  0.5771
 7999TIP3    H248193   4.096   4.024   6.689  0.1212 -0.6951 -0.2756
 8000TIP3   OH248194   6.812   4.739   5.436  0.5774  0.3911 -0.1146
 8000TIP3    H148195   6.800   4.776   5.524  0.3220 -0.1614  0.0846
 8000TIP3    H248196   6.724   4.721   5.405  0.6330  1.0923 -0.7151
 8001TIP3   OH248197   5.367   0.138   6.479  0.1506  0.3780  0.7276
 8001TIP3    H148198   5.410   0.220   6.453 -1.1020  1.5164  2.0652
 8001TIP3    H248199   5.274   0.156   6.466 -0.1472 -0.7909  1.2034
 8002TIP3   OH248200   6.893   1.101   5.497 -0.0308  0.1774 -0.0339
 8002TIP3    H148201   6.927   1.174   5.445 -0.5391  1.2524  1.0849
 8002TIP3    H248202   6.805   1.130   5.523  0.9771  0.6856  3.2293
 8003TIP3   OH248203   5.621   2.127   4.826 -0.2436  0.2854 -0.0714
 8003TIP3    H148204   5.576   2.211   4.839  0.5932  0.7562 -0.1096
 8003TIP3    H248205   5.706   2.138   4.869 -0.9188 -1.3027  1.7716
 8004TIP3   OH248206   0.502   4.969   6.033  0.4760 -0.4848 -0.4779
 8004TIP3    H148207   0.591   4.987   6.063 -0.0846  2.2482 -0.1700
 8004TIP3    H248208   0.491   5.027   5.957 -1.3101 -0.0632  0.0583
 8005TIP3   OH248209   0.778   1.586   4.943  0.2300  0.8162  0.8867
 8005TIP3    H148210   0.722   1.659   4.915  0.8235  0.7852 -0.4519
 8005TIP3    H248211   0.794   1.536   4.863  2.9924  1.3940  1.0027
 8006TIP3   OH248212   1.226   4.375   6.151  0.1305  0.1470  0.0215
 8006TIP3    H148213   1.180   4.309   6.202 -0.5992  0.9719  0.4685
 8006TIP3    H248214   1.159   4.439   6.128  0.4876 -0.0584 -1.7775
 8007TIP3   OH248215   1.658   2.711   6.715  0.4882 -0.0029  0.0497
 8007TIP3    H148216   1.728   2.711   6.779 -0.2175 -1.0962  0.8585
 8007TIP3    H248217   1.584   2.671   6.760 -1.4116  3.1293 -0.0053
 8008TIP3   OH248218   6.126   5.044   4.810  0.3348  0.2035  0.5375
 8008TIP3    H148219   6.089   5.081   4.890  2.9234  2.0038  1.0421
 8008TIP3    H248220   6.069   5.076   4.740 -0.8291  0.2571  1.4778
 8009TIP3   OH248221   4.203   6.277   6.315  0.5049  0.6145  0.1880
 8009TIP3    H148222   4.109   6.285   6.299  0.1135 -1.0678  1.4074
 8009TIP3    H248223   4.214   6.308   6.405  0.4475 -2.6689  1.4459
 8010TIP3   OH248224   4.500   1.032   5.748 -0.0977  0.6494 -0.0573
 8010TIP3    H148225   4.557   1.108   5.738  0.8013 -0.1184 -0.9143
 8010TIP3    H248226   4.489   0.998   5.660 -0.1266 -0.4873  0.3738
 8011TIP3   OH248227   5.151   0.530   5.757 -0.7584  0.9586  0.2261
 8011TIP3    H148228   5.062   0.545   5.726  0.1483  2.9837 -1.6706
 8011TIP3    H248229   5.188   0.618   5.763  1.0735  0.1624  1.1504
 8012TIP3   OH248230   3.357   7.107   5.723 -0.4182 -0.1858 -0.2583
 8012TIP3    H148231   3.291   7.140   5.661 -0.9020 -0.1853  0.2492
 8012TIP3    H248232   3.333   7.148   5.806  0.6344  0.3566 -0.2108
 8013TIP3   OH248233   3.866   0.504   6.180  0.0792 -0.2303  0.3665
 8013TIP3    H148234   3.916   0.433   6.140  0.4426 -0.5542  1.3570
 8013TIP3    H248235   3.888   0.581   6.129 -0.5747 -0.8633 -0.9438
 8014TIP3   OH248236   1.372   1.688   6.074  0.9033 -0.4984 -0.3958
 8014TIP3    H148237   1.307   1.618   6.070  0.7292 -0.2999 -1.8468
 8014TIP3    H248238   1.369   1.719   6.164 -3.2133  1.5320 -0.9916
 8015TIP3   OH248239   2.522   7.142   5.853  0.3503 -0.8097 -0.2133
 8015TIP3    H148240   2.594   7.155   5.915 -0.3230 -2.7293  1.0794
 8015TIP3    H248241   2.504   7.229   5.818  1.2262  0.2460  1.8042
 8016TIP3   OH248242   5.681   3.690   5.297  0.1472  0.1857 -0.1706
 8016TIP3    H148243   5.695   3.696   5.202  0.9345  0.7675 -0.0213
 8016TIP3    H248244   5.693   3.779   5.329 -0.1634 -0.0013  0.4762
 8017TIP3   OH248245   4.553   3.955   6.995 -0.0991 -0.2645  0.6926
 8017TIP3    H148246   4.589   4.044   6.999 -0.0107 -0.2791  0.2811
 8017TIP3    H248247   4.507   3.945   7.078  0.2548  0.0088  0.9322
 8018TIP3   OH248248   0.884   6.615   7.160  0.0356 -0.1596 -0.1753
 8018TIP3    H148249   0.871   6.644   7.251 -0.3337 -0.5196 -0.1118
 8018TIP3    H248250   0.808   6.648   7.113  0.0181 -0.3334 -0.2687
 8019TIP3   OH248251   1.888   1.870   5.405  0.0668  0.1492 -0.8217
 8019TIP3    H148252   1.981   1.882   5.428 -0.1031 -0.3065  0.1451
 8019TIP3    H248253   1.851   1.958   5.410  0.2628  0.2077 -0.3441
 8020TIP3   OH248254   3.809   6.472   5.495 -0.1323 -0.3661  0.1809
 8020TIP3    H148255   3.782   6.496   5.406  0.4799  1.9909  0.5621
 8020TIP3    H248256   3.900   6.442   5.485 -0.2447 -0.6322 -0.0545
 8021TIP3   OH248257   4.707   1.259   5.679  0.5542  0.2316  0.3783
 8021TIP3    H148258   4.739   1.242   5.590 -1.1120 -0.5324 -0.1176
 8021TIP3    H248259   4.726   1.351   5.694  0.8671  0.3670 -0.7608
 8022TIP3   OH248260   7.591   2.528   5.804  0.1457  0.1201  0.1196
 8022TIP3    H148261   7.658   2.524   5.735 -0.9023 -1.0328 -0.8703
 8022TIP3    H248262   7.508   2.523   5.758 -0.6292  0.5681  1.4023
 8023TIP3   OH248263   1.505   1.643   7.188 -0.4475  0.2090 -0.1339
 8023TIP3    H148264   1.431   1.687   7.146 -1.7057  0.2392  1.9460
 8023TIP3    H248265   1.472   1.619   7.275  1.8201 -0.3045  0.6545
 8024TIP3   OH248266   3.702   2.736   5.288 -0.2018  0.0058 -0.7955
 8024TIP3    H148267   3.704   2.809   5.349 -1.9585 -0.0390 -0.6458
 8024TIP3    H248268   3.688   2.659   5.342 -0.3336 -0.2107 -1.1325
 8025TIP3   OH248269   7.352   5.435   5.806 -0.3253 -0.0017  0.1158
 8025TIP3    H148270   7.316   5.523   5.797  0.0913  0.0494 -1.5006
 8025TIP3    H248271   7.441   5.449   5.838  0.6081  0.4194 -2.3823
 8026TIP3   OH248272   2.966   4.367   5.720  0.1832 -0.3412  0.9454
 8026TIP3    H148273   2.903   4.436   5.739 -0.1573 -0.4927  0.3803
 8026TIP3    H248274   2.966   4.313   5.799  0.1216  0.0447  1.2168
 8027TIP3   OH248275   4.897   0.087   7.057 -0.0598 -0.0407  0.0389
 8027TIP3    H148276   4.929   0.013   7.109  0.5238  1.2551  1.6098
 8027TIP3    H248277   4.802   0.077   7.057 -0.0583 -0.2233  1.1594
 8028TIP3   OH248278   5.358   4.937   6.165 -0.1637 -0.1267 -0.4391
 8028TIP3    H148279   5.393   5.024   6.142 -0.3578  0.0907  0.0690
 8028TIP3    H248280   5.424   4.876   6.132  0.9699  0.2966  0.9244
 8029TIP3   OH248281   0.410   4.370   6.187 -0.4565 -0.2636  0.6876
 8029TIP3    H148282   0.322   4.362   6.150 -0.0268 -0.5115 -0.3312
 8029TIP3    H248283   0.411   4.457   6.228 -0.1474  1.2553 -2.2641
 8030TIP3   OH248284   5.033   5.766   6.578  0.0095  0.2826 -0.9595
 8030TIP3    H148285   4.976   5.767   6.502 -0.4606 -1.8447 -0.7163
 8030TIP3    H248286   5.026   5.853   6.616 -2.3480  0.3656 -1.4645
 8031TIP3   OH248287   7.135   5.035   5.797  0.1998 -0.1972 -0.0098
 8031TIP3    H148288   7.112   5.039   5.890 -0.3854 -1.9022 -0.0516
 8031TIP3    H248289   7.058   5.070   5.752  0.3267  0.2590  0.1238
 8032TIP3   OH248290   7.312   7.377   5.651 -0.1927 -0.5020  0.3239
 8032TIP3    H148291   7.370   7.354   5.579 -1.6528 -2.8531 -0.2480
 8032TIP3    H248292   7.365   7.363   5.730  0.6429 -0.5194 -0.2293
 8033TIP3   OH248293   1.680   6.624   5.746  0.8270 -0.1183  0.2702
 8033TIP3    H148294   1.612   6.583   5.692  1.0793 -0.0421 -0.1156
 8033TIP3    H248295   1.752   6.560   5.745  0.8309 -0.1159  0.5180
 8034TIP3   OH248296   5.933   3.966   5.752  0.3266  0.6970 -0.0703
 8034TIP3    H148297   5.875   3.941   5.825  0.0760 -2.4683 -1.1749
 8034TIP3    H248298   5.901   3.914   5.678  2.3139  1.6787 -1.7083
 8035TIP3   OH248299   7.679   0.469   6.189  0.2564 -0.2967 -0.1395
 8035TIP3    H148300   7.673   0.407   6.116 -0.7402 -2.2448  1.4971
 8035TIP3    H248301   7.672   0.555   6.148  1.2912 -1.2237 -2.4776
 8036TIP3   OH248302   7.538   2.105   5.502  0.1159  0.3378 -0.5276
 8036TIP3    H148303   7.478   2.141   5.567 -0.1096  1.7108 -1.4781
 8036TIP3    H248304   7.520   2.153   5.422 -1.5716 -3.1344 -2.4975
 8037TIP3   OH248305   1.160   3.844   5.994  0.2205 -0.4647  0.2260
 8037TIP3    H148306   1.203   3.887   5.920 -0.0622 -0.4126  0.0881
 8037TIP3    H248307   1.088   3.903   6.018  0.8686 -0.0293  1.1497
 8038TIP3   OH248308   2.052   4.636   7.052 -0.5042  1.2225 -0.0145
 8038TIP3    H148309   2.144   4.616   7.066 -0.4531  0.1991 -1.5270
 8038TIP3    H248310   2.014   4.642   7.140  0.5255 -0.7183  0.6156
 8039TIP3   OH248311   5.243   2.464   5.190  0.2071  0.0401  0.2644
 8039TIP3    H148312   5.249   2.454   5.095  0.2942  0.4676  0.2209
 8039TIP3    H248313   5.320   2.515   5.213 -0.8257  1.6385  0.3067
 8040TIP3   OH248314   5.738   7.444   5.137  0.2515 -0.1591 -0.4565
 8040TIP3    H148315   5.661   7.400   5.172 -0.3831  0.2800 -1.2430
 8040TIP3    H248316   5.810   7.383   5.152  0.0149 -0.0138  1.5109
 8041TIP3   OH248317   4.297   0.764   5.881 -0.3063 -0.2607  0.2409
 8041TIP3    H148318   4.303   0.706   5.805  0.7400  0.0356  0.0733
 8041TIP3    H248319   4.385   0.762   5.919  0.1589  2.2479 -0.5604
 8042TIP3   OH248320   7.263   3.134   6.553  0.0356 -0.1623 -0.1794
 8042TIP3    H148321   7.267   3.216   6.504 -0.9905 -0.4205 -0.7118
 8042TIP3    H248322   7.174   3.130   6.587 -0.1644 -1.4212 -0.8031
 8043TIP3   OH248323   5.779   7.063   6.584  0.0484 -0.1538 -0.5080
 8043TIP3    H148324   5.851   7.100   6.634  0.6474  1.0017 -2.1256
 8043TIP3    H248325   5.707   7.054   6.647  1.1627 -0.0283  0.8155
 8044TIP3   OH248326   3.473   1.581   5.141 -0.0700  0.1346  0.0392
 8044TIP3    H148327   3.407   1.646   5.116  1.9581  1.1820 -3.2951
 8044TIP3    H248328   3.547   1.632   5.172  1.8470 -0.2898 -3.3252
 8045TIP3   OH248329   5.364   1.633   6.371 -0.0779 -0.6375  0.0587
 8045TIP3    H148330   5.311   1.657   6.447 -0.9798 -1.0048 -0.4385
 8045TIP3    H248331   5.451   1.617   6.407 -0.5385 -1.0146  1.0517
 8046TIP3   OH248332   5.044   0.387   4.954  0.0681  0.0387  0.2573
 8046TIP3    H148333   4.964   0.423   4.915  0.1171  0.3447  0.4376
 8046TIP3    H248334   5.017   0.303   4.991 -0.6842  1.0944  2.2381
 8047TIP3   OH248335   2.859   4.219   6.043 -0.0845  0.0129 -0.3874
 8047TIP3    H148336   2.932   4.278   6.058 -0.4896  0.2957  0.5833
 8047TIP3    H248337   2.894   4.132   6.062 -0.1274  0.2011  0.6096
 8048TIP3   OH248338   1.330   1.766   6.758  0.2731 -0.5083  0.2667
 8048TIP3    H148339   1.234   1.772   6.753  0.3310  1.5791  0.7519
 8048TIP3    H248340   1.359   1.856   6.768  2.3235 -1.0984  0.0610
 8049TIP3   OH248341   3.417   6.311   5.421  0.0712  0.9537 -0.6113
 8049TIP3    H148342   3.474   6.262   5.480 -0.4594  1.3668  0.2499
 8049TIP3    H248343   3.413   6.257   5.342 -0.0675 -0.1230  0.1131
 8050TIP3   OH248344   5.847   2.940   5.770 -0.2991  0.4349 -0.0707
 8050TIP3    H148345   5.910   3.007   5.745  0.6873 -0.3577  0.2370
 8050TIP3    H248346   5.781   2.943   5.701  1.1442 -0.1101 -1.5315
 8051TIP3   OH248347   3.326   0.372   4.531  0.5694  0.0723  0.4305
 8051TIP3    H148348   3.268   0.434   4.574 -1.3355 -1.0220 -0.4355
 8051TIP3    H248349   3.300   0.287   4.566  0.9904 -0.5373 -0.6708
 8052TIP3   OH248350   4.788   4.925   5.069  0.4014  0.5438 -0.2816
 8052TIP3    H148351   4.883   4.915   5.057  0.3172  1.3126 -1.7505
 8052TIP3    H248352   4.749   4.863   5.009 -0.0211  1.9260 -1.4961
 8053TIP3   OH248353   4.387   0.580   4.310 -0.3805 -0.0797 -0.1618
 8053TIP3    H148354   4.401   0.618   4.223  1.5625  0.8371  0.4920
 8053TIP3    H248355   4.317   0.517   4.298 -0.7251  0.6314 -2.2198
 8054TIP3   OH248356   7.049   0.588   5.210 -0.5097 -0.1270 -0.4668
 8054TIP3    H148357   6.972   0.638   5.184  0.4363  1.9798  0.5900
 8054TIP3    H248358   7.044   0.584   5.305  0.2145 -0.7694 -0.4479
 8055TIP3   OH248359   7.223   6.225   4.978  0.4824 -0.5328 -0.0606
 8055TIP3    H148360   7.188   6.270   4.901  0.9659 -0.4952 -0.2601
 8055TIP3    H248361   7.228   6.133   4.953 -2.4463 -1.1159  1.0187
 8056TIP3   OH248362   6.848   3.817   6.234  0.2986 -0.3858 -0.2249
 8056TIP3    H148363   6.840   3.910   6.254  0.1793 -0.4378 -0.0317
 8056TIP3    H248364   6.906   3.783   6.302  1.7898 -0.1077 -1.3119
 8057TIP3   OH248365   2.099   0.787   6.105  0.6491  0.3104 -0.4913
 8057TIP3    H148366   2.040   0.749   6.041  0.9869 -1.1046  0.0133
 8057TIP3    H248367   2.049   0.859   6.144 -0.9996 -1.1932  0.3175
 8058TIP3   OH248368   6.634   2.287   7.110 -0.2799 -0.1402  0.3062
 8058TIP3    H148369   6.724   2.306   7.083 -0.3263 -0.2910  0.0303
 8058TIP3    H248370   6.616   2.347   7.181 -0.0412  0.0561  0.2012
 8059TIP3   OH248371   6.430   7.486   5.313 -0.2411 -0.1865  0.0679
 8059TIP3    H148372   6.405   7.519   5.226 -2.0134 -0.2854  0.5022
 8059TIP3    H248373   6.368   7.414   5.329 -0.1534  0.0595  1.5604
 8060TIP3   OH248374   2.048   1.077   5.141 -0.2167 -0.2499  0.1505
 8060TIP3    H148375   1.954   1.089   5.126  0.2298  1.0556 -1.8932
 8060TIP3    H248376   2.065   0.988   5.112 -0.7100 -0.2686 -0.0963
 8061TIP3   OH248377   2.470   5.258   5.388 -0.5834 -0.1046 -0.3309
 8061TIP3    H148378   2.506   5.330   5.440 -0.4922 -0.9479  0.8141
 8061TIP3    H248379   2.492   5.281   5.298  3.2410 -0.7294  0.2837
 8062TIP3   OH248380   0.694   7.522   6.095 -0.3277  0.2685  0.2241
 8062TIP3    H148381   0.728   7.558   6.177  0.2795 -0.5339  0.3405
 8062TIP3    H248382   0.725   7.582   6.028 -1.4816  1.3718  0.6299
 8063TIP3   OH248383   2.313   7.149   6.793 -0.2159  0.0530 -0.6005
 8063TIP3    H148384   2.250   7.207   6.749 -0.4247  0.3482  0.0759
 8063TIP3    H248385   2.268   7.065   6.799 -0.3942  0.1589 -0.4658
 8064TIP3   OH248386   4.331   7.083   6.857  0.1350  0.2980  0.1594
 8064TIP3    H148387   4.325   7.035   6.774 -0.4986 -0.0147  0.3754
 8064TIP3    H248388   4.273   7.035   6.916 -0.5812  1.3814  0.3635
 8065TIP3   OH248389   6.890   3.062   4.856 -0.4125  0.5678  0.0210
 8065TIP3    H148390   6.981   3.078   4.832 -0.5398  0.9384 -0.2141
 8065TIP3    H248391   6.883   3.092   4.947  0.5058 -2.3973  1.2053
 8066TIP3   OH248392   5.036   0.313   7.174  0.4594  0.1038  0.3441
 8066TIP3    H148393   5.111   0.273   7.129  1.3096  1.8613  0.1278
 8066TIP3    H248394   4.960   0.271   7.136  1.3089 -2.8975  1.6590
 8067TIP3   OH248395   5.908   6.581   7.489 -0.2448 -0.0709  0.2724
 8067TIP3    H148396   5.926   6.544   7.402  1.6198 -0.5165  0.8031
 8067TIP3    H248397   5.975   6.543   7.546 -1.1797  0.5193  1.8473
 8068TIP3   OH248398   4.189   5.266   6.774  0.2358  0.0529  0.2825
 8068TIP3    H148399   4.206   5.179   6.737  2.0671  1.1608 -1.7806
 8068TIP3    H248400   4.230   5.264   6.860 -0.1776 -1.2633  0.4680
 8069TIP3   OH248401   5.680   4.630   6.713 -0.5885 -0.2967 -0.5372
 8069TIP3    H148402   5.725   4.563   6.764  2.4413  1.4694 -0.6487
 8069TIP3    H248403   5.705   4.612   6.622 -0.9642  0.1049 -0.7224
 8070TIP3   OH248404   4.569   2.958   5.855  0.3210  0.1138  0.0855
 8070TIP3    H148405   4.571   2.958   5.950  0.3312 -0.2671  0.0860
 8070TIP3    H248406   4.633   2.892   5.829  1.5153  1.3498 -0.2177
 8071TIP3   OH248407   1.527   5.444   6.426  0.2016  0.5896 -0.0818
 8071TIP3    H148408   1.550   5.536   6.418 -1.1425  1.1597  1.9155
 8071TIP3    H248409   1.432   5.443   6.439  0.0592 -1.1541 -0.9060
 8072TIP3   OH248410   7.522   4.566   5.059 -0.2556 -0.0350  0.0555
 8072TIP3    H148411   7.584   4.526   5.120 -1.5072 -0.4379  1.0967
 8072TIP3    H248412   7.551   4.537   4.972  0.8888 -0.3593  0.5333
 8073TIP3   OH248413   5.159   6.883   7.076 -0.6428  0.2213  0.0826
 8073TIP3    H148414   5.090   6.906   7.138 -0.2600  0.9973  0.2363
 8073TIP3    H248415   5.180   6.792   7.096 -0.4583  0.4907  1.1765
 8074TIP3   OH248416   5.351   6.513   5.406 -0.2614  0.1898 -0.2346
 8074TIP3    H148417   5.395   6.581   5.356 -0.4714  0.8434  0.4384
 8074TIP3    H248418   5.419   6.477   5.464 -0.5979  1.2663  0.8744
 8075TIP3   OH248419   4.491   1.024   6.396 -0.7110 -0.4892  0.1457
 8075TIP3    H148420   4.509   1.081   6.322  1.1215 -0.4313  0.5923
 8075TIP3    H248421   4.481   0.937   6.358 -0.5137 -0.3420 -0.2435
 8076TIP3   OH248422   6.469   2.051   7.080  0.8118 -0.0598  0.1452
 8076TIP3    H148423   6.518   2.115   7.132 -1.5832  0.0877  2.3644
 8076TIP3    H248424   6.448   1.981   7.141  0.9551 -1.6546 -1.5634
 8077TIP3   OH248425   6.029   5.432   6.456 -0.1341 -0.1489  0.0647
 8077TIP3    H148426   6.068   5.426   6.543  1.3230 -1.7512 -0.6417
 8077TIP3    H248427   5.960   5.366   6.455  0.0611 -0.3506 -0.0982
 8078TIP3   OH248428   4.951   5.631   5.080 -0.3489  0.4406 -0.3760
 8078TIP3    H148429   4.930   5.543   5.048  0.1369 -0.1231  0.8028
 8078TIP3    H248430   5.017   5.617   5.148 -1.2855  1.5789  0.8186
 8079TIP3   OH248431   6.827   1.391   7.554 -0.3014  0.3970  0.3986
 8079TIP3    H148432   6.814   1.305   7.594 -1.0698  0.9771  1.4542
 8079TIP3    H248433   6.884   1.375   7.479  0.9146 -0.7924  1.5306
 8080TIP3   OH248434   2.056   3.596   6.753 -0.2250  0.1325  0.0185
 8080TIP3    H148435   2.088   3.674   6.708 -0.0832  0.1369  0.1288
 8080TIP3    H248436   2.135   3.548   6.778 -0.3153 -0.4566 -0.7762
 8081TIP3   OH248437   2.322   6.063   5.422 -0.5345  0.1874  0.1189
 8081TIP3    H148438   2.262   6.091   5.492  0.0903 -2.3426  1.8202
 8081TIP3    H248439   2.272   5.999   5.372  0.3138 -1.1182  0.8757
 8082TIP3   OH248440   4.629   6.402   5.264 -0.1432 -0.0500 -0.0040
 8082TIP3    H148441   4.681   6.375   5.188  0.2375  0.2534  0.1443
 8082TIP3    H248442   4.560   6.337   5.271 -1.0818  0.7283 -1.5143
 8083TIP3   OH248443   6.698   4.877   7.562  0.0932  0.1280 -0.5267
 8083TIP3    H148444   6.773   4.839   7.608 -0.3322  0.4488  0.4552
 8083TIP3    H248445   6.714   4.856   7.470  1.1717 -0.1772 -0.2906
 8084TIP3   OH248446   6.944   5.263   7.029 -0.6390  0.6284  0.0090
 8084TIP3    H148447   7.030   5.305   7.025 -0.1167 -0.3092  1.1028
 8084TIP3    H248448   6.922   5.262   7.122 -1.8987  0.9624 -0.2694
 8085TIP3   OH248449   2.141   2.577   7.157 -0.6741  0.2745  0.3665
 8085TIP3    H148450   2.146   2.481   7.162  0.1413  0.3422  1.0929
 8085TIP3    H248451   2.227   2.607   7.187 -0.9405  1.2394  0.1948
 8086TIP3   OH248452   5.349   6.584   5.715 -0.2362 -0.0569 -0.1138
 8086TIP3    H148453   5.326   6.649   5.781 -1.1386 -1.1895  0.7294
 8086TIP3    H248454   5.425   6.539   5.752 -1.4542 -1.4833  0.7653
 8087TIP3   OH248455   5.786   7.230   6.336 -0.4138 -0.1379 -0.4679
 8087TIP3    H148456   5.800   7.185   6.419  0.1637 -1.0552 -1.0467
 8087TIP3    H248457   5.738   7.309   6.359 -0.6713 -0.6173  0.6777
 8088TIP3   OH248458   4.084   5.812   5.122  0.6905 -0.0802  0.5310
 8088TIP3    H148459   4.064   5.725   5.087 -0.5530 -0.4414  2.0265
 8088TIP3    H248460   4.154   5.796   5.185 -0.0248 -0.1464  1.3320
 8089TIP3   OH248461   2.058   6.026   6.286 -0.1576  0.9447  0.1046
 8089TIP3    H148462   2.120   5.953   6.294 -0.0803  1.0175  0.1682
 8089TIP3    H248463   1.999   6.000   6.215  0.4725  1.2565 -0.5463
 8090TIP3   OH248464   4.118   0.893   6.066 -0.4310 -0.0153  0.0250
 8090TIP3    H148465   4.127   0.988   6.057 -0.3295  0.0594  0.8426
 8090TIP3    H248466   4.194   0.858   6.020 -0.1890  0.3259  0.1515
 8091TIP3   OH248467   5.395   5.971   6.145 -0.3359 -0.2406  0.2900
 8091TIP3    H148468   5.422   5.914   6.074 -1.4452  0.0664 -0.4002
 8091TIP3    H248469   5.476   6.014   6.174  0.1278 -0.3860 -0.7693
 8092TIP3   OH248470   7.340   4.512   5.951 -0.4350 -0.2238  0.0299
 8092TIP3    H148471   7.423   4.528   5.908 -0.6138  0.8179  0.0529
 8092TIP3    H248472   7.353   4.430   5.998  0.0065 -0.9919 -1.3642
 8093TIP3   OH248473   1.477   2.445   6.556 -0.0923  0.1903 -0.2556
 8093TIP3    H148474   1.500   2.407   6.641 -0.2323 -0.4751 -0.5124
 8093TIP3    H248475   1.444   2.533   6.578  1.6518  0.7828  0.2121
 8094TIP3   OH248476   1.818   2.973   6.255 -0.0166  0.0198  0.5966
 8094TIP3    H148477   1.886   2.947   6.193  0.1746 -0.6820  1.0976
 8094TIP3    H248478   1.863   2.978   6.339 -0.8686 -1.8556  1.1959
 8095TIP3   OH248479   6.283   3.766   5.731 -0.4115  0.1032  0.0537
 8095TIP3    H148480   6.367   3.741   5.693 -0.6014 -0.9795  0.3279
 8095TIP3    H248481   6.218   3.735   5.669 -0.6241  1.0912 -0.2411
 8096TIP3   OH248482   5.494   6.070   6.987 -0.0623 -0.7981  0.0867
 8096TIP3    H148483   5.412   6.056   7.035 -1.5511  1.3063 -1.6198
 8096TIP3    H248484   5.546   5.992   7.005 -2.0545 -1.7998  1.9917
 8097TIP3   OH248485   5.608   3.277   6.141 -0.3697 -0.5153 -0.2253
 8097TIP3    H148486   5.572   3.356   6.101 -0.7916 -0.5433  0.1019
 8097TIP3    H248487   5.536   3.241   6.193  0.2796 -0.2909  0.8540
 8098TIP3   OH248488   3.531   1.307   5.208 -0.2558 -0.5749 -0.1328
 8098TIP3    H148489   3.498   1.388   5.170 -1.2364 -0.0179  1.7811
 8098TIP3    H248490   3.485   1.298   5.291  1.8753 -1.6260  1.0392
 8099TIP3   OH248491   3.032   2.523   5.960 -0.1043 -0.1029 -0.2584
 8099TIP3    H148492   3.081   2.519   6.042  0.1553 -0.8612 -0.4478
 8099TIP3    H248493   2.950   2.478   5.980  0.3058 -1.0524 -0.6429
 8100TIP3   OH248494   3.217   4.344   4.848  0.0737  0.0501 -0.1100
 8100TIP3    H148495   3.187   4.322   4.759  1.3076  0.6926 -0.7152
 8100TIP3    H248496   3.148   4.401   4.883 -1.1852 -1.4599 -0.0394
 8101TIP3   OH248497   2.690   4.872   6.700  0.8441 -0.5683 -0.3920
 8101TIP3    H148498   2.643   4.921   6.632  1.6886  0.8505  0.0298
 8101TIP3    H248499   2.669   4.917   6.782  0.8541 -1.5080  0.1458
 8102TIP3   OH248500   6.402   0.677   5.384 -0.0297 -0.0104  0.3728
 8102TIP3    H148501   6.495   0.700   5.379  0.1630 -0.8066  0.1283
 8102TIP3    H248502   6.361   0.753   5.426  0.6498  0.5563  0.0430
 8103TIP3   OH248503   1.635   0.146   5.951  0.0806  0.0916  0.0795
 8103TIP3    H148504   1.574   0.085   5.909  1.1631 -0.1192 -1.2212
 8103TIP3    H248505   1.599   0.232   5.931  0.6959  0.0065 -1.5301
 8104TIP3   OH248506   2.194   3.818   5.544  0.2426 -0.2720 -0.3723
 8104TIP3    H148507   2.108   3.808   5.585 -0.0466 -0.6798 -1.0820
 8104TIP3    H248508   2.207   3.737   5.495  0.6231  0.1835 -1.0271
 8105TIP3   OH248509   4.959   5.544   6.057  0.5908 -0.0854 -0.4504
 8105TIP3    H148510   4.955   5.505   6.145 -2.2988 -0.5861 -0.7038
 8105TIP3    H248511   5.037   5.505   6.018  1.3289 -0.7117  1.5053
 8106TIP3   OH248512   4.306   2.948   5.749 -0.3286 -0.2012 -0.6283
 8106TIP3    H148513   4.312   3.003   5.671  0.3875 -0.2773 -0.6365
 8106TIP3    H248514   4.378   2.978   5.805 -1.6152  0.7543  0.6062
 8107TIP3   OH248515   6.989   7.199   5.536  0.4473  0.1876 -0.0155
 8107TIP3    H148516   7.024   7.225   5.621  1.6893  0.3712 -0.5710
 8107TIP3    H248517   6.996   7.278   5.482 -0.0987  0.0006 -0.3688
 8108TIP3   OH248518   7.021   3.000   6.380  0.2329 -0.3210 -0.7523
 8108TIP3    H148519   7.029   2.905   6.392  3.2878  0.0183  0.6943
 8108TIP3    H248520   6.932   3.020   6.409  0.4424 -2.3975  1.6302
 8109TIP3   OH248521   2.611   1.956   5.499 -0.6909  0.2966 -0.3489
 8109TIP3    H148522   2.661   1.874   5.491 -0.4882  0.4088 -0.2452
 8109TIP3    H248523   2.642   2.010   5.427 -0.1888  0.6123  0.0952
 8110TIP3   OH248524   0.151   4.149   5.964  0.2330 -0.3045 -0.3161
 8110TIP3    H148525   0.060   4.134   5.938  0.3143  1.4551 -1.8291
 8110TIP3    H248526   0.147   4.226   6.022  0.7394 -0.3768 -0.1737
 8111TIP3   OH248527   1.566   6.072   4.649  0.4843  0.2722  0.0481
 8111TIP3    H148528   1.505   6.003   4.674  1.9395 -1.0439  0.1609
 8111TIP3    H248529   1.567   6.069   4.553 -2.5424  3.0230 -0.2340
 8112TIP3   OH248530   2.287   3.451   7.190  0.0357  0.2121  0.2153
 8112TIP3    H148531   2.356   3.518   7.186 -0.7718  1.0166 -2.1232
 8112TIP3    H248532   2.211   3.498   7.224 -0.4278  0.4452 -1.0715
 8113TIP3   OH248533   4.445   4.179   5.372  0.1918  0.1638 -0.1994
 8113TIP3    H148534   4.482   4.091   5.367 -0.6802 -0.1622 -1.3364
 8113TIP3    H248535   4.522   4.237   5.371  0.7468 -0.5596 -0.2250
 8114TIP3   OH248536   7.474   1.765   5.731 -0.0944  0.6768  0.1265
 8114TIP3    H148537   7.416   1.772   5.806  0.1162  0.9631  0.2630
 8114TIP3    H248538   7.424   1.801   5.658 -0.3757  0.2104  0.0817
 8115TIP3   OH248539   7.195   1.200   6.691 -0.5397  0.3946  0.0459
 8115TIP3    H148540   7.138   1.153   6.751 -0.6657 -0.1321 -0.4752
 8115TIP3    H248541   7.185   1.155   6.607  0.7453  0.2004 -0.0232
 8116TIP3   OH248542   0.818   3.064   6.026 -0.7505  0.1525 -0.1438
 8116TIP3    H148543   0.826   3.054   5.931 -2.8450 -0.1113 -0.3277
 8116TIP3    H248544   0.831   2.976   6.060  1.2332  0.4292 -0.0169
 8117TIP3   OH248545   1.545   0.449   4.696 -0.1439  0.0473 -0.8926
 8117TIP3    H148546   1.609   0.387   4.659 -2.0771 -2.0383 -0.9917
 8117TIP3    H248547   1.516   0.407   4.777 -0.1706  1.7863  0.0330
 8118TIP3   OH248548   3.161   4.917   5.805 -0.9468 -0.6921  0.0553
 8118TIP3    H148549   3.232   4.943   5.865 -0.0301 -0.9686 -0.8784
 8118TIP3    H248550   3.081   4.949   5.847 -0.1028  1.4196  0.1673
 8119TIP3   OH248551   1.561   5.573   5.196  0.0249  0.3138 -0.1015
 8119TIP3    H148552   1.511   5.596   5.275  0.3736 -3.4662  1.3946
 8119TIP3    H248553   1.646   5.614   5.209  0.1161 -0.3379  1.6119
 8120TIP3   OH248554   4.736   7.131   5.392 -0.2596  0.5492 -0.3335
 8120TIP3    H148555   4.827   7.137   5.365 -0.4183  2.4923 -0.5556
 8120TIP3    H248556   4.687   7.120   5.310 -0.3124  0.6920 -0.3216
 8121TIP3   OH248557   6.961   5.640   6.444  0.3611  0.2442  0.4025
 8121TIP3    H148558   7.034   5.655   6.503 -0.2292 -0.2292  1.2730
 8121TIP3    H248559   6.948   5.545   6.446 -0.1156  0.2987  0.0581
 8122TIP3   OH248560   6.242   0.833  13.032 -0.6005 -0.5111  0.3231
 8122TIP3    H148561   6.334   0.814  13.011  0.3974  1.7098  2.3040
 8122TIP3    H248562   6.195   0.753  13.006  1.8286 -1.6511 -0.9172
 8123TIP3   OH248563   7.477   5.504   4.585 -0.2895  0.2205 -0.4041
 8123TIP3    H148564   7.447   5.424   4.543  0.3672  0.2916 -1.0257
 8123TIP3    H248565   7.531   5.474   4.659  1.0698  0.0521 -1.4253
 8124TIP3   OH248566   7.311   4.205   7.052  0.0043  0.5392  0.0326
 8124TIP3    H148567   7.286   4.122   7.092 -1.7438  1.2811  0.6043
 8124TIP3    H248568   7.239   4.225   6.993 -0.8537  2.7763  1.6881
 8125TIP3   OH248569   3.424   7.052   5.407  0.1063  0.5396 -0.2536
 8125TIP3    H148570   3.419   6.957   5.404  1.3313  0.4564 -0.0306
 8125TIP3    H248571   3.333   7.081   5.417 -0.3321 -0.5735 -0.9199
 8126TIP3   OH248572   3.727   4.357   5.570 -0.3396  0.3252  0.3895
 8126TIP3    H148573   3.791   4.377   5.639 -1.0766 -1.8089  1.7841
 8126TIP3    H248574   3.773   4.380   5.489  1.6560  0.2347  1.4132
 8127TIP3   OH248575   2.059   4.793   5.783 -0.1432 -0.4599  0.2392
 8127TIP3    H148576   1.972   4.794   5.742  0.1050 -1.1405 -0.3303
 8127TIP3    H248577   2.043   4.770   5.874 -0.6505  0.4555  0.3927
 8128TIP3   OH248578   1.316   3.797   6.967 -0.1564 -0.0085  0.2387
 8128TIP3    H148579   1.244   3.860   6.967 -1.0595 -0.9999  1.1738
 8128TIP3    H248580   1.351   3.800   6.878 -1.7072  0.0944 -0.3845
 8129TIP3   OH248581   6.058   3.512   6.318  0.6665  0.4601 -0.2988
 8129TIP3    H148582   6.094   3.596   6.345 -0.7172  0.8993  0.2820
 8129TIP3    H248583   6.083   3.503   6.226 -0.5576  2.3200 -0.8595
 8130TIP3   OH248584   1.060   0.319   6.107  0.2236 -0.3639  0.9618
 8130TIP3    H148585   0.978   0.270   6.104  0.9232 -1.6111  1.1506
 8130TIP3    H248586   1.126   0.256   6.078  1.0334  0.8168  0.1444
 8131TIP3   OH248587   1.971   2.342   5.209 -0.4714 -0.6819 -0.1194
 8131TIP3    H148588   1.974   2.397   5.287  0.1064 -0.4765 -0.2854
 8131TIP3    H248589   1.889   2.367   5.165 -0.0835  0.2528 -0.3408
 8132TIP3   OH248590   4.350   0.427   6.049  0.7141  0.2320  0.0119
 8132TIP3    H148591   4.299   0.503   6.077 -0.8257  0.1029 -2.1406
 8132TIP3    H248592   4.347   0.367   6.123 -1.9355  0.4439  0.1851
 8133TIP3   OH248593   6.657   0.753   5.572 -0.3037  0.4908 -0.3073
 8133TIP3    H148594   6.683   0.699   5.647 -0.6635  0.6440 -0.0688
 8133TIP3    H248595   6.567   0.779   5.591  0.1138  1.8219 -0.0350
 8134TIP3   OH248596   2.431   5.802  13.071  0.3257 -0.3463  0.1500
 8134TIP3    H148597   2.408   5.723  13.022 -0.6130 -1.0371  1.6210
 8134TIP3    H248598   2.366   5.807  13.141 -0.6816  2.6859 -0.8280
 8135TIP3   OH248599   0.340   0.277   4.425 -0.6997 -0.2788 -0.2303
 8135TIP3    H148600   0.327   0.186   4.454 -3.3845 -0.3059 -1.2262
 8135TIP3    H248601   0.405   0.270   4.355 -0.3188 -1.3366  0.1983
 8136TIP3   OH248602   3.695   2.657   5.615  0.2512 -0.0546  0.1586
 8136TIP3    H148603   3.719   2.749   5.627  0.1365  0.0882 -0.6422
 8136TIP3    H248604   3.602   2.653   5.637 -0.1995  0.3949 -1.4933
 8137TIP3   OH248605   6.461   6.938   7.715 -0.8161 -0.0813 -0.0078
 8137TIP3    H148606   6.540   6.884   7.721 -0.3542  0.4847 -0.8878
 8137TIP3    H248607   6.390   6.880   7.741 -0.2245 -0.8672 -0.1316
 8138TIP3   OH248608   0.931   5.887   6.170  0.0697 -0.9490 -0.7731
 8138TIP3    H148609   0.943   5.855   6.081 -1.6607 -2.0387 -0.6612
 8138TIP3    H248610   0.906   5.809   6.221  0.4451 -0.2484  0.5323
 8139TIP3   OH248611   7.635   7.174   5.978  0.0059  0.4982  0.0629
 8139TIP3    H148612   7.597   7.138   6.059  1.8199 -2.4837 -0.2537
 8139TIP3    H248613   7.722   7.204   6.004 -0.4105  2.0714 -0.2916
 8140TIP3   OH248614   0.580   0.335   5.641 -0.1730  0.2180  0.4062
 8140TIP3    H148615   0.552   0.246   5.661  0.5399  0.2256  1.5815
 8140TIP3    H248616   0.660   0.325   5.590 -0.0756  0.1818  0.5658
 8141TIP3   OH248617   5.636   7.041   5.693  0.1371 -0.1343  0.2322
 8141TIP3    H148618   5.655   6.988   5.615  0.6658  1.6095 -0.8839
 8141TIP3    H248619   5.721   7.074   5.721 -0.3690  1.9511 -0.5108
 8142TIP3   OH248620   5.523   3.669   4.816 -0.6281  0.1840 -0.0695
 8142TIP3    H148621   5.490   3.579   4.817  0.8057 -0.4161  2.3529
 8142TIP3    H248622   5.447   3.723   4.837 -1.7922 -0.2516 -2.7852
 8143TIP3   OH248623   6.096   0.969   5.707 -0.1752 -0.0068  0.5694
 8143TIP3    H148624   6.173   0.955   5.762  1.8432  2.2569 -1.4324
 8143TIP3    H248625   6.082   0.885   5.663  0.2303 -0.8509  1.9982
 8144TIP3   OH248626   0.494   5.332   6.328  0.4006  0.4161 -0.4167
 8144TIP3    H148627   0.583   5.348   6.296  0.4520  2.5143  0.5821
 8144TIP3    H248628   0.446   5.303   6.250  1.9828 -0.9767 -0.9191
 8145TIP3   OH248629   6.658   1.885   6.293 -0.5087 -0.6778 -0.3158
 8145TIP3    H148630   6.675   1.818   6.227 -0.9601  0.7182 -1.9377
 8145TIP3    H248631   6.610   1.839   6.362  0.1926 -2.2448 -0.8225
 8146TIP3   OH248632   4.530   2.950   6.431  0.2531 -0.2141  0.4643
 8146TIP3    H148633   4.620   2.954   6.400  0.1281 -1.8950 -0.2438
 8146TIP3    H248634   4.533   2.985   6.520  1.8008 -1.2299  0.8470
 8147TIP3   OH248635   5.591   3.197   5.814  0.3947  0.2592 -0.2800
 8147TIP3    H148636   5.668   3.247   5.789  0.6377  0.4122  0.7406
 8147TIP3    H248637   5.608   3.169   5.904 -0.4487 -0.2682 -0.2705
 8148TIP3   OH248638   6.088   0.803   6.761 -0.6143 -0.0146 -0.0295
 8148TIP3    H148639   6.155   0.776   6.698 -1.0949  0.8266 -0.9229
 8148TIP3    H248640   6.039   0.723   6.778  0.5680 -0.6335  0.5968
 8149TIP3   OH248641   4.134   7.277   4.951  0.0183 -0.3216 -0.5577
 8149TIP3    H148642   4.200   7.215   4.981  0.9596  0.6441 -0.5408
 8149TIP3    H248643   4.051   7.232   4.962  0.6436 -1.4146 -0.1685
 8150TIP3   OH248644   5.474   2.644   5.233 -0.1494 -0.2050 -0.2198
 8150TIP3    H148645   5.550   2.630   5.176 -0.0361 -0.5107  0.0018
 8150TIP3    H248646   5.507   2.626   5.322 -0.0363  1.3203  0.0775
 8151TIP3   OH248647   0.637   5.726   4.952 -0.5699 -0.3153 -0.4542
 8151TIP3    H148648   0.670   5.636   4.960  0.6483  0.1915  0.4386
 8151TIP3    H248649   0.600   5.729   4.864  0.2692 -1.4194 -0.8759
 8152TIP3   OH248650   3.167   7.533   7.523  0.1162  0.4531 -0.2387
 8152TIP3    H148651   3.261   7.530   7.507 -0.0214  0.9930 -1.2666
 8152TIP3    H248652   3.135   7.448   7.494  0.1729  0.6093 -0.7706
 8153TIP3   OH248653   3.694   3.639   6.676  0.1460  0.4308 -0.0093
 8153TIP3    H148654   3.738   3.573   6.729  1.1451 -1.2922 -2.7977
 8153TIP3    H248655   3.610   3.599   6.653  0.6819  0.1832 -1.5777
 8154TIP3   OH248656   7.209   5.711   4.557 -0.4100  0.4748  0.3830
 8154TIP3    H148657   7.250   5.679   4.638 -0.7982  2.5376  1.4745
 8154TIP3    H248658   7.124   5.746   4.586 -1.9710 -1.5379 -1.4542
 8155TIP3   OH248659   1.111   4.138   6.905 -0.5181 -0.3207 -0.2204
 8155TIP3    H148660   1.197   4.136   6.947 -0.2643 -0.4378 -0.7457
 8155TIP3    H248661   1.093   4.047   6.883 -2.0257 -0.7672  2.3752
 8156TIP3   OH248662   3.712   5.246   5.863 -0.2433 -0.0109 -0.1332
 8156TIP3    H148663   3.717   5.167   5.809 -0.1001  0.9475 -1.5867
 8156TIP3    H248664   3.746   5.316   5.806  0.3169  0.9864  1.3507
 8157TIP3   OH248665   4.019   1.627   7.107 -0.1786 -0.1689  0.3615
 8157TIP3    H148666   4.014   1.721   7.123 -2.4944  0.3067 -2.3878
 8157TIP3    H248667   3.929   1.596   7.120  0.5337 -2.0704  1.2289
 8158TIP3   OH248668   4.938   4.587   4.924 -0.4867  0.1904  0.0915
 8158TIP3    H148669   5.025   4.592   4.964  0.0266  0.0176 -0.9445
 8158TIP3    H248670   4.921   4.676   4.893 -1.0056  0.3891  0.9310
 8159TIP3   OH248671   2.398   0.947   4.768  0.8163  0.2410  0.5071
 8159TIP3    H148672   2.306   0.975   4.769  0.4111 -0.9410 -0.5081
 8159TIP3    H248673   2.438   1.000   4.699  0.3027 -0.8697 -0.6884
 8160TIP3   OH248674   6.022   3.275   5.494 -0.4051 -0.3296 -0.2421
 8160TIP3    H148675   6.112   3.299   5.516 -0.6712 -0.1443  0.6964
 8160TIP3    H248676   6.013   3.184   5.523 -1.0329  0.2011  1.3143
 8161TIP3   OH248677   5.839   0.720   5.496  0.5986  0.3320 -0.1147
 8161TIP3    H148678   5.925   0.758   5.481  1.0407  0.1054  1.7182
 8161TIP3    H248679   5.780   0.796   5.502  1.1077  0.6361  1.2408
 8162TIP3   OH248680   0.673   2.503   5.928 -0.5134 -0.8765 -0.0782
 8162TIP3    H148681   0.704   2.588   5.959 -0.0957 -0.9606 -0.2584
 8162TIP3    H248682   0.579   2.506   5.941 -0.2289 -1.4475  2.5139
 8163TIP3   OH248683   2.111   6.634   6.499  0.0977  0.1041 -0.4860
 8163TIP3    H148684   2.105   6.613   6.406 -1.1614 -0.9782 -0.1972
 8163TIP3    H248685   2.122   6.549   6.542 -0.8068  0.4344  0.4446
 8164TIP3   OH248686   1.022   2.214   4.854  0.0155 -0.7540  1.0177
 8164TIP3    H148687   0.977   2.297   4.872 -1.3992 -0.5300 -2.6517
 8164TIP3    H248688   0.952   2.153   4.832  1.1230 -2.6538  2.5369
 8165TIP3   OH248689   1.044   1.012   6.575  0.2380 -0.3582  0.1222
 8165TIP3    H148690   1.032   1.048   6.487  0.3410 -1.8959 -0.5510
 8165TIP3    H248691   0.960   1.027   6.619 -0.8414 -2.1211 -1.2116
 8166TIP3   OH248692   1.327   5.037   6.847  0.4954 -0.3306  0.2040
 8166TIP3    H148693   1.238   5.066   6.867 -0.1884 -1.3225 -1.2401
 8166TIP3    H248694   1.339   4.957   6.898 -0.0045 -0.9992 -0.6946
 8167TIP3   OH248695   7.567   6.523   6.677 -0.8493  0.1602 -0.3671
 8167TIP3    H148696   7.520   6.600   6.708  1.3947  1.7171 -0.5717
 8167TIP3    H248697   7.562   6.460   6.749  0.1272  1.8257  1.2203
 8168TIP3   OH248698   0.327   5.351   5.061 -0.1400  0.0587 -0.0045
 8168TIP3    H148699   0.381   5.402   5.001 -1.3125  1.0292 -0.2857
 8168TIP3    H248700   0.389   5.301   5.114  1.0010  0.8956 -0.5163
 8169TIP3   OH248701   4.627   4.781   5.550 -0.3995 -0.4720 -0.2123
 8169TIP3    H148702   4.706   4.806   5.502 -1.0897  1.7106 -0.3166
 8169TIP3    H248703   4.622   4.686   5.540 -0.2636 -0.2198 -4.1155
 8170TIP3   OH248704   6.786   6.339   5.942  0.7732 -0.2246  0.1080
 8170TIP3    H148705   6.867   6.362   5.986 -0.1703 -0.2345  1.9562
 8170TIP3    H248706   6.734   6.293   6.008 -0.8916  0.1145 -0.8817
 8171TIP3   OH248707   1.580   5.895   5.070 -0.1237 -0.2621 -0.2187
 8171TIP3    H148708   1.599   5.888   5.163 -0.1700  2.0087  0.0068
 8171TIP3    H248709   1.640   5.833   5.028  1.3206  0.1610  1.1557
 8172TIP3   OH248710   6.482   5.681   7.396 -0.3980  0.2415  0.1589
 8172TIP3    H148711   6.541   5.752   7.419 -0.8203  0.1645  1.5896
 8172TIP3    H248712   6.530   5.630   7.330  0.3183  1.2495 -0.1293
 8173TIP3   OH248713   2.148   2.936   4.545 -0.8207 -0.1062 -0.3632
 8173TIP3    H148714   2.103   2.934   4.461 -0.8555  0.4872 -0.3625
 8173TIP3    H248715   2.158   3.029   4.565 -0.9442 -0.2438  0.3579
 8174TIP3   OH248716   4.300   5.209   5.560  0.3869  0.3808  0.5420
 8174TIP3    H148717   4.223   5.153   5.570  1.5610 -1.2937  0.7996
 8174TIP3    H248718   4.310   5.219   5.465  1.2572 -1.5430  0.3877
 8175TIP3   OH248719   7.219   1.977   6.620  0.2700 -0.3930 -0.0193
 8175TIP3    H148720   7.289   2.023   6.572 -1.2790  1.4788 -0.6531
 8175TIP3    H248721   7.264   1.926   6.686  2.2812  0.1438 -0.8992
 8176TIP3   OH248722   2.915   0.701   6.206 -0.1925  0.3838 -0.1782
 8176TIP3    H148723   2.853   0.633   6.233 -1.8517  1.6293 -0.6368
 8176TIP3    H248724   2.912   0.766   6.276  3.1531 -0.9593  1.4254
 8177TIP3   OH248725   4.887   2.417   6.421  0.2077  0.4167  0.5694
 8177TIP3    H148726   4.885   2.339   6.477 -0.1978  0.2638  0.3442
 8177TIP3    H248727   4.836   2.393   6.344  0.7007  0.6499  0.1619
 8178TIP3   OH248728   1.075   3.057   5.032 -0.2997 -0.3782  0.0371
 8178TIP3    H148729   1.106   2.971   5.005 -1.9925 -1.0590  0.1721
 8178TIP3    H248730   0.999   3.040   5.087 -0.1631  1.1833  0.7836
 8179TIP3   OH248731   4.084   3.484   5.658  0.7340  0.3007  0.5080
 8179TIP3    H148732   4.099   3.416   5.723  0.1399 -0.5083 -0.1809
 8179TIP3    H248733   3.989   3.483   5.643  0.7828  0.9229  0.1002
 8180TIP3   OH248734   3.961   0.197   6.691 -0.0644  0.8098  0.1136
 8180TIP3    H148735   4.020   0.259   6.733  2.4926 -1.8992  0.8876
 8180TIP3    H248736   3.895   0.178   6.757  0.7480  0.6683  0.8979
 8181TIP3   OH248737   4.736   1.457   5.025  0.7929 -0.2732  0.0311
 8181TIP3    H148738   4.687   1.456   5.107  0.3848 -1.6174 -0.2189
 8181TIP3    H248739   4.674   1.489   4.960  0.1088 -2.2081 -0.3335
 8182TIP3   OH248740   3.452   1.774   6.833  0.1448  0.1307 -0.1339
 8182TIP3    H148741   3.485   1.789   6.921  2.0052 -1.0382 -0.5840
 8182TIP3    H248742   3.529   1.777   6.777 -1.1439  2.4369 -2.0163
 8183TIP3   OH248743   2.280   5.358   4.962 -0.2260 -0.1635 -0.6238
 8183TIP3    H148744   2.348   5.411   4.921 -1.4737  0.6243 -1.7637
 8183TIP3    H248745   2.258   5.405   5.043  0.0740 -0.0308 -0.6193
 8184TIP3   OH248746   5.999   0.568   5.725  0.1982  0.5083 -0.1615
 8184TIP3    H148747   5.981   0.661   5.711 -2.9492  0.3774  2.0651
 8184TIP3    H248748   5.915   0.525   5.711  0.6006 -1.4592  2.6774
 8185TIP3   OH248749   6.590   7.044   5.775  0.0883  0.3909  0.3551
 8185TIP3    H148750   6.578   7.050   5.681 -0.4512 -0.1181  0.3862
 8185TIP3    H248751   6.680   7.013   5.786 -0.6306 -2.1240 -0.0987
 8186TIP3   OH248752   3.773   4.056   6.163  0.7095 -0.0214 -0.0878
 8186TIP3    H148753   3.848   4.044   6.104 -0.0931 -1.9716 -0.8017
 8186TIP3    H248754   3.717   3.980   6.146 -2.0663  1.9772 -0.4909
 8187TIP3   OH248755   4.501   2.574   4.781  0.7909 -0.6713 -0.1975
 8187TIP3    H148756   4.589   2.555   4.817  0.8672  0.6775  0.3672
 8187TIP3    H248757   4.512   2.655   4.733 -0.1868 -0.4025  0.0197
 8188TIP3   OH248758   2.774   7.475   6.577 -0.3770  0.5320 -0.1622
 8188TIP3    H148759   2.812   7.560   6.599 -1.8547  0.7056  1.9933
 8188TIP3    H248760   2.701   7.464   6.638 -0.6081 -2.0335 -0.7653
 8189TIP3   OH248761   3.860   1.965   6.859  0.4784 -0.3824  0.7346
 8189TIP3    H148762   3.820   1.903   6.798 -0.9654  0.6107  0.6232
 8189TIP3    H248763   3.879   1.913   6.937  3.8008 -2.0627 -0.9738
 8190TIP3   OH248764   3.867   7.497   5.966  0.1846  0.4877  0.1025
 8190TIP3    H148765   3.823   7.425   6.010 -0.7587  0.2431 -1.1842
 8190TIP3    H248766   3.960   7.482   5.982  0.0574 -1.4404 -0.7830
 8191TIP3   OH248767   1.266   7.508   5.987 -0.0762  0.0825 -0.2780
 8191TIP3    H148768   1.347   7.481   5.944 -0.4498  0.4529 -1.2439
 8191TIP3    H248769   1.254   7.599   5.961 -0.5900  0.1540  0.1845
 8192TIP3   OH248770   0.825   6.457   6.702  0.1514  0.1519  0.3042
 8192TIP3    H148771   0.791   6.392   6.641 -0.3444 -0.4068  1.1604
 8192TIP3    H248772   0.908   6.484   6.664 -0.0613 -0.3221 -0.5236
 8193TIP3   OH248773   5.090   4.933   5.336 -0.3284  0.0444 -0.2790
 8193TIP3    H148774   5.153   4.866   5.306 -0.5382 -0.3843  0.2192
 8193TIP3    H248775   5.145   5.007   5.362 -0.0947  0.0851 -0.8767
 8194TIP3   OH248776   6.215   2.290   5.131  0.1299 -0.6389 -0.0481
 8194TIP3    H148777   6.142   2.343   5.164  0.7190 -1.6380  3.3131
 8194TIP3    H248778   6.182   2.200   5.133  1.3955 -1.1317  1.7467
 8195TIP3   OH248779   2.311   5.746   5.003 -0.0164  0.0731 -0.2419
 8195TIP3    H148780   2.329   5.653   4.989  2.4175  0.4496 -0.1398
 8195TIP3    H248781   2.216   5.752   5.013 -0.1537 -2.4963  0.5642
 8196TIP3   OH248782   3.734   1.586   4.562  0.0816  0.5129 -0.1516
 8196TIP3    H148783   3.809   1.555   4.613  0.1110  0.6581 -0.1058
 8196TIP3    H248784   3.720   1.518   4.496  1.2248  1.1847 -1.1488
 8197TIP3   OH248785   6.524   3.749   5.588  0.6009 -0.0569 -0.0269
 8197TIP3    H148786   6.526   3.841   5.562 -2.0695  0.0386 -0.2043
 8197TIP3    H248787   6.563   3.702   5.514  4.2398  0.9708  1.0285
 8198TIP3   OH248788   2.208   7.588   4.705  0.2419  0.4220 -0.2302
 8198TIP3    H148789   2.279   7.639   4.666 -0.6708  3.5134  1.8241
 8198TIP3    H248790   2.130   7.615   4.658 -0.2288  0.7782  0.7293
 8199TIP3   OH248791   6.660   1.377   6.036 -0.7086 -0.1539 -0.0520
 8199TIP3    H148792   6.641   1.406   5.947  0.3019 -1.5899 -0.7704
 8199TIP3    H248793   6.626   1.287   6.040  2.8397 -1.6578 -0.3883
 8200TIP3   OH248794   7.531   4.786   6.596  0.3842  0.2501 -0.4410
 8200TIP3    H148795   7.549   4.746   6.681  2.9548  1.0034 -0.5492
 8200TIP3    H248796   7.549   4.879   6.610 -1.1582  0.7168 -1.3343
 8201TIP3   OH248797   6.281   2.555   5.404  0.0887 -0.0540 -0.5811
 8201TIP3    H148798   6.192   2.521   5.395  0.0543 -0.9536  2.2051
 8201TIP3    H248799   6.337   2.484   5.371 -0.1829 -0.7382  0.3582
 8202TIP3   OH248800   4.591   4.525   6.165 -0.1281 -0.3216 -0.1048
 8202TIP3    H148801   4.536   4.576   6.224  1.6265  0.1262  1.2021
 8202TIP3    H248802   4.640   4.590   6.114 -1.3210 -0.7057 -1.8372
 8203TIP3   OH248803   0.146   4.429   6.088 -0.2404  0.2708 -0.2321
 8203TIP3    H148804   0.063   4.419   6.135  0.2632  0.7288  0.7704
 8203TIP3    H248805   0.132   4.505   6.031 -0.6220  0.1273 -0.3350
 8204TIP3   OH248806   7.295   6.550   6.326  0.2564 -0.0290  0.2972
 8204TIP3    H148807   7.322   6.640   6.344 -1.2689  0.4036  0.6269
 8204TIP3    H248808   7.374   6.507   6.294  1.1967  1.2309  0.8149
 8205TIP3   OH248809   3.237   2.298   7.157  0.1780  0.8537 -0.3641
 8205TIP3    H148810   3.293   2.221   7.147  2.5479  2.5112 -0.3517
 8205TIP3    H248811   3.297   2.372   7.163 -2.0068  2.6979  0.1158
 8206TIP3   OH248812   1.066   3.214   6.455  0.1542 -0.3102 -0.4350
 8206TIP3    H148813   1.059   3.224   6.360  0.9150 -0.0258 -0.4600
 8206TIP3    H248814   1.158   3.227   6.474  0.3131 -1.9989  0.1572
 8207TIP3   OH248815   3.213   2.275   5.709  0.7053 -0.1042 -0.0992
 8207TIP3    H148816   3.137   2.313   5.665  2.0908  0.4916 -2.1133
 8207TIP3    H248817   3.231   2.335   5.782  0.3978  0.8186 -0.7680
 8208TIP3   OH248818   3.199   1.749   5.784  0.1712 -0.0898  0.4913
 8208TIP3    H148819   3.141   1.814   5.743 -0.0251 -1.3409 -1.3075
 8208TIP3    H248820   3.285   1.790   5.781  0.3017 -0.3898 -1.9186
 8209TIP3   OH248821   3.790   6.547   5.006 -0.1418  0.2956  0.1700
 8209TIP3    H148822   3.782   6.490   4.930 -1.1436  2.2116 -1.2579
 8209TIP3    H248823   3.854   6.613   4.980 -1.2535  1.5670  0.5583
 8210TIP3   OH248824   1.797   6.587   6.056  0.2002  0.3121  0.6985
 8210TIP3    H148825   1.732   6.622   6.117 -0.8249  1.0904 -0.7481
 8210TIP3    H248826   1.877   6.634   6.076 -0.4777  1.5828  0.5575
 8211TIP3   OH248827   6.532   3.643   4.912  0.2674 -0.1444 -0.2179
 8211TIP3    H148828   6.567   3.719   4.960  1.9967 -0.6274 -0.6393
 8211TIP3    H248829   6.508   3.678   4.827  0.8127 -0.0034 -0.3192
 8212TIP3   OH248830   1.578   4.427   6.439 -0.0251  0.2282 -0.0127
 8212TIP3    H148831   1.524   4.491   6.392  0.6584  0.9296  0.1317
 8212TIP3    H248832   1.609   4.475   6.517 -0.9824 -0.8506  1.0678
 8213TIP3   OH248833   5.445   1.960   6.559 -0.6058  0.1287 -0.1521
 8213TIP3    H148834   5.379   1.891   6.554 -0.5968  0.2067 -2.0891
 8213TIP3    H248835   5.450   1.995   6.471  0.0564  2.0083  0.5826
 8214TIP3   OH248836   3.821   0.183   7.344  0.3893 -0.0505 -0.3904
 8214TIP3    H148837   3.901   0.198   7.395  0.5422 -1.7625 -0.0662
 8214TIP3    H248838   3.765   0.258   7.364  1.8372  1.1046 -0.5045
 8215TIP3   OH248839   6.298   5.748   4.883 -0.0766 -0.0350  0.0027
 8215TIP3    H148840   6.254   5.791   4.809  0.2234  0.1294 -0.0808
 8215TIP3    H248841   6.389   5.777   4.878 -0.5468  2.0852  1.9451
 8216TIP3   OH248842   0.648   4.653   6.388 -0.0023 -0.0084  0.2046
 8216TIP3    H148843   0.623   4.742   6.363  0.3031 -0.4086 -1.6371
 8216TIP3    H248844   0.567   4.603   6.382 -0.1037  0.0539  0.9121
 8217TIP3   OH248845   0.651   6.597   5.336 -0.4886 -0.3612  0.1486
 8217TIP3    H148846   0.728   6.600   5.393 -0.9193  1.2465  0.6993
 8217TIP3    H248847   0.649   6.507   5.304  1.9494 -0.3155 -0.3609
 8218TIP3   OH248848   2.637   3.491   6.908 -0.5738 -0.2437  0.3324
 8218TIP3    H148849   2.616   3.418   6.849  0.0186  0.9651 -1.4572
 8218TIP3    H248850   2.722   3.469   6.945  0.1277  0.0185 -1.0632
 8219TIP3   OH248851   0.337   3.414   6.518 -0.4112 -0.0536  0.3077
 8219TIP3    H148852   0.324   3.327   6.480  0.8387  0.0310 -0.3621
 8219TIP3    H248853   0.321   3.474   6.445  2.1295  0.1081 -0.1970
 8220TIP3   OH248854   3.757   4.042   4.987 -0.1728 -0.4062 -0.4186
 8220TIP3    H148855   3.761   3.987   5.065  1.1834  0.5772  0.2409
 8220TIP3    H248856   3.788   3.986   4.916  2.0678 -0.2812  0.3955
 8221TIP3   OH248857   2.529   0.088   5.252  0.5841 -0.3799 -0.1179
 8221TIP3    H148858   2.574   0.135   5.322  1.5460  0.4048 -1.2079
 8221TIP3    H248859   2.448   0.056   5.292  0.6146  0.9197  1.0743
 8222TIP3   OH248860   4.695   1.505   5.372  0.2348 -0.6055  0.3919
 8222TIP3    H148861   4.784   1.540   5.379 -0.0229  0.3435 -0.8043
 8222TIP3    H248862   4.699   1.421   5.417  1.2093  0.3449  2.2056
 8223TIP3   OH248863   1.414   2.028   6.677 -0.0241  0.0859  0.5383
 8223TIP3    H148864   1.430   2.122   6.662  1.4448 -0.2043  0.1470
 8223TIP3    H248865   1.348   2.005   6.612  1.4660  0.3231 -1.1638
 8224TIP3   OH248866   4.425   6.525   5.435 -0.7257 -0.0134  0.0089
 8224TIP3    H148867   4.495   6.472   5.396 -1.0075 -0.0903 -0.4025
 8224TIP3    H248868   4.363   6.539   5.364 -1.0406  0.2107  0.3218
 8225TIP3   OH248869   6.841   3.376   5.043  0.0913 -0.1230 -0.8656
 8225TIP3    H148870   6.897   3.420   5.107 -1.1685 -0.9605  0.8910
 8225TIP3    H248871   6.848   3.283   5.064 -2.7267 -0.2024  0.1789
 8226TIP3   OH248872   3.142   3.594   5.128  0.1114 -0.3967  0.4818
 8226TIP3    H148873   3.219   3.650   5.142  1.0261 -0.7393 -2.4231
 8226TIP3    H248874   3.076   3.652   5.092  0.6042 -0.8491 -1.2592
 8227TIP3   OH248875   2.895   2.236   6.157  0.2834 -0.0606 -0.2501
 8227TIP3    H148876   2.830   2.286   6.108 -0.1366  0.6053  0.9373
 8227TIP3    H248877   2.872   2.144   6.140 -0.5068  0.1603 -0.4453
 8228TIP3   OH248878   3.677   0.963   4.864 -0.1931  0.6914  0.1294
 8228TIP3    H148879   3.755   1.000   4.822 -1.1342  0.9672 -1.4573
 8228TIP3    H248880   3.675   1.005   4.950 -0.5844  3.5706 -1.1382
 8229TIP3   OH248881   7.081   2.707   6.480 -0.1666 -0.3483 -0.5674
 8229TIP3    H148882   7.166   2.707   6.436  0.3599 -1.2047  0.4098
 8229TIP3    H248883   7.025   2.653   6.424  0.1611 -0.4481 -0.8019
 8230TIP3   OH248884   0.199   0.243   5.643 -0.0943 -0.6498 -0.0743
 8230TIP3    H148885   0.190   0.335   5.665 -0.0553 -0.2967 -1.4270
 8230TIP3    H248886   0.206   0.198   5.727 -2.7866  0.2629  0.7314
 8231TIP3   OH248887   3.347   3.775   4.981  0.7665  0.1212 -0.4929
 8231TIP3    H148888   3.337   3.867   4.957  0.4819  0.2198 -0.0010
 8231TIP3    H248889   3.440   3.766   5.001  0.2979  1.0596  2.4850
 8232TIP3   OH248890   4.311   3.254   6.048  0.9527  0.0759  0.1489
 8232TIP3    H148891   4.335   3.225   6.136 -1.8325  1.5065  1.4945
 8232TIP3    H248892   4.343   3.344   6.043 -0.7746  0.7401  0.5688
 8233TIP3   OH248893   6.811   6.864   6.472  0.3295 -0.0375  0.1140
 8233TIP3    H148894   6.891   6.916   6.475  0.2185  0.1009  1.7887
 8233TIP3    H248895   6.795   6.840   6.563 -1.0971 -0.7538 -0.2961
 8234TIP3   OH248896   0.961   5.848   5.469  0.4564  0.2827  0.1306
 8234TIP3    H148897   0.869   5.856   5.495  0.6575 -0.1951  1.0541
 8234TIP3    H248898   0.963   5.873   5.377 -0.5400  0.6496  0.2002
 8235TIP3   OH248899   5.775   1.813   5.159  0.0008 -0.5444  0.2507
 8235TIP3    H148900   5.809   1.809   5.070 -0.0102 -1.4330  0.2829
 8235TIP3    H248901   5.847   1.782   5.214 -0.4105 -1.1728  0.4398
 8236TIP3   OH248902   6.611   6.629   6.533  0.0637 -0.3808  0.1683
 8236TIP3    H148903   6.632   6.690   6.604 -0.0940  0.5786 -0.5764
 8236TIP3    H248904   6.682   6.643   6.469 -1.5858  1.3212 -1.4072
 8237TIP3   OH248905   5.704   2.524   5.120  0.3284  0.7401 -0.4925
 8237TIP3    H148906   5.682   2.437   5.154  1.0552  1.5353  2.2968
 8237TIP3    H248907   5.787   2.546   5.163  0.4756  2.5588 -1.6164
 8238TIP3   OH248908   7.522   5.162   5.255 -0.4077  0.2790  0.0849
 8238TIP3    H148909   7.479   5.181   5.172 -0.5432  2.0002  0.5179
 8238TIP3    H248910   7.451   5.159   5.319 -0.3164 -1.1397  0.1469
 8239TIP3   OH248911   1.210   5.990   4.929 -0.4721  0.0151  0.2871
 8239TIP3    H148912   1.266   5.985   4.851 -1.4392 -0.0793 -0.4155
 8239TIP3    H248913   1.126   5.954   4.901 -1.1753  0.9875  1.0539
 8240TIP3   OH248914   1.554   3.779   7.135  0.1101 -0.1590 -0.1161
 8240TIP3    H148915   1.545   3.862   7.181 -0.6853  0.1122 -0.7470
 8240TIP3    H248916   1.480   3.777   7.074  0.0868 -1.3519 -0.0659
 8241TIP3   OH248917   4.158   4.698   5.301 -0.1034 -0.4972 -0.2891
 8241TIP3    H148918   4.226   4.762   5.321 -0.0532 -0.5169 -0.3944
 8241TIP3    H248919   4.206   4.617   5.284 -0.2140 -0.7593  0.6223
 8242TIP3   OH248920   6.255   1.913   7.298 -0.4706  0.2198 -0.4194
 8242TIP3    H148921   6.269   1.821   7.317 -0.3320 -0.0351 -1.6683
 8242TIP3    H248922   6.269   1.958   7.381  2.0577 -0.6049 -0.3287
 8243TIP3   OH248923   6.223   7.015   6.727 -0.1150  0.1696 -0.1508
 8243TIP3    H148924   6.234   7.035   6.820 -1.2318 -0.4147  0.1257
 8243TIP3    H248925   6.286   6.945   6.710  0.0806  0.2656  0.1693
 8244TIP3   OH248926   3.867   3.533   6.895  0.2585  0.6059 -0.0812
 8244TIP3    H148927   3.917   3.454   6.915 -1.6650 -0.5444  0.4551
 8244TIP3    H248928   3.788   3.526   6.949 -0.4423  2.3944 -0.7925
 8245TIP3   OH248929   4.654   5.456   6.154  0.3021 -0.2970 -1.0379
 8245TIP3    H148930   4.732   5.494   6.112  0.7681 -1.0504 -0.8657
 8245TIP3    H248931   4.688   5.405   6.227 -0.4640  0.4628 -0.1291
 8246TIP3   OH248932   2.414   4.884   6.303  0.7196 -0.1163  0.4462
 8246TIP3    H148933   2.386   4.855   6.389 -0.1368 -0.2892  0.1220
 8246TIP3    H248934   2.368   4.826   6.242  0.9505  0.3026 -0.1346
 8247TIP3   OH248935   4.787   5.421   5.263  0.0322  0.0243  0.3410
 8247TIP3    H148936   4.826   5.429   5.176 -0.2071 -1.0135  0.1285
 8247TIP3    H248937   4.857   5.383   5.316 -0.9989 -3.0850 -0.3415
 8248TIP3   OH248938   1.774   3.815   5.853 -0.2078 -0.5464  0.5458
 8248TIP3    H148939   1.823   3.767   5.919 -0.3062 -1.1817  0.1625
 8248TIP3    H248940   1.725   3.748   5.806 -2.2421  0.1699  1.5581
 8249TIP3   OH248941   6.258   5.484   6.299  0.4547  0.1920  0.0514
 8249TIP3    H148942   6.315   5.408   6.312  0.6745 -0.0477 -1.8885
 8249TIP3    H248943   6.183   5.468   6.357  1.6530 -0.2215  1.5459
 8250TIP3   OH248944   1.299   6.294   5.421 -0.1809  0.4101  0.0364
 8250TIP3    H148945   1.365   6.241   5.375  0.5694  0.3799  1.1159
 8250TIP3    H248946   1.222   6.237   5.425  0.3928 -0.3470  0.5658
 8251TIP3   OH248947   3.370   2.548   5.033 -0.5676  0.0917 -0.2133
 8251TIP3    H148948   3.340   2.638   5.047  2.0561  0.9620  0.4342
 8251TIP3    H248949   3.448   2.557   4.978 -0.7584 -1.8819 -0.8673
 8252TIP3   OH248950   2.203   2.051   6.895  0.0230  0.0120  0.6031
 8252TIP3    H148951   2.123   2.099   6.917  0.0483 -0.0233  0.7682
 8252TIP3    H248952   2.247   2.038   6.979  0.8870  1.2440  0.3721
 8253TIP3   OH248953   5.610   7.032   5.118  0.0165 -0.0774  0.2912
 8253TIP3    H148954   5.616   6.949   5.166  0.1752 -0.2241  0.0169
 8253TIP3    H248955   5.607   7.099   5.187  0.2882 -0.2838  0.5073
 8254TIP3   OH248956   0.829   1.109   5.882 -1.0855  0.2586 -0.3035
 8254TIP3    H148957   0.874   1.140   5.804  0.7603 -0.1450  0.5384
 8254TIP3    H248958   0.848   1.015   5.885 -2.1515  0.0333  0.0005
 8255TIP3   OH248959   5.290   4.366   5.746 -0.3068 -0.3772 -0.1436
 8255TIP3    H148960   5.241   4.377   5.665  1.6628 -1.9497 -1.6393
 8255TIP3    H248961   5.239   4.304   5.797 -0.3699 -1.2585 -1.2571
 8256TIP3   OH248962   4.741   3.369   4.949  0.6552 -0.3580  0.1844
 8256TIP3    H148963   4.749   3.327   4.863  2.4023 -1.3620  0.8096
 8256TIP3    H248964   4.662   3.331   4.987 -0.3394  0.3551 -1.0863
 8257TIP3   OH248965   6.155   3.016   5.125  0.2082  0.0262 -0.3256
 8257TIP3    H148966   6.232   2.972   5.089  0.6406 -0.3891  1.0368
 8257TIP3    H248967   6.108   2.947   5.171 -1.3345  0.1382 -1.6417
 8258TIP3   OH248968   6.744   0.053   6.320  0.9546 -0.1657  0.7082
 8258TIP3    H148969   6.695   0.090   6.247  1.7707  1.3163  0.8841
 8258TIP3    H248970   6.688   0.066   6.396  1.5752  1.4942  0.9033
 8259TIP3   OH248971   1.782   5.721   5.302 -0.1619  0.4798 -0.4437
 8259TIP3    H148972   1.832   5.678   5.371 -0.0681 -0.7877 -1.2728
 8259TIP3    H248973   1.849   5.749   5.238 -0.3211  0.8500 -0.4519
 8260TIP3   OH248974   4.734   2.479   5.419 -0.4272  0.5511 -0.1735
 8260TIP3    H148975   4.685   2.504   5.341 -2.4573  0.5325  1.0046
 8260TIP3    H248976   4.795   2.551   5.433 -0.9275  1.1683 -1.0788
 8261TIP3   OH248977   5.862   3.563   5.585 -0.0402 -0.4995 -0.4283
 8261TIP3    H148978   5.949   3.574   5.547 -0.3867 -2.4408 -1.9881
 8261TIP3    H248979   5.803   3.601   5.520 -0.4977 -1.6960 -0.7369
 8262TIP3   OH248980   4.275   5.808   7.119  0.1551  0.0390  0.1879
 8262TIP3    H148981   4.369   5.807   7.099  0.4853  1.1673  1.5303
 8262TIP3    H248982   4.237   5.866   7.054  0.1600 -1.4005 -1.1521
 8263TIP3   OH248983   0.929   2.575   7.392 -0.0327  0.1037  0.1528
 8263TIP3    H148984   0.889   2.582   7.306  1.3145  2.4203 -0.3647
 8263TIP3    H248985   0.858   2.594   7.454 -1.0751 -1.8531 -0.3673
 8264TIP3   OH248986   5.829   3.659   6.271 -0.6824 -0.4780 -0.0469
 8264TIP3    H148987   5.886   3.595   6.313  1.0551  1.1401  0.1745
 8264TIP3    H248988   5.831   3.735   6.330 -1.8204  0.1926 -0.8356
 8265TIP3   OH248989   5.052   2.640   5.262  0.0888 -0.0814  0.1894
 8265TIP3    H148990   4.990   2.657   5.192 -0.1222  0.1618  0.4335
 8265TIP3    H248991   5.105   2.567   5.231  1.4177  1.3659 -1.1691
 8266TIP3   OH248992   2.489   1.383   5.265  0.0889 -0.2555  0.6062
 8266TIP3    H148993   2.395   1.402   5.274  0.0554  0.4144 -0.7544
 8266TIP3    H248994   2.493   1.288   5.253 -0.5834 -0.1353 -0.8036
 8267TIP3   OH248995   0.865   0.629   7.114  0.3692  0.3848 -0.9080
 8267TIP3    H148996   0.796   0.695   7.118 -0.3427 -0.4019  0.5638
 8267TIP3    H248997   0.942   0.671   7.151  0.0403  0.5300 -0.3876
 8268TIP3   OH248998   2.195   4.046   5.855  0.1297 -0.6267  0.3662
 8268TIP3    H148999   2.101   4.050   5.837  0.4020 -0.0652 -1.0680
 8268TIP3    H249000   2.234   4.108   5.793  1.7323 -3.1002 -1.3069
 8269TIP3   OH249001   4.041   5.127   5.197  0.2229  0.1651 -0.0120
 8269TIP3    H149002   4.065   5.200   5.255 -1.0127  0.7131 -0.1535
 8269TIP3    H249003   4.121   5.077   5.187  1.0776  1.4408  0.2027
 8270TIP3   OH249004   1.310   6.416   4.583  0.3669  0.2597  0.1428
 8270TIP3    H149005   1.344   6.500   4.550 -0.9049  0.9976  0.6520
 8270TIP3    H249006   1.348   6.407   4.670 -0.2206  0.7709  0.4573
 8271TIP3   OH249007   0.722   3.862   5.134  0.1233 -0.4157  0.2515
 8271TIP3    H149008   0.750   3.779   5.174  1.6673 -0.2987 -0.5027
 8271TIP3    H249009   0.654   3.836   5.072 -1.1826 -0.7807  1.7790
 8272TIP3   OH249010   7.335   0.672   6.305 -0.0269 -0.2408  0.4317
 8272TIP3    H149011   7.367   0.629   6.226  0.3709  1.4397 -0.3614
 8272TIP3    H249012   7.246   0.638   6.317 -0.0659 -0.5605 -0.6979
 8273TIP3   OH249013   7.441   2.417   6.651  0.2925 -0.3640  0.7735
 8273TIP3    H149014   7.456   2.330   6.615 -3.3130 -1.3156  1.1824
 8273TIP3    H249015   7.465   2.477   6.581 -0.8784 -1.9138 -1.0437
 8274TIP3   OH249016   1.457   6.115   5.971 -0.1557 -0.4759  0.1716
 8274TIP3    H149017   1.386   6.138   5.911  0.6316  0.8846 -0.2691
 8274TIP3    H249018   1.447   6.020   5.984 -1.6477 -0.4240 -0.3864
 8275TIP3   OH249019   6.578   4.689   4.988  0.0866 -0.1969  0.1019
 8275TIP3    H149020   6.574   4.777   5.024 -1.2269 -0.7806  1.5182
 8275TIP3    H249021   6.667   4.682   4.952  0.3857  1.5155  0.4082
 8276TIP3   OH249022   1.089   0.610   7.859 -0.3569  0.3770  0.1940
 8276TIP3    H149023   1.130   0.543   7.805 -0.1889 -0.1016  0.8965
 8276TIP3    H249024   1.160   0.640   7.917 -0.2080  1.7679 -0.6681
 8277TIP3   OH249025   3.470   5.369   6.350  0.1164  0.3875 -0.1819
 8277TIP3    H149026   3.414   5.447   6.350 -0.2826  0.1103  0.4674
 8277TIP3    H249027   3.484   5.349   6.258 -0.5217  0.7080 -0.3520
 8278TIP3   OH249028   1.767   6.260   5.021  0.6798  0.1075 -0.1937
 8278TIP3    H149029   1.710   6.317   5.073 -0.6175 -2.0034  0.8283
 8278TIP3    H249030   1.754   6.289   4.931 -2.2271 -0.4180 -0.0309
 8279TIP3   OH249031   1.399   4.285   5.942 -0.0220 -0.2686 -0.2385
 8279TIP3    H149032   1.339   4.303   6.015  0.7458  1.3214  0.0464
 8279TIP3    H249033   1.345   4.290   5.864 -0.4096  0.4280  0.0662
 8280TIP3   OH249034   5.315   6.602   7.136  0.5113  0.0199 -0.1614
 8280TIP3    H149035   5.323   6.541   7.210 -2.4634 -0.1472  0.1680
 8280TIP3    H249036   5.266   6.553   7.070 -0.2808  1.4181 -0.6540
 8281TIP3   OH249037   2.215   6.961   6.245 -0.2853  0.1020  0.1562
 8281TIP3    H149038   2.248   6.933   6.159  1.6050  0.8444  0.5858
 8281TIP3    H249039   2.177   7.047   6.229  1.5109  0.9644  0.2986
 8282TIP3   OH249040   7.088   3.970   4.291 -0.3817  0.3053 -0.0086
 8282TIP3    H149041   7.141   3.977   4.211  1.8281 -2.3090  1.0621
 8282TIP3    H249042   7.039   3.889   4.279  2.5582 -2.0855  2.4843
 8283TIP3   OH249043   1.302   5.522   4.814 -0.6278  0.4763  0.0217
 8283TIP3    H149044   1.300   5.490   4.904  2.3095  0.7363  0.3041
 8283TIP3    H249045   1.237   5.592   4.812 -0.4754  0.7533  2.1013
 8284TIP3   OH249046   2.913   2.265   6.731  0.3241  0.1374  0.9739
 8284TIP3    H149047   2.894   2.287   6.822  0.1128 -0.1087  0.9897
 8284TIP3    H249048   2.978   2.330   6.704  1.0179 -0.2999  1.5553
 8285TIP3   OH249049   2.936   4.902   7.494 -0.0063  0.4235  0.1087
 8285TIP3    H149050   2.876   4.966   7.531 -0.1596  1.2472 -1.5048
 8285TIP3    H249051   2.921   4.905   7.400  0.3059 -1.6731 -0.0700
 8286TIP3   OH249052   2.513   0.479   7.153  0.0525  0.0310  0.0053
 8286TIP3    H149053   2.421   0.463   7.172  0.6169 -2.5125  0.9119
 8286TIP3    H249054   2.534   0.559   7.202 -0.8818 -1.2105  2.5995
 8287TIP3   OH249055   6.675   7.330   7.105  0.4989 -0.2744  0.4464
 8287TIP3    H149056   6.720   7.410   7.132  1.6656 -0.3489 -1.1346
 8287TIP3    H249057   6.709   7.312   7.018 -0.5729 -1.8968  0.3262
 8288TIP3   OH249058   3.290   4.711   6.047 -0.2322 -0.2697  0.3744
 8288TIP3    H149059   3.378   4.743   6.027 -1.1729  1.6627 -1.0525
 8288TIP3    H249060   3.256   4.772   6.113 -0.8630 -0.3722  0.1550
 8289TIP3   OH249061   2.973   4.901   6.662 -0.2144  0.9136  0.0721
 8289TIP3    H149062   2.946   4.892   6.570 -1.5124  2.8452  0.2132
 8289TIP3    H249063   2.892   4.886   6.712  0.1516  1.4022  0.8168
 8290TIP3   OH249064   2.080   3.796   5.058 -0.1630  0.1248  0.2852
 8290TIP3    H149065   2.057   3.853   4.985  3.2200  1.6031  0.1801
 8290TIP3    H249066   2.115   3.856   5.125  2.4515 -1.6241  0.6418
 8291TIP3   OH249067   6.510   6.342   7.228  0.5071  0.0048 -0.0201
 8291TIP3    H149068   6.504   6.437   7.217  1.8680 -0.0655 -1.9490
 8291TIP3    H249069   6.490   6.327   7.320 -1.0987  2.0144  0.0422
 8292TIP3   OH249070   0.444   1.314   7.152 -0.4357  0.5482  0.1857
 8292TIP3    H149071   0.454   1.406   7.177 -0.0131  1.2936 -2.3973
 8292TIP3    H249072   0.349   1.303   7.141 -0.4558  0.8391  0.0450
 8293TIP3   OH249073   2.220   3.082   5.347  0.5250 -0.3021 -0.1244
 8293TIP3    H149074   2.182   3.107   5.431  1.7094  1.2397 -0.0042
 8293TIP3    H249075   2.245   2.990   5.358  0.2772 -0.2423  1.0510
 8294TIP3   OH249076   1.848   2.659   5.815 -0.1592 -0.1022 -0.0186
 8294TIP3    H149077   1.937   2.625   5.823  0.3800  1.1543 -0.3632
 8294TIP3    H249078   1.793   2.581   5.805  0.5417 -1.0784  2.9630
 8295TIP3   OH249079   4.213   6.594   6.340  0.7101 -0.2688  0.3285
 8295TIP3    H149080   4.181   6.684   6.346  1.5143  0.0876 -0.4639
 8295TIP3    H249081   4.159   6.553   6.272  0.6769 -0.2316  0.3328
 8296TIP3   OH249082   3.396   5.296   5.682 -0.0914 -0.2963  0.0809
 8296TIP3    H149083   3.328   5.321   5.744 -0.9017 -0.6065 -0.6728
 8296TIP3    H249084   3.477   5.299   5.734 -0.8346 -1.3116  1.3714
 8297TIP3   OH249085   6.157   5.713   4.587  0.1198  0.1677  0.2447
 8297TIP3    H149086   6.204   5.689   4.507  0.0487 -0.7575  0.4669
 8297TIP3    H249087   6.067   5.686   4.571 -0.0210  0.5580  0.3893
 8298TIP3   OH249088   0.486   5.159   5.837  0.5255  0.3310 -0.0627
 8298TIP3    H149089   0.392   5.149   5.821  0.0544  2.3354  1.0690
 8298TIP3    H249090   0.521   5.190   5.754  0.1787 -0.2753 -0.4478
 8299TIP3   OH249091   2.679   7.666   6.324  0.1846  0.3236 -0.5231
 8299TIP3    H149092   2.699   7.711   6.407 -1.5811  0.3411 -0.0559
 8299TIP3    H249093   2.698   7.731   6.257  0.5710  0.7053 -0.0530
 8300TIP3   OH249094   2.455   4.154   6.396  0.3583 -0.3028 -0.2634
 8300TIP3    H149095   2.385   4.200   6.442  1.6883  0.7763  0.7584
 8300TIP3    H249096   2.464   4.071   6.443  1.4956  0.6621  1.3304
 8301TIP3   OH249097   5.981   3.616   7.134 -0.2216 -0.5452 -0.0478
 8301TIP3    H149098   5.999   3.526   7.163 -1.3024 -0.5087  0.7794
 8301TIP3    H249099   5.908   3.607   7.072  1.6575 -0.5565 -2.4195
 8302TIP3   OH249100   2.305   7.018   5.981 -0.4864  0.5704  0.0300
 8302TIP3    H149101   2.392   7.053   5.961 -0.7031  0.9417 -0.2824
 8302TIP3    H249102   2.250   7.048   5.909 -0.9844  0.7824  0.4871
 8303TIP3   OH249103   2.420   4.277   5.389  0.0579 -0.5038 -0.1639
 8303TIP3    H149104   2.380   4.342   5.445  0.1332  0.3030 -1.0256
 8303TIP3    H249105   2.514   4.288   5.402  0.0916 -2.4644  1.9358
 8304TIP3   OH249106   6.443   4.381   5.216  0.1040  0.1943 -0.1993
 8304TIP3    H149107   6.539   4.375   5.215  0.3938  3.0383  0.5200
 8304TIP3    H249108   6.420   4.390   5.123  0.5002 -0.6328 -0.3892
 8305TIP3   OH249109   2.655   3.698   5.245 -0.1367 -0.6336 -0.5551
 8305TIP3    H149110   2.706   3.722   5.322 -0.4432 -1.1612 -0.1845
 8305TIP3    H249111   2.621   3.781   5.211 -1.9849 -0.6094  1.2443
 8306TIP3   OH249112   0.555   4.090   5.310  0.2766 -0.2162  0.1823
 8306TIP3    H149113   0.618   4.161   5.296  0.7840 -1.0009 -1.7699
 8306TIP3    H249114   0.606   4.010   5.296 -1.1241 -0.8725 -1.5174
 8307TIP3   OH249115   0.793   1.534   6.179 -0.1345 -0.6825  0.1902
 8307TIP3    H149116   0.808   1.523   6.085  0.7687 -0.6590  0.3232
 8307TIP3    H249117   0.777   1.445   6.211  0.4291 -0.8033  0.1494
 8308TIP3   OH249118   4.976   7.340   6.358 -0.4932 -0.3388  0.1616
 8308TIP3    H149119   5.026   7.283   6.416  0.1881  0.4108  0.3167
 8308TIP3    H249120   5.008   7.319   6.270 -1.2791 -1.2216  0.0601
 8309TIP3   OH249121   1.949   4.722   4.848 -0.8507  0.2769  0.1772
 8309TIP3    H149122   1.899   4.740   4.927 -0.4646 -0.0097  0.4935
 8309TIP3    H249123   1.981   4.807   4.819  1.0984  0.1592  1.7496
 8310TIP3   OH249124   7.250   6.507   4.763  0.0201  0.2846  0.1451
 8310TIP3    H149125   7.186   6.450   4.720  1.2399  0.3996 -1.9401
 8310TIP3    H249126   7.330   6.455   4.765  0.1805  0.5498  1.7200
 8311TIP3   OH249127   7.069   1.919   5.028  0.2107 -0.0339 -0.3128
 8311TIP3    H149128   7.100   1.838   4.986  0.2246 -0.1843 -0.0116
 8311TIP3    H249129   6.974   1.918   5.015 -0.2157 -1.6285  2.3186
 8312TIP3   OH249130   3.476   2.522   5.461  0.5594 -0.0496  0.0909
 8312TIP3    H149131   3.537   2.452   5.482  0.3593  0.3657  2.3843
 8312TIP3    H249132   3.460   2.514   5.367  3.7113 -0.4876 -0.5165
 8313TIP3   OH249133   3.409   3.220   4.960 -0.5419  0.1776  0.5276
 8313TIP3    H149134   3.461   3.286   4.914 -0.9489  1.5620  1.9729
 8313TIP3    H249135   3.320   3.256   4.962 -0.7557 -0.3617  1.3976
 8314TIP3   OH249136   4.802   4.222   4.954  0.5516  0.0708 -0.0362
 8314TIP3    H149137   4.803   4.307   4.911 -0.8501 -0.0510 -0.3638
 8314TIP3    H249138   4.872   4.172   4.911 -0.6286  0.0471 -2.0403
 8315TIP3   OH249139   5.470   4.685   4.847 -0.3434  0.3278 -0.9007
 8315TIP3    H149140   5.552   4.726   4.820  0.8921 -0.9734  0.6648
 8315TIP3    H249141   5.494   4.596   4.872 -1.9090  0.4207  1.2180
 8316TIP3   OH249142   5.815   6.179   6.507 -0.5452 -0.1673  0.3378
 8316TIP3    H149143   5.754   6.120   6.552  1.1521 -1.8969  0.5144
 8316TIP3    H249144   5.860   6.225   6.578  0.2548 -0.9353  0.3512
 8317TIP3   OH249145   6.753   6.858   6.733  0.3604  0.1277 -0.2557
 8317TIP3    H149146   6.720   6.830   6.818  1.9956 -0.0628  0.3536
 8317TIP3    H249147   6.788   6.946   6.749  0.9517 -0.0293 -0.6423
 8318TIP3   OH249148   6.808   2.912   5.861 -0.5239  0.3797  0.1027
 8318TIP3    H149149   6.720   2.911   5.822 -1.1851 -0.7998  1.5213
 8318TIP3    H249150   6.819   3.001   5.894 -2.0972  0.0040  1.7962
 8319TIP3   OH249151   7.561   7.670   4.902 -0.4457  0.5770 -0.1092
 8319TIP3    H149152   7.558   7.588   4.950 -0.3624 -0.4921 -1.8333
 8319TIP3    H249153   7.473   7.707   4.911 -0.8028 -0.2322 -0.1709
 8320TIP3   OH249154   6.895   3.776   4.210 -0.1877 -0.2679 -0.6168
 8320TIP3    H149155   6.876   3.697   4.261 -0.0508 -0.6192 -1.1038
 8320TIP3    H249156   6.892   3.747   4.119 -1.1785  0.5074 -0.8539
 8321TIP3   OH249157   1.155   4.995   5.040  0.2235 -0.1248  0.1634
 8321TIP3    H149158   1.106   4.917   5.016 -0.5749 -0.0294  1.3930
 8321TIP3    H249159   1.238   4.962   5.074 -0.1347 -0.4519  0.7315
 8322TIP3   OH249160   2.107   6.842   5.605  0.2912  0.3853  0.0542
 8322TIP3    H149161   2.070   6.841   5.516 -1.3038  0.1129  0.6887
 8322TIP3    H249162   2.032   6.830   5.662  1.4087 -0.3723  1.4240
 8323TIP3   OH249163   0.834   0.075   5.438  0.3145  0.2355 -0.1052
 8323TIP3    H149164   0.794   0.161   5.448  2.4081  1.3135 -0.4139
 8323TIP3    H249165   0.815   0.030   5.520 -0.6328  1.0457  0.1466
 8324TIP3   OH249166   5.134   7.452   5.921  0.0055  0.3333  0.2076
 8324TIP3    H149167   5.190   7.518   5.960  1.2376  0.8995 -2.3107
 8324TIP3    H249168   5.122   7.386   5.990  1.7320  1.3913  1.5925
 8325TIP3   OH249169   1.707   3.369   5.048  0.0387  0.2755 -0.1397
 8325TIP3    H149170   1.640   3.300   5.049  0.7543 -0.4566  1.8796
 8325TIP3    H249171   1.661   3.447   5.080 -0.0116 -0.0804  0.6791
 8326TIP3   OH249172   7.405   2.603   6.454  0.5768 -0.1734 -0.6394
 8326TIP3    H149173   7.429   2.604   6.361  2.7122  0.6058 -0.1248
 8326TIP3    H249174   7.389   2.695   6.475  0.4410 -0.3063 -0.1485
 8327TIP3   OH249175   2.442   0.653   4.788 -0.1948 -0.5470  0.2907
 8327TIP3    H149176   2.401   0.596   4.723  1.5936 -1.0485 -0.4754
 8327TIP3    H249177   2.398   0.737   4.777  0.6953 -0.3323 -2.3148
 8328TIP3   OH249178   3.300   4.850   6.467  0.0070 -0.7855  0.6684
 8328TIP3    H149179   3.268   4.820   6.553  1.5354 -1.2170  1.1180
 8328TIP3    H249180   3.316   4.769   6.419 -1.2998 -0.5371 -0.2291
 8329TIP3   OH249181   2.960   6.511   4.400  0.0524  0.4702  0.7269
 8329TIP3    H149182   2.978   6.427   4.359  0.5226  0.5266  0.8176
 8329TIP3    H249183   2.877   6.498   4.446 -0.8684  0.6095 -0.8257
 8330TIP3   OH249184   3.558   4.450   5.137  0.0022 -0.6572  0.7497
 8330TIP3    H149185   3.543   4.359   5.113 -0.2875  0.1507 -2.6092
 8330TIP3    H249186   3.499   4.465   5.212 -0.2849 -3.0558  1.0702
 8331TIP3   OH249187   6.596   0.464   6.451 -0.0212 -0.4348  0.2296
 8331TIP3    H149188   6.549   0.528   6.397 -0.9399 -1.8097 -0.6698
 8331TIP3    H249189   6.625   0.513   6.528 -1.2089  0.9183 -0.1540
 8332TIP3   OH249190   5.439   5.486   6.385 -0.1753  0.0058 -0.1931
 8332TIP3    H149191   5.485   5.523   6.461 -0.6934 -0.6203  0.4449
 8332TIP3    H249192   5.413   5.562   6.333  1.6895  0.3617 -0.6429
 8333TIP3   OH249193   0.078   6.284   5.305 -0.3697 -0.2638 -0.0676
 8333TIP3    H149194   0.135   6.361   5.314 -0.0214 -0.7264  2.4819
 8333TIP3    H249195   0.138   6.209   5.313 -1.2513 -0.7989  4.1464
 8334TIP3   OH249196   0.565   1.752   6.095  0.5211  0.7554  0.2659
 8334TIP3    H149197   0.626   1.781   6.028  1.2551  0.6351  0.8766
 8334TIP3    H249198   0.620   1.728   6.169 -0.2882  1.0190  0.9637
 8335TIP3   OH249199   4.622   1.526   5.923 -0.7836  0.0577  0.0044
 8335TIP3    H149200   4.537   1.566   5.943 -0.9496 -0.4526  0.3386
 8335TIP3    H249201   4.636   1.463   5.994 -0.0588  0.2339  0.0240
 8336TIP3   OH249202   6.053   5.886  12.422 -0.1870 -0.0133  0.3394
 8336TIP3    H149203   6.023   5.846  12.504 -2.2109 -1.0729 -0.8541
 8336TIP3    H249204   6.102   5.816  12.378  0.1145  0.2662  0.2254
 8337TIP3   OH249205   1.164   6.549   7.090  0.0703  0.2852 -1.0144
 8337TIP3    H149206   1.071   6.567   7.104  0.0384 -0.7021  0.2487
 8337TIP3    H249207   1.169   6.456   7.072  0.8188  0.3392 -1.1267
 8338TIP3   OH249208   4.597   1.136   6.162 -0.2748  0.1560 -0.3869
 8338TIP3    H149209   4.543   1.079   6.107 -2.6594  2.2594 -0.3948
 8338TIP3    H249210   4.676   1.152   6.110 -1.1017 -0.3417 -1.8479
 8339TIP3   OH249211   0.273   7.120   6.421 -0.1545  1.0820  0.0344
 8339TIP3    H149212   0.286   7.089   6.511  0.3680 -1.5898 -0.8677
 8339TIP3    H249213   0.359   7.155   6.395  0.7079 -1.2418 -0.4619
 8340TIP3   OH249214   5.736   2.579   7.070  0.0049 -0.3518 -0.5048
 8340TIP3    H149215   5.788   2.523   7.127  0.3623 -0.3572 -0.8259
 8340TIP3    H249216   5.799   2.640   7.032  0.0272 -1.1907 -1.9166
 8341TIP3   OH249217   0.349   2.714   5.131  0.1642 -0.0365  0.1944
 8341TIP3    H149218   0.373   2.644   5.070 -0.3784 -1.5545  1.6425
 8341TIP3    H249219   0.431   2.736   5.175  0.8861  2.1161 -1.9880
 8342TIP3   OH249220   4.160   1.013   5.508 -0.1954 -0.4968  0.0701
 8342TIP3    H149221   4.153   0.975   5.596  1.1121  0.1348  0.4767
 8342TIP3    H249222   4.253   1.005   5.486 -0.1973  0.9028 -0.5377
 8343TIP3   OH249223   4.467   7.354   5.788  0.2564 -0.1815 -0.3771
 8343TIP3    H149224   4.381   7.312   5.783  1.4065 -3.2076  2.0671
 8343TIP3    H249225   4.523   7.299   5.733  1.0794  0.4390 -0.1694
 8344TIP3   OH249226   1.974   7.380   7.191 -0.0869  0.1143  0.4647
 8344TIP3    H149227   1.889   7.347   7.220  0.4992 -0.3074  1.7619
 8344TIP3    H249228   1.979   7.469   7.228 -0.7952  0.9429 -1.3151
 8345TIP3   OH249229   0.163   6.647   5.558 -0.1593  0.2303 -0.3334
 8345TIP3    H149230   0.237   6.592   5.583 -0.8980 -1.0331 -0.8368
 8345TIP3    H249231   0.091   6.618   5.614 -0.3785  1.1986 -0.0980
 8346TIP3   OH249232   3.577   3.645   5.052  0.3723 -0.3594 -0.1494
 8346TIP3    H149233   3.627   3.716   5.093 -0.3154 -0.7126  1.4016
 8346TIP3    H249234   3.542   3.595   5.126  1.1673 -2.5855 -1.1727
 8347TIP3   OH249235   0.761   4.807   6.930 -0.1326  0.4989  0.6574
 8347TIP3    H149236   0.688   4.864   6.904  0.6424  0.9270 -0.6309
 8347TIP3    H249237   0.721   4.720   6.937 -1.0056  0.9167  1.1427
 8348TIP3   OH249238   2.481   2.481  12.565 -0.3598 -0.6921 -0.0339
 8348TIP3    H149239   2.484   2.561  12.511 -0.8585  1.0669  2.3704
 8348TIP3    H249240   2.390   2.454  12.561 -0.3603 -0.6717 -0.1952
 8349TIP3   OH249241   0.719   5.059   4.627 -0.3303 -0.0896  0.2593
 8349TIP3    H149242   0.639   5.091   4.668 -0.7315  0.0838 -0.6448
 8349TIP3    H249243   0.694   5.041   4.537  0.1369 -1.9645  0.4552
 8350TIP3   OH249244   5.608   6.675   5.827  0.8879 -0.1355  0.1975
 8350TIP3    H149245   5.690   6.698   5.871  0.2182 -0.6252  1.7859
 8350TIP3    H249246   5.540   6.700   5.890 -0.2317  0.7374 -1.2893
 8351TIP3   OH249247   1.418   0.484   5.181 -0.3410 -0.0134  0.2057
 8351TIP3    H149248   1.485   0.546   5.155 -1.9983  1.3698 -0.9969
 8351TIP3    H249249   1.348   0.538   5.218 -1.6517 -1.1765 -0.4730
 8352TIP3   OH249250   5.640   1.427   6.687 -0.2446  0.3700 -0.2395
 8352TIP3    H149251   5.617   1.509   6.730  0.4390  1.2387 -1.4552
 8352TIP3    H249252   5.631   1.446   6.593 -2.3827 -1.6368 -0.5437
 8353TIP3   OH249253   7.283   1.774   6.821  0.2678  0.5951  0.2789
 8353TIP3    H149254   7.211   1.742   6.767  0.4755 -0.3749  0.5660
 8353TIP3    H249255   7.262   1.745   6.910  0.9377  0.4285  0.3910
 8354TIP3   OH249256   1.477   1.494   5.033  0.3502 -0.2923  0.4219
 8354TIP3    H149257   1.423   1.572   5.045  0.5686 -0.4898  3.4507
 8354TIP3    H249258   1.440   1.450   4.957 -1.0916  1.6793 -0.0878
 8355TIP3   OH249259   7.423   7.243   5.429  0.5699  0.5090 -0.2934
 8355TIP3    H149260   7.392   7.164   5.473  0.6756  0.1973 -0.7743
 8355TIP3    H249261   7.348   7.272   5.376  0.4220  0.9185  0.1356
 8356TIP3   OH249262   4.482   6.585   6.423 -0.0827 -0.3214  1.1763
 8356TIP3    H149263   4.403   6.564   6.373 -0.9913  0.1063  2.3930
 8356TIP3    H249264   4.451   6.638   6.496  1.7917  3.4217 -0.4638
 8357TIP3   OH249265   1.354   0.598   7.979 -0.5076 -0.5249  0.1371
 8357TIP3    H149266   1.389   0.620   8.065  1.3056 -0.4423 -0.5792
 8357TIP3    H249267   1.372   0.504   7.969 -2.1351 -0.8998  0.4570
 8358TIP3   OH249268   2.073   4.992   6.610 -0.1215 -0.6318 -0.2523
 8358TIP3    H149269   2.038   5.079   6.588 -2.6691 -1.3663  0.5495
 8358TIP3    H249270   2.150   5.011   6.664 -1.2100  1.1882  0.7871
 8359TIP3   OH249271   6.573   3.629   7.037  0.6231 -0.2851  0.0049
 8359TIP3    H149272   6.491   3.621   7.086  0.6440 -0.8788 -0.0525
 8359TIP3    H249273   6.550   3.683   6.961  0.5963  0.6610  0.6688
 8360TIP3   OH249274   1.586   5.118   6.770  0.1751  0.6748 -0.0410
 8360TIP3    H149275   1.599   5.199   6.820  1.0114  0.5339 -0.0157
 8360TIP3    H249276   1.505   5.080   6.806  0.3755  0.9393  0.7119
 8361TIP3   OH249277   1.389   6.675   7.562 -0.3939 -0.1740  0.1232
 8361TIP3    H149278   1.348   6.632   7.487 -1.3701 -2.4458  1.8496
 8361TIP3    H249279   1.315   6.716   7.609 -0.0081 -0.0765  0.6533
 8362TIP3   OH249280   2.559   4.434   6.059  0.0827 -0.0697  0.2308
 8362TIP3    H149281   2.549   4.460   6.150 -1.2696  1.4899 -0.3092
 8362TIP3    H249282   2.650   4.455   6.038  0.3581 -0.2841  1.1635
 8363TIP3   OH249283   2.354   5.661   5.799 -0.8954  0.0998  0.0841
 8363TIP3    H149284   2.274   5.670   5.746 -2.3995  0.1366  2.2097
 8363TIP3    H249285   2.331   5.597   5.866  0.6438  0.5941  1.1415
 8364TIP3   OH249286   4.230   3.862   7.025 -0.4550  0.2204 -0.1546
 8364TIP3    H149287   4.283   3.861   7.105  0.8754 -0.8525 -1.0052
 8364TIP3    H249288   4.188   3.776   7.022  2.1392 -1.1161 -2.2211
 8365TIP3   OH249289   1.126   5.750   4.790  0.3598 -0.3865  0.4069
 8365TIP3    H149290   1.081   5.730   4.872 -0.1857 -0.0697  0.1900
 8365TIP3    H249291   1.058   5.744   4.723  0.3071  1.4970  0.2460
 8366TIP3   OH249292   6.958   5.445   7.242 -0.1130 -0.9617  0.2738
 8366TIP3    H149293   6.922   5.361   7.272 -1.8151 -2.1500 -4.1681
 8366TIP3    H249294   7.050   5.426   7.222 -0.4165 -1.7480 -0.4375
 8367TIP3   OH249295   0.512   5.238   5.569 -0.0005 -0.2580 -0.5009
 8367TIP3    H149296   0.453   5.186   5.514 -0.8866  1.6975 -1.4895
 8367TIP3    H249297   0.500   5.328   5.540  1.4272  0.5568  1.1951
 8368TIP3   OH249298   5.834   1.131   5.741  0.4231 -0.5431  0.8224
 8368TIP3    H149299   5.761   1.107   5.684  0.7291  1.3774 -0.4738
 8368TIP3    H249300   5.897   1.061   5.729 -0.0305 -0.7950 -0.2938
 8369TIP3   OH249301   7.048   2.034   5.848  0.8326 -0.0602 -0.4418
 8369TIP3    H149302   7.140   2.055   5.866  0.7944  0.8398 -1.1892
 8369TIP3    H249303   7.003   2.047   5.932  1.8956 -4.0548  0.9523
 8370TIP3   OH249304   7.009   4.501   5.993 -0.0994  0.2304  0.0655
 8370TIP3    H149305   6.936   4.440   6.011  0.4207 -0.2006  0.7711
 8370TIP3    H249306   7.079   4.445   5.961  0.2473  0.5088  0.3322
 8371TIP3   OH249307   1.833   1.747   5.039 -0.6282  0.4554  0.2686
 8371TIP3    H149308   1.780   1.815   4.997  0.8776  0.9828 -0.8857
 8371TIP3    H249309   1.914   1.792   5.064 -0.2093 -0.5907  0.8617
 8372TIP3   OH249310   0.098   2.190   5.637 -0.1029 -0.0440  0.1354
 8372TIP3    H149311   0.018   2.139   5.633  0.0232 -0.2032 -0.4105
 8372TIP3    H249312   0.168   2.126   5.650  0.0588 -0.0287 -0.5854
 8373TIP3   OH249313   6.627   0.948   6.376  0.4231 -0.3179 -0.2700
 8373TIP3    H149314   6.689   1.020   6.387  2.4209 -1.8202 -1.0806
 8373TIP3    H249315   6.656   0.881   6.439  0.4235 -1.5230 -1.4856
 8374TIP3   OH249316   0.187   5.460   4.581 -0.5336 -0.3099 -0.3407
 8374TIP3    H149317   0.280   5.475   4.566 -0.1926 -0.0242  1.6629
 8374TIP3    H249318   0.172   5.369   4.556  0.3584 -0.4446 -0.3897
 8375TIP3   OH249319   7.305   2.862   6.921 -0.3082 -0.1419  0.2682
 8375TIP3    H149320   7.230   2.920   6.930 -1.3742 -1.3862 -0.2971
 8375TIP3    H249321   7.309   2.814   7.003 -0.4843 -0.4811  0.0795
 8376TIP3   OH249322   5.220   2.267   6.108  0.1315  0.3707 -0.6503
 8376TIP3    H149323   5.272   2.286   6.029 -3.0217  1.0367 -2.7809
 8376TIP3    H249324   5.198   2.174   6.101  0.2221  0.3208 -0.2933
 8377TIP3   OH249325   3.544   4.749   5.440  0.1447  0.5093  0.5615
 8377TIP3    H149326   3.613   4.773   5.502  1.2924  0.1205 -0.5247
 8377TIP3    H249327   3.513   4.832   5.405 -0.1351  0.7010  1.2532
 8378TIP3   OH249328   4.045   4.974   5.799 -0.1729 -0.7049  0.0480
 8378TIP3    H149329   4.125   4.930   5.770  1.9589  2.1461  1.1742
 8378TIP3    H249330   4.028   5.041   5.733 -0.6433 -0.1783  0.6910
 8379TIP3   OH249331   1.657   4.034   5.958  0.0866 -0.3332  0.0490
 8379TIP3    H149332   1.566   4.004   5.951  0.0459  0.1135 -2.0374
 8379TIP3    H249333   1.708   3.966   5.916  0.5980 -0.0348  0.1752
 8380TIP3   OH249334   1.033   3.309   6.931 -0.1485  0.3149 -0.0020
 8380TIP3    H149335   1.064   3.325   7.020 -1.3174  0.7725  0.3361
 8380TIP3    H249336   0.939   3.296   6.940 -0.1697 -0.4428 -1.0785
 8381TIP3   OH249337   3.607   5.157   5.176  0.4452 -0.0991 -0.5691
 8381TIP3    H149338   3.666   5.088   5.144  0.9246  1.1925 -2.6468
 8381TIP3    H249339   3.560   5.185   5.098 -0.1155  1.5651  0.3410
 8382TIP3   OH249340   4.622   6.507   6.199 -0.4667  0.2827  0.4318
 8382TIP3    H149341   4.716   6.501   6.213 -0.6178 -0.7652  1.0894
 8382TIP3    H249342   4.586   6.531   6.285 -0.8672 -0.1610  0.3958
 8383TIP3   OH249343   6.510   6.128   7.044 -0.2083 -0.1237  0.2763
 8383TIP3    H149344   6.549   6.048   7.080 -0.6862 -1.0718 -1.1891
 8383TIP3    H249345   6.514   6.191   7.115 -2.0273 -2.1608  2.3285
 8384TIP3   OH249346   6.264   7.275   5.588  0.0134  0.1850  0.4516
 8384TIP3    H149347   6.305   7.316   5.664 -0.6845  0.5842  0.6179
 8384TIP3    H249348   6.195   7.336   5.561  0.9431  0.5995 -1.1882
 8385TIP3   OH249349   4.060   5.484   6.669 -0.3040  0.0376 -0.0559
 8385TIP3    H149350   4.067   5.534   6.751  0.4527  0.1360 -0.1778
 8385TIP3    H249351   4.086   5.395   6.694  0.4477  0.1877 -0.3066
 8386TIP3   OH249352   5.344   3.797   5.348  0.9209 -0.0435  0.1534
 8386TIP3    H149353   5.266   3.744   5.367  1.5808 -0.9140  0.4988
 8386TIP3    H249354   5.381   3.817   5.434  1.3992 -0.1268 -0.0332
 8387TIP3   OH249355   0.384   1.543   6.136  0.3394  0.1266 -0.0690
 8387TIP3    H149356   0.426   1.621   6.100 -1.0140  0.7217 -0.4253
 8387TIP3    H249357   0.401   1.474   6.071  1.0700  0.2511 -0.0169
 8388TIP3   OH249358   3.493   4.491   5.516  0.1062 -0.5375  0.2679
 8388TIP3    H149359   3.578   4.448   5.528  0.1944 -0.5919 -0.5090
 8388TIP3    H249360   3.513   4.572   5.469 -0.3510 -0.9565 -0.6916
 8389TIP3   OH249361   3.166   1.134   5.323 -0.5083 -0.7067 -0.5973
 8389TIP3    H149362   3.104   1.095   5.385 -0.3512  0.4019  0.2818
 8389TIP3    H249363   3.132   1.222   5.307  0.2940 -0.4403 -0.8908
 8390TIP3   OH249364   5.304   0.435   5.038  0.2005  0.0011  0.1330
 8390TIP3    H149365   5.257   0.451   5.120 -0.9758  0.2090 -0.5588
 8390TIP3    H249366   5.236   0.412   4.975  0.7936  2.0873 -1.3794
 8391TIP3   OH249367   7.538   1.335   6.934  0.0088  0.2328  0.5554
 8391TIP3    H149368   7.594   1.259   6.920 -0.1502  0.4481 -1.6291
 8391TIP3    H249369   7.585   1.388   6.999  1.9995  0.0480 -0.6460
 8392TIP3   OH249370   2.673   1.599   5.846  0.0618 -0.4910 -0.3112
 8392TIP3    H149371   2.685   1.654   5.768 -0.6827 -0.2483 -0.2660
 8392TIP3    H249372   2.761   1.587   5.880  0.2318  0.8328 -0.2328
 8393TIP3   OH249373   6.910   6.577   7.728 -0.0081  0.3529  0.4276
 8393TIP3    H149374   6.908   6.598   7.635 -1.0552 -0.3357  0.2728
 8393TIP3    H249375   6.995   6.609   7.759 -0.2635  1.9547 -0.4280
 8394TIP3   OH249376   5.952   4.503   6.282 -0.2828  0.2747 -0.0393
 8394TIP3    H149377   6.003   4.422   6.276 -0.9685 -0.7216  4.1166
 8394TIP3    H249378   6.010   4.565   6.325 -1.5553 -0.0074  2.2328
 8395TIP3   OH249379   7.621   1.347   5.393  0.0203  0.0831  0.2376
 8395TIP3    H149380   7.562   1.329   5.320 -1.4989 -1.3075  1.7066
 8395TIP3    H249381   7.642   1.440   5.385  2.8930 -0.6893 -3.9961
 8396TIP3   OH249382   0.501   5.203   5.214  0.2450 -0.0192  0.5802
 8396TIP3    H149383   0.507   5.116   5.175  0.5101  0.7912 -1.3084
 8396TIP3    H249384   0.584   5.215   5.260 -0.2267 -1.1472  1.7634
 8397TIP3   OH249385   3.205   3.035   6.579 -0.0604 -0.7096 -0.0886
 8397TIP3    H149386   3.230   2.951   6.617 -2.9452 -1.5569  0.1830
 8397TIP3    H249387   3.113   3.025   6.556 -0.8257  2.7192  0.8885
 8398TIP3   OH249388   4.401   4.834   6.428  0.4566 -0.3634 -0.3136
 8398TIP3    H149389   4.442   4.749   6.440  0.3974 -0.3747 -0.1929
 8398TIP3    H249390   4.321   4.830   6.480  0.3284 -0.3228 -0.5051
 8399TIP3   OH249391   3.893   3.081   5.410  0.1819  0.4349 -0.4520
 8399TIP3    H149392   3.941   2.999   5.422 -0.5470 -0.0828 -0.9780
 8399TIP3    H249393   3.918   3.135   5.486  1.6972  0.2559 -0.7862
 8400TIP3   OH249394   7.064   1.548   6.199  0.2068 -0.1107 -0.0804
 8400TIP3    H149395   7.159   1.537   6.207  0.2446  0.3275  0.0874
 8400TIP3    H249396   7.051   1.576   6.108  0.2790  0.2673  0.0257
 8401TIP3   OH249397   6.812   3.536   7.090  0.4752  0.9954  0.0925
 8401TIP3    H149398   6.719   3.557   7.087  0.5711  1.3840 -2.0572
 8401TIP3    H249399   6.816   3.443   7.070  0.5863  1.2063 -0.9052
 8402TIP3   OH249400   1.377   6.190   7.193  0.6147  0.1287 -0.0293
 8402TIP3    H149401   1.422   6.274   7.184  1.3978 -0.3488 -0.8002
 8402TIP3    H249402   1.440   6.126   7.160 -0.0298 -0.7458  0.3975
 8403TIP3   OH249403   0.027   2.376   4.511 -0.4559  0.6164 -0.5311
 8403TIP3    H149404   0.040   2.358   4.418 -0.1280 -0.4127 -0.2901
 8403TIP3    H249405   0.056   2.467   4.522  0.3021  0.4693 -1.2648
 8404TIP3   OH249406   2.856   3.165   5.454 -0.5764  0.3471  0.5261
 8404TIP3    H149407   2.855   3.174   5.549 -1.9533 -1.4077  0.7305
 8404TIP3    H249408   2.835   3.073   5.438  1.2349  0.2034 -1.4641
 8405TIP3   OH249409   0.072   7.286   6.756 -0.0184 -0.4677  0.0457
 8405TIP3    H149410   0.009   7.224   6.718  0.0863  1.0167 -2.7829
 8405TIP3    H249411   0.068   7.268   6.850 -4.4765 -0.6425  0.0550
 8406TIP3   OH249412   1.604   0.577   7.280 -0.3205  0.3423  0.1813
 8406TIP3    H149413   1.638   0.600   7.366  0.3920  0.3763 -0.1084
 8406TIP3    H249414   1.566   0.490   7.292  0.5345 -0.0163  0.3338
 8407TIP3   OH249415   2.820   1.846   4.709 -0.1715  0.4414 -0.6069
 8407TIP3    H149416   2.916   1.849   4.714 -0.1734 -1.2432  1.6166
 8407TIP3    H249417   2.790   1.898   4.784 -0.9916  0.1540 -0.7251
 8408TIP3   OH249418   0.970   3.428   6.670 -0.5755 -0.0310 -0.1344
 8408TIP3    H149419   0.992   3.347   6.715  1.0862  0.9437  0.9141
 8408TIP3    H249420   0.981   3.407   6.577 -3.8522 -2.0094 -0.2289
 8409TIP3   OH249421   3.219   6.183   7.290 -0.0060  0.8392 -0.3733
 8409TIP3    H149422   3.150   6.204   7.353  1.8893  1.2016  1.6828
 8409TIP3    H249423   3.249   6.267   7.258  1.6215  0.9274  1.2216
 8410TIP3   OH249424   0.767   7.398   4.710 -0.0165 -0.0808  0.2707
 8410TIP3    H149425   0.839   7.370   4.767 -0.5506 -0.0231  0.9991
 8410TIP3    H249426   0.775   7.344   4.632 -0.0784 -1.1516  0.9825
 8411TIP3   OH249427   3.268   2.750   6.263 -0.3844  0.2862  0.2649
 8411TIP3    H149428   3.323   2.747   6.341  0.1402 -1.4854 -0.1412
 8411TIP3    H249429   3.182   2.723   6.293 -0.5594  1.0557  0.4929
 8412TIP3   OH249430   0.545   0.283   7.109 -0.3178 -0.0336  0.4098
 8412TIP3    H149431   0.520   0.191   7.109 -1.0286  0.1288  1.5505
 8412TIP3    H249432   0.602   0.293   7.185 -1.5118  0.7511  1.2460
 8413TIP3   OH249433   1.932   6.771   6.323  0.2886 -0.2967 -0.2734
 8413TIP3    H149434   2.008   6.731   6.281  0.9356  0.7254 -0.1272
 8413TIP3    H249435   1.878   6.698   6.350  1.9995 -1.1470  1.0662
 8414TIP3   OH249436   4.770   0.697   6.892 -0.0981  0.6245  0.3428
 8414TIP3    H149437   4.728   0.777   6.862 -0.3882  0.6150  0.7066
 8414TIP3    H249438   4.698   0.644   6.927  0.0659  0.1373 -0.0346
 8415TIP3   OH249439   2.294   5.462   5.977 -0.2895 -0.0141 -0.2519
 8415TIP3    H149440   2.205   5.428   5.988  0.4546 -1.9994  0.0705
 8415TIP3    H249441   2.321   5.487   6.066 -0.0678 -0.7107 -0.1119
 8416TIP3   OH249442   2.016   4.489   5.909 -0.1952  0.2384 -0.4946
 8416TIP3    H149443   2.049   4.403   5.934  0.0023  0.4013 -0.1754
 8416TIP3    H249444   2.012   4.487   5.813 -1.0515 -0.4328 -0.4519
 8417TIP3   OH249445   4.164   1.703   6.159 -0.6398  0.0981 -0.7174
 8417TIP3    H149446   4.183   1.792   6.189  1.0397 -0.3629 -0.3135
 8417TIP3    H249447   4.078   1.710   6.118 -0.4024  1.9846 -1.0101
 8418TIP3   OH249448   5.485   2.383   4.827 -0.4173 -0.0775 -0.2723
 8418TIP3    H149449   5.403   2.430   4.812  0.0873  0.5868 -1.0226
 8418TIP3    H249450   5.553   2.450   4.818  0.1142 -0.0363  2.8892
 8419TIP3   OH249451   1.537   4.545   5.465  0.3764  0.0667  0.4467
 8419TIP3    H149452   1.559   4.638   5.452 -0.0402  0.0918 -0.1459
 8419TIP3    H249453   1.614   4.507   5.506  0.4568  0.7363  0.9285
 8420TIP3   OH249454   6.213   0.430   6.587 -0.3147  0.1821  0.1915
 8420TIP3    H149455   6.117   0.432   6.596 -0.3315  1.5729 -0.0578
 8420TIP3    H249456   6.237   0.521   6.568  1.1117 -0.0423  0.7875
 8421TIP3   OH249457   0.523   2.940   6.407  0.4400 -0.3272 -0.2976
 8421TIP3    H149458   0.520   2.984   6.322 -0.4582  0.1353 -0.0345
 8421TIP3    H249459   0.476   2.858   6.393 -0.3310  0.0685 -0.0741
 8422TIP3   OH249460   7.039   2.144   6.486 -0.0347 -0.0230 -0.2450
 8422TIP3    H149461   6.964   2.084   6.490 -1.5840  1.8705  0.5500
 8422TIP3    H249462   7.106   2.102   6.539 -1.1161 -1.0252  0.3863
 8423TIP3   OH249463   2.166   6.247   6.159 -0.2527 -0.4644  0.6719
 8423TIP3    H149464   2.078   6.242   6.121  0.0723  1.0717 -0.3508
 8423TIP3    H249465   2.175   6.166   6.209 -1.6713 -1.3589 -0.4535
 8424TIP3   OH249466   0.264   6.771   6.556 -0.5988  0.5056 -0.2987
 8424TIP3    H149467   0.247   6.678   6.543 -0.4576  0.3748  0.4219
 8424TIP3    H249468   0.307   6.799   6.475  1.9343 -0.6868  0.5296
 8425TIP3   OH249469   6.185   2.305   5.798 -0.3411 -0.0055  0.3921
 8425TIP3    H149470   6.252   2.275   5.859 -0.5920  1.0842  1.2262
 8425TIP3    H249471   6.221   2.387   5.762 -0.4688 -0.3148 -0.4633
 8426TIP3   OH249472   0.962   0.216   6.532  0.8190  0.6991  0.5019
 8426TIP3    H149473   1.043   0.190   6.488  0.9810  1.4071  0.3686
 8426TIP3    H249474   0.958   0.311   6.521 -1.2634  0.4629 -1.6603
 8427TIP3   OH249475   0.566   4.912   6.402 -0.0360  0.2946  0.0850
 8427TIP3    H149476   0.491   4.970   6.412 -0.6072 -0.4036 -0.0972
 8427TIP3    H249477   0.608   4.941   6.321  0.9458  1.8429  1.0922
 8428TIP3   OH249478   0.441   0.640   4.603 -0.1273  0.0981  0.3154
 8428TIP3    H149479   0.525   0.663   4.643 -0.3076  0.0260  0.7448
 8428TIP3    H249480   0.460   0.560   4.553 -0.4438 -1.3464  2.3755
 8429TIP3   OH249481   0.112   5.365   5.750 -0.1824 -0.1157  0.1459
 8429TIP3    H149482   0.162   5.283   5.754  3.4476  1.7018 -2.1919
 8429TIP3    H249483   0.130   5.407   5.834  1.0243 -0.1935 -0.0475
 8430TIP3   OH249484   6.351   1.362   5.994 -0.3916 -0.0124  0.4351
 8430TIP3    H149485   6.349   1.451   5.957 -2.2868  0.0658  0.6249
 8430TIP3    H249486   6.357   1.305   5.917 -2.0650  0.2195  0.1044
 8431TIP3   OH249487   0.857   2.641   7.128 -0.2867  0.7241 -0.2318
 8431TIP3    H149488   0.781   2.624   7.073  0.1038  1.5463 -1.0730
 8431TIP3    H249489   0.881   2.732   7.107  0.5419  0.6831  0.4824
 8432TIP3   OH249490   0.792   7.228   7.581  0.3421  0.1204 -0.5075
 8432TIP3    H149491   0.735   7.263   7.650  1.8096  0.0830  0.7803
 8432TIP3    H249492   0.799   7.299   7.517  0.0927  0.6875  0.0828
 8433TIP3   OH249493   6.662   1.034   7.003  0.3424 -0.3224 -0.5451
 8433TIP3    H149494   6.701   0.949   7.023  1.6399 -0.3873 -3.0433
 8433TIP3    H249495   6.730   1.098   7.022 -0.1028  0.0451 -0.1429
 8434TIP3   OH249496   6.550   1.007   5.266  0.2024 -0.1975 -0.2060
 8434TIP3    H149497   6.591   1.093   5.270  1.2157 -0.6115 -1.1792
 8434TIP3    H249498   6.459   1.022   5.294  0.4123  1.1391 -0.1860
 8435TIP3   OH249499   5.554   4.340   5.218  0.1636  0.0932 -0.0678
 8435TIP3    H149500   5.566   4.363   5.125  1.4932 -1.0091 -0.2166
 8435TIP3    H249501   5.639   4.359   5.258 -0.8378  1.9976  1.2931
 8436TIP3   OH249502   2.095   0.336   7.011  0.4651 -0.6877 -0.2770
 8436TIP3    H149503   2.143   0.356   6.930 -1.1972 -1.6366 -1.5783
 8436TIP3    H249504   2.016   0.290   6.981 -0.3843 -0.7603  1.8825
 8437TIP3   OH249505   6.640   1.853   5.794  0.5500  0.4253 -0.3060
 8437TIP3    H149506   6.726   1.854   5.751  0.4771 -1.1590 -0.5232
 8437TIP3    H249507   6.631   1.765   5.828 -0.7862  0.7290  0.1786
 8438TIP3   OH249508   2.200   5.595   6.507 -0.2341  0.2055  0.4740
 8438TIP3    H149509   2.192   5.512   6.461 -0.1375  0.0885  0.6639
 8438TIP3    H249510   2.173   5.661   6.444  0.7733  0.1293 -0.0517
 8439TIP3   OH249511   6.386   3.157   6.831  0.0813 -0.0827  0.6831
 8439TIP3    H149512   6.444   3.211   6.885  1.8204 -0.1082 -1.0448
 8439TIP3    H249513   6.426   3.158   6.744 -1.8587 -1.1617 -0.2916
 8440TIP3   OH249514   1.642   3.006   5.974  0.3288 -0.1509  0.2008
 8440TIP3    H149515   1.733   3.001   6.004  0.4245 -0.6968 -0.1723
 8440TIP3    H249516   1.590   2.998   6.054  0.6038 -0.1412  0.3828
 8441TIP3   OH249517   6.845   0.995   5.095  0.2502 -0.3629  0.0110
 8441TIP3    H149518   6.776   0.929   5.084  0.6247 -0.6731 -0.4837
 8441TIP3    H249519   6.799   1.073   5.126 -0.0511 -1.2239  1.9148
 8442TIP3   OH249520   6.192   1.651   7.387  0.2877  0.1135 -0.1806
 8442TIP3    H149521   6.098   1.658   7.401  0.4902  1.2456  0.7771
 8442TIP3    H249522   6.220   1.584   7.449  0.5663  2.1893  2.0906
 8443TIP3   OH249523   3.979   3.958   5.688 -0.1611  1.1170  0.0643
 8443TIP3    H149524   4.069   3.953   5.720  0.3642  0.3889 -1.4638
 8443TIP3    H249525   3.986   4.001   5.603 -1.4384  2.2736  0.5054
 8444TIP3   OH249526   0.359   0.179   5.390  0.4209  0.6196 -0.0944
 8444TIP3    H149527   0.419   0.254   5.397  0.0197  0.8746  0.7925
 8444TIP3    H249528   0.276   0.212   5.424 -0.0862  0.1084 -0.8129
 8445TIP3   OH249529   0.340   0.706   6.107 -0.0973 -0.0660  0.1247
 8445TIP3    H149530   0.367   0.639   6.044  0.4344 -1.0008  1.3147
 8445TIP3    H249531   0.320   0.658   6.187 -1.2971  1.0493  0.5283
 8446TIP3   OH249532   4.634   2.542   5.117 -0.2340  0.8627 -0.3990
 8446TIP3    H149533   4.544   2.576   5.112  0.5455  2.8709 -2.3605
 8446TIP3    H249534   4.686   2.605   5.068  2.3212 -0.1730  0.8237
 8447TIP3   OH249535   7.054   4.610   7.390  0.0259 -0.0317  0.3810
 8447TIP3    H149536   6.987   4.578   7.449 -0.8041 -0.6009 -0.8407
 8447TIP3    H249537   7.006   4.646   7.315  1.0630 -0.1682 -0.3801
 8448TIP3   OH249538   1.864   2.687   6.520 -0.1219  0.0786  0.5711
 8448TIP3    H149539   1.887   2.602   6.482 -1.3242 -0.0689  0.1065
 8448TIP3    H249540   1.785   2.670   6.571 -0.4993  0.9499  0.3037
 8449TIP3   OH249541   5.213   4.337   6.305 -0.4755  0.5789  0.4413
 8449TIP3    H149542   5.143   4.310   6.246  0.8395 -0.5538 -0.6682
 8449TIP3    H249543   5.184   4.309   6.391 -1.1735 -0.3249 -0.0726
 8450TIP3   OH249544   4.457   1.186   7.298  0.2775  0.3972  0.7128
 8450TIP3    H149545   4.482   1.160   7.209  1.8345  0.1896  1.1869
 8450TIP3    H249546   4.390   1.123   7.324  1.2053 -0.7279  0.3958
 8451TIP3   OH249547   1.259   0.075   5.557  0.1700 -0.0591 -0.3620
 8451TIP3    H149548   1.326   0.027   5.508 -0.4803  0.8789 -2.2779
 8451TIP3    H249549   1.248   0.157   5.508 -3.2382 -0.6910 -0.8866
 8452TIP3   OH249550   4.363   5.618   6.486 -0.4843 -0.2798  0.0042
 8452TIP3    H149551   4.293   5.557   6.462 -1.8318  0.7161  1.1997
 8452TIP3    H249552   4.423   5.615   6.412 -1.6289 -1.4090 -0.9398
 8453TIP3   OH249553   3.817   1.412   5.152  0.7941 -0.4897 -0.1514
 8453TIP3    H149554   3.907   1.380   5.145  1.2518  0.7339 -0.0907
 8453TIP3    H249555   3.773   1.375   5.076  1.6870 -0.0701 -0.8961
 8454TIP3   OH249556   1.703   5.420   6.220  0.0919  0.5001  0.0361
 8454TIP3    H149557   1.658   5.415   6.305  1.1468 -0.0435  0.5817
 8454TIP3    H249558   1.659   5.354   6.166  1.7987 -1.8991  1.3608
 8455TIP3   OH249559   1.741   7.538   7.831 -0.3057  0.0300  0.2711
 8455TIP3    H149560   1.650   7.533   7.857 -0.1062  0.8011  1.1353
 8455TIP3    H249561   1.784   7.466   7.879 -0.5814 -0.8559 -0.7585
 8456TIP3   OH249562   1.940   0.473   4.620 -0.0113 -0.1799 -0.2231
 8456TIP3    H149563   2.018   0.421   4.603  0.3592  0.4869 -0.5923
 8456TIP3    H249564   1.867   0.413   4.605  0.4223 -0.6954 -0.2717
 8457TIP3   OH249565   2.323   0.565   4.539  0.2318 -0.1059 -0.5754
 8457TIP3    H149566   2.401   0.522   4.502  0.8816  1.6839 -1.4091
 8457TIP3    H249567   2.321   0.651   4.496 -2.7214 -0.4192 -1.2476
 8458TIP3   OH249568   0.982   1.458   5.315 -0.0423  0.0776 -0.0383
 8458TIP3    H149569   0.980   1.551   5.293  0.5489 -0.0621 -0.7031
 8458TIP3    H249570   1.042   1.419   5.252 -0.0185 -0.7026  0.4463
 8459TIP3   OH249571   0.252   6.619   5.923 -0.5335 -0.1662  0.0107
 8459TIP3    H149572   0.295   6.535   5.905  1.6320  0.3223  2.3351
 8459TIP3    H249573   0.307   6.684   5.881  0.4581  0.3735  2.0036
 8460TIP3   OH249574   4.986   3.060   7.200 -0.4041  0.7336 -0.4757
 8460TIP3    H149575   5.080   3.078   7.187 -0.0825 -0.0688  0.5950
 8460TIP3    H249576   4.964   3.107   7.281 -1.0717  1.3636 -1.0117
 8461TIP3   OH249577   2.654   4.186   5.876 -0.4747 -0.1489  0.8046
 8461TIP3    H149578   2.725   4.205   5.937  1.5200 -1.7096 -0.8720
 8461TIP3    H249579   2.577   4.172   5.932  0.8178  0.2793  2.7825
 8462TIP3   OH249580   1.875   0.741   5.955 -0.1300  1.1180  0.0253
 8462TIP3    H149581   1.781   0.729   5.940 -0.3332 -2.7162  2.8998
 8462TIP3    H249582   1.916   0.666   5.912  1.2805  1.0822  1.3620
 8463TIP3   OH249583   6.150   7.058   5.447 -0.5065 -0.2122  0.3083
 8463TIP3    H149584   6.227   7.035   5.395 -0.2691  1.0146  0.0906
 8463TIP3    H249585   6.184   7.117   5.515 -1.1059 -0.3807  0.7613
 8464TIP3   OH249586   4.031   1.311   4.573  0.0989 -0.0878  0.4854
 8464TIP3    H149587   4.001   1.401   4.585  2.1307  0.6274  0.7100
 8464TIP3    H249588   4.052   1.281   4.661 -1.4341 -1.1576  0.5243
 8465TIP3   OH249589   4.141   3.670   5.474 -0.5866 -0.4743 -0.3856
 8465TIP3    H149590   4.141   3.607   5.547 -1.4814 -0.4221 -0.3302
 8465TIP3    H249591   4.064   3.648   5.423 -1.1078  0.7661 -0.1888
 8466TIP3   OH249592   5.938   0.222   5.509 -0.0132 -0.1572 -0.2159
 8466TIP3    H149593   5.889   0.304   5.497  1.8963  0.9176 -1.0987
 8466TIP3    H249594   5.929   0.176   5.426  0.8500  0.2819 -0.5652
 8467TIP3   OH249595   5.550   1.172   5.384 -0.8516 -0.3734 -0.1238
 8467TIP3    H149596   5.505   1.244   5.340 -1.5809 -0.5653  0.2983
 8467TIP3    H249597   5.512   1.093   5.345  1.4106 -0.5903 -2.1177
 8468TIP3   OH249598   2.989   3.849   5.179 -0.1357  0.1288 -0.0830
 8468TIP3    H149599   2.932   3.925   5.164 -1.7886 -1.1408 -0.3929
 8468TIP3    H249600   2.989   3.836   5.274 -0.6090 -0.0616 -0.1111
 8469TIP3   OH249601   2.482   4.559   4.824 -0.1027 -0.3399 -0.5672
 8469TIP3    H149602   2.474   4.510   4.905 -0.3621 -0.2163 -0.5194
 8469TIP3    H249603   2.423   4.516   4.763  0.4177 -0.7050 -0.8263
 8470TIP3   OH249604   3.106   6.323   6.407  0.5251 -0.0150 -0.0297
 8470TIP3    H149605   3.130   6.246   6.356  0.2962 -1.1166  1.4804
 8470TIP3    H249606   3.162   6.319   6.485  0.7582  1.5480 -0.0778
 8471TIP3   OH249607   6.443   1.437   5.226 -0.1608  0.5270  0.3028
 8471TIP3    H149608   6.490   1.518   5.246  1.6549 -0.5979  0.7871
 8471TIP3    H249609   6.351   1.464   5.222  0.2446  2.3644  1.7662
 8472TIP3   OH249610   6.972   3.937   5.409 -0.2414  0.3768 -0.4069
 8472TIP3    H149611   6.961   4.032   5.408 -1.4752  0.2575 -1.2251
 8472TIP3    H249612   6.931   3.908   5.490 -1.3624  0.4138 -0.9447
 8473TIP3   OH249613   3.544   4.818   6.029  0.0976  0.0943  0.4194
 8473TIP3    H149614   3.602   4.818   6.105  0.3358  0.0389  0.2372
 8473TIP3    H249615   3.590   4.767   5.963 -0.5170 -0.6612  0.5492
 8474TIP3   OH249616   4.295   1.654   7.067  0.1763 -0.0578  0.0903
 8474TIP3    H149617   4.207   1.626   7.092 -0.1288  1.4829  0.8323
 8474TIP3    H249618   4.346   1.649   7.148  0.5469 -0.0613 -0.1404
 8475TIP3   OH249619   3.584   2.515   6.613  0.4357  0.4070  0.1956
 8475TIP3    H149620   3.502   2.528   6.661 -0.0713 -0.2478 -0.4765
 8475TIP3    H249621   3.652   2.546   6.673 -0.3113  1.1324  0.6916
 8476TIP3   OH249622   0.181   3.311   5.783 -0.3478 -0.1242 -0.0291
 8476TIP3    H149623   0.092   3.339   5.806 -0.2909  0.8355 -0.9126
 8476TIP3    H249624   0.171   3.258   5.705 -0.2236 -0.7575  0.3775
 8477TIP3   OH249625   2.029   7.351   5.888  0.3538 -0.7429  1.0106
 8477TIP3    H149626   2.057   7.331   5.799 -2.2695  2.6752 -0.8215
 8477TIP3    H249627   2.103   7.397   5.927  0.6573  0.0188 -0.3928
 8478TIP3   OH249628   7.137   1.678   5.656 -0.2134  0.2679 -0.4876
 8478TIP3    H149629   7.203   1.614   5.630  0.2888  1.0178 -1.1160
 8478TIP3    H249630   7.178   1.763   5.639 -0.7085  0.7732  0.7208
 8479TIP3   OH249631   2.035   6.246   6.920 -0.1942  0.7503 -0.6284
 8479TIP3    H149632   2.098   6.317   6.904 -0.3320  1.1333  0.4349
 8479TIP3    H249633   1.999   6.265   7.007 -2.3565  0.9676 -1.5038
 8480TIP3   OH249634   5.816   0.094   5.755  0.1577 -0.1287 -0.0254
 8480TIP3    H149635   5.863   0.151   5.694 -0.1436 -0.5667 -0.6808
 8480TIP3    H249636   5.769   0.154   5.813  1.9585  0.3538  1.0349
 8481TIP3   OH249637   0.085   1.439   5.067  0.6072  0.0903 -0.0148
 8481TIP3    H149638   0.135   1.374   5.117 -0.1813 -0.6083 -0.1136
 8481TIP3    H249639   0.044   1.388   4.996  1.2581  0.9652 -1.0548
 8482TIP3   OH249640   2.137   6.970   5.154 -0.2750 -0.1879 -0.0520
 8482TIP3    H149641   2.200   6.905   5.121  0.0400  1.0794 -2.1580
 8482TIP3    H249642   2.191   7.036   5.197 -0.5975 -1.2524  2.1021
 8483TIP3   OH249643   6.222   2.900   6.857 -0.1392 -0.7697  0.3007
 8483TIP3    H149644   6.298   2.956   6.874  0.2852 -0.9626 -0.8072
 8483TIP3    H249645   6.153   2.933   6.914  0.3592  0.3349  0.2835
 8484TIP3   OH249646   0.290   4.870   5.633  0.1606 -0.1482  0.3564
 8484TIP3    H149647   0.263   4.805   5.697 -1.0600 -0.7399 -0.7139
 8484TIP3    H249648   0.367   4.833   5.590  0.3512 -0.2085  0.7445
 8485TIP3   OH249649   0.763   5.323   5.239  0.2383 -0.1693 -0.8120
 8485TIP3    H149650   0.816   5.323   5.160  1.9841  1.4139  0.2889
 8485TIP3    H249651   0.739   5.415   5.252 -0.2565 -0.4477  0.3577
 8486TIP3   OH249652   4.993   0.715   6.244 -0.1550 -0.0600  0.1355
 8486TIP3    H149653   4.975   0.809   6.238 -0.4916 -0.1763 -0.8114
 8486TIP3    H249654   5.067   0.701   6.185  0.2002 -0.3181  0.6323
 8487TIP3   OH249655   1.139   1.967   5.896  0.4307 -0.3928  0.2012
 8487TIP3    H149656   1.123   1.981   5.803  1.3422 -3.0663 -0.4436
 8487TIP3    H249657   1.221   1.918   5.900  0.2454 -0.6512  2.3979
 8488TIP3   OH249658   3.075   1.950   5.409 -0.0264 -0.1303 -0.1501
 8488TIP3    H149659   3.006   1.888   5.384  0.0747 -0.8952  1.3132
 8488TIP3    H249660   3.121   1.969   5.328 -1.4689 -0.2103 -1.0245
 8489TIP3   OH249661   4.762   4.152   6.917  0.0440 -0.4845  0.8401
 8489TIP3    H149662   4.776   4.141   6.823 -1.1409 -0.2322  0.6218
 8489TIP3    H249663   4.840   4.198   6.948  0.0821  0.1492 -0.1624
 8490TIP3   OH249664   3.372   6.211   6.326 -0.2268 -0.1636 -0.1392
 8490TIP3    H149665   3.344   6.126   6.293 -1.7282  1.1422 -2.4584
 8490TIP3    H249666   3.353   6.272   6.255  2.1627  1.9267  0.8844
 8491TIP3   OH249667   6.460   1.050   6.827  0.2300  0.1263 -0.3279
 8491TIP3    H149668   6.391   0.992   6.860  0.1702 -0.6342 -1.7191
 8491TIP3    H249669   6.527   1.048   6.895 -0.4074 -0.4190  0.3081
 8492TIP3   OH249670   5.274   2.832   5.564  0.4961 -0.4705 -0.3328
 8492TIP3    H149671   5.226   2.890   5.506 -1.1365 -0.8990  0.5263
 8492TIP3    H249672   5.272   2.747   5.520  0.4907 -0.4817 -0.3111
 8493TIP3   OH249673   4.205   4.601   4.932 -0.0840  0.2888 -0.3381
 8493TIP3    H149674   4.131   4.639   4.980  1.0503  1.4017  0.6099
 8493TIP3    H249675   4.179   4.609   4.840 -1.5207 -0.1875 -0.0054
 8494TIP3   OH249676   1.039   6.462   5.241 -0.5842  0.2153 -0.2255
 8494TIP3    H149677   0.989   6.414   5.307 -0.5994 -0.6936 -0.8735
 8494TIP3    H249678   1.081   6.393   5.189  0.2182  0.9363 -0.5512
 8495TIP3   OH249679   0.653   4.687   7.292 -0.5422  0.3608  0.1044
 8495TIP3    H149680   0.651   4.592   7.279  0.8240  0.2786  0.3298
 8495TIP3    H249681   0.561   4.713   7.296 -1.0113 -1.3107  2.6468
 8496TIP3   OH249682   2.103   7.194   6.187  0.0705 -0.0954 -0.0296
 8496TIP3    H149683   2.020   7.188   6.233  0.4609 -2.3665  0.5099
 8496TIP3    H249684   2.143   7.276   6.218 -1.7537  0.8381 -0.0345
 8497TIP3   OH249685   3.140   1.234   5.992  0.1719 -0.5058  0.4223
 8497TIP3    H149686   3.065   1.227   5.933  0.1662 -1.7724  0.5594
 8497TIP3    H249687   3.177   1.146   5.994  2.6196  0.4084 -0.8623
 8498TIP3   OH249688   0.997   0.823   5.625 -0.3984 -0.1106  0.2363
 8498TIP3    H149689   1.092   0.828   5.621 -0.4599  0.5324 -1.2836
 8498TIP3    H249690   0.967   0.907   5.589 -1.4955 -1.7171 -3.0235
 8499TIP3   OH249691   0.098   3.834   4.731 -0.0823  0.1062  0.1928
 8499TIP3    H149692   0.138   3.749   4.713  2.2019  1.0304  0.5190
 8499TIP3    H249693   0.051   3.856   4.650  1.1214 -0.5325 -0.7160
 8500TIP3   OH249694   1.885   0.318   8.109 -0.4130  0.0397 -0.2990
 8500TIP3    H149695   1.876   0.398   8.057  1.6416  0.9654  0.6209
 8500TIP3    H249696   1.979   0.308   8.120 -0.5266 -3.1853 -1.2854
 8501TIP3   OH249697   4.012   4.330   6.467  0.5366  0.5344  0.3694
 8501TIP3    H149698   4.054   4.360   6.386  0.9772  1.5464  0.9647
 8501TIP3    H249699   3.930   4.290   6.437  0.5856  1.0997 -0.5669
 8502TIP3   OH249700   5.749   2.456   5.752  0.1484  0.1376 -0.8985
 8502TIP3    H149701   5.830   2.458   5.802 -0.0473 -1.7390 -0.4519
 8502TIP3    H249702   5.777   2.435   5.662  0.1386 -0.9874 -0.6495
 8503TIP3   OH249703   0.581   1.233   5.197 -0.2429 -0.0794 -0.0415
 8503TIP3    H149704   0.661   1.187   5.170  0.1131  0.8498 -0.5984
 8503TIP3    H249705   0.549   1.183   5.272 -0.7296 -2.1862 -1.5602
 8504TIP3   OH249706   7.258   5.031   4.574 -0.0110 -0.6212  0.9392
 8504TIP3    H149707   7.266   5.073   4.660 -1.9850  0.0904  0.8128
 8504TIP3    H249708   7.226   4.943   4.594  1.0633 -1.0197  0.9972
 8505TIP3   OH249709   3.594   1.652   5.995  0.0718  0.3252  0.3816
 8505TIP3    H149710   3.501   1.668   5.978 -0.1915 -1.9409 -0.6758
 8505TIP3    H249711   3.633   1.643   5.908  0.8781 -0.7265  0.8313
 8506TIP3   OH249712   7.620   3.367   5.074  0.2266  0.2609 -0.1441
 8506TIP3    H149713   7.695   3.391   5.020 -0.6126  2.3052 -0.5007
 8506TIP3    H249714   7.564   3.444   5.073 -2.1495 -1.3578 -0.3090
 8507TIP3   OH249715   7.389   2.268   4.944  0.6960  0.1623 -0.1563
 8507TIP3    H149716   7.449   2.340   4.963  0.4658  0.5146 -0.7272
 8507TIP3    H249717   7.417   2.236   4.857 -0.2598  0.6656 -0.6559
 8508TIP3   OH249718   7.396   2.282   7.138 -0.0462 -0.5298 -0.4690
 8508TIP3    H149719   7.300   2.289   7.136 -0.3747 -3.6582 -1.6096
 8508TIP3    H249720   7.419   2.289   7.230 -1.2098  1.3522 -0.2692
 8509TIP3   OH249721   4.030   0.617   6.407 -0.0954  0.3994 -0.4118
 8509TIP3    H149722   3.971   0.685   6.376 -0.8618 -1.2535 -2.8795
 8509TIP3    H249723   3.973   0.552   6.449  0.5911  1.0669  1.6825
 8510TIP3   OH249724   1.373   1.155   5.164 -0.2144 -0.3260 -0.0454
 8510TIP3    H149725   1.445   1.169   5.103 -0.9311  0.7010 -0.6830
 8510TIP3    H249726   1.315   1.093   5.119 -1.0745  0.9318 -0.7383
 8511TIP3   OH249727   4.302   6.169   5.002 -0.2968 -0.1739  0.2853
 8511TIP3    H149728   4.352   6.213   5.071  1.3036 -0.2576 -0.7973
 8511TIP3    H249729   4.272   6.240   4.945  0.6756 -0.3169 -0.4136
 8512TIP3   OH249730   6.604   5.270   6.929  0.0617 -0.2692  0.0761
 8512TIP3    H149731   6.580   5.363   6.922  0.8892 -0.1446 -1.7752
 8512TIP3    H249732   6.633   5.259   7.019 -1.7069  0.8417  0.8286
 8513TIP3   OH249733   3.913   5.998   6.313  0.5607  0.0424 -0.4091
 8513TIP3    H149734   3.918   6.093   6.306  0.2703  0.0990  0.0549
 8513TIP3    H249735   3.994   5.966   6.274 -0.1663  0.3798 -2.3006
 8514TIP3   OH249736   5.077   2.168   4.887  0.0403 -0.1802  0.4207
 8514TIP3    H149737   5.099   2.151   4.795  0.3784 -0.2943  0.5215
 8514TIP3    H249738   5.161   2.188   4.928  0.0519 -1.1941  0.9323
 8515TIP3   OH249739   7.054   3.918   4.757  0.4361 -0.3852  0.0509
 8515TIP3    H149740   7.015   3.854   4.698 -0.6613 -1.3117  1.6925
 8515TIP3    H249741   6.984   3.940   4.818  1.2324  1.2973  0.4293
 8516TIP3   OH249742   6.880   0.175   7.159 -0.4406  0.1755  0.4040
 8516TIP3    H149743   6.883   0.134   7.245  0.0114 -1.8692 -0.5189
 8516TIP3    H249744   6.801   0.230   7.161 -0.1294  0.6290  2.2666
 8517TIP3   OH249745   6.037   1.375   6.237  0.2953  0.6357 -0.0989
 8517TIP3    H149746   6.096   1.378   6.161 -0.8272 -0.3704 -1.0433
 8517TIP3    H249747   5.975   1.446   6.222 -0.4203 -0.0719 -0.5596
 8518TIP3   OH249748   3.580   6.590   6.927 -0.0867  0.7325  0.1709
 8518TIP3    H149749   3.510   6.564   6.867 -0.3798  2.3308 -0.2241
 8518TIP3    H249750   3.535   6.612   7.009  0.1071  0.4809  0.3490
 8519TIP3   OH249751   0.789   0.402   6.281  0.2625  0.4732 -0.1843
 8519TIP3    H149752   0.754   0.490   6.295 -0.1690  0.2826 -0.0099
 8519TIP3    H249753   0.882   0.409   6.302  0.5059  1.1752 -1.4320
 8520TIP3   OH249754   2.154   6.610   4.945 -0.4075  0.3152 -0.4382
 8520TIP3    H149755   2.095   6.648   4.880 -0.0582  0.2300 -0.8059
 8520TIP3    H249756   2.158   6.517   4.922 -1.9257 -0.1373  0.9566
 8521TIP3   OH249757   2.626   5.527   6.069  0.2015 -0.0756  0.7394
 8521TIP3    H149758   2.654   5.508   5.980 -3.0937  0.0878 -0.4417
 8521TIP3    H249759   2.698   5.495   6.124  1.2125 -2.5796 -1.8256
 8522TIP3   OH249760   0.953   0.983   6.919  0.0668 -0.0734 -0.5580
 8522TIP3    H149761   0.926   0.892   6.911  2.0440 -0.7006 -0.6781
 8522TIP3    H249762   0.920   1.025   6.840 -2.3713 -0.2164  0.3070
 8523TIP3   OH249763   4.418   6.834   6.941 -0.3567 -0.1415 -0.2790
 8523TIP3    H149764   4.428   6.740   6.925 -0.4829 -0.0090 -1.1654
 8523TIP3    H249765   4.325   6.846   6.960 -0.1673 -0.3314  0.7973
 8524TIP3   OH249766   7.012   2.744   5.420  0.1181 -0.9500  0.4318
 8524TIP3    H149767   6.947   2.724   5.488 -1.0339 -1.3196 -0.7371
 8524TIP3    H249768   6.973   2.710   5.339  1.3905 -0.3908 -0.4441
 8525TIP3   OH249769   4.067   1.269   6.454 -0.3860  0.5382  0.2264
 8525TIP3    H149770   4.160   1.259   6.472  0.1879  3.0476 -0.9329
 8525TIP3    H249771   4.037   1.180   6.436  1.5299 -0.4571  1.5731
 8526TIP3   OH249772   4.838   3.177   5.877  0.4280  0.1482 -0.5426
 8526TIP3    H149773   4.828   3.134   5.792 -0.3964  2.2263 -1.5562
 8526TIP3    H249774   4.752   3.170   5.918  0.1405  1.1875 -0.9280
 8527TIP3   OH249775   5.805   0.056   5.039 -0.7222 -0.3009  0.0739
 8527TIP3    H149776   5.761  -0.026   5.018  0.1329 -1.4075  2.3058
 8527TIP3    H249777   5.734   0.116   5.061 -1.2611 -1.4372  1.5947
 8528TIP3   OH249778   6.799   3.635   6.029 -0.1931 -0.3349  0.2349
 8528TIP3    H149779   6.824   3.704   6.090  2.1543  1.5088 -2.5077
 8528TIP3    H249780   6.731   3.674   5.974  0.3264 -0.5685 -0.6010
 8529TIP3   OH249781   0.487   6.318   6.553  0.2213 -0.2958 -0.1440
 8529TIP3    H149782   0.567   6.264   6.551  1.4217  1.4074 -0.5164
 8529TIP3    H249783   0.468   6.336   6.461 -0.8910 -1.0783 -0.0787
 8530TIP3   OH249784   0.885   5.781   4.654 -0.5587 -0.9805 -0.5109
 8530TIP3    H149785   0.806   5.727   4.652 -1.0391 -0.3677  0.7792
 8530TIP3    H249786   0.855   5.869   4.632 -0.4781 -0.5088  1.1061
 8531TIP3   OH249787   2.483   1.203   6.060  0.1696  0.5067  0.1937
 8531TIP3    H149788   2.393   1.180   6.082 -0.8323  2.0561 -2.0123
 8531TIP3    H249789   2.536   1.153   6.122 -2.1856 -0.3711  1.6120
 8532TIP3   OH249790   1.762   6.078   5.958 -0.5093  0.1006  0.0416
 8532TIP3    H149791   1.671   6.098   5.976 -0.4486 -0.4083  0.9906
 8532TIP3    H249792   1.810   6.158   5.982 -0.4668 -0.4484  1.9464
 8533TIP3   OH249793   1.529   1.030   7.421  0.1189 -0.0494 -0.1315
 8533TIP3    H149794   1.617   1.057   7.447 -0.0657  0.2429  0.1939
 8533TIP3    H249795   1.515   1.074   7.337 -0.8830  2.4348  1.2327
 8534TIP3   OH249796   6.709   3.541   6.686  0.2045  0.4187  0.7007
 8534TIP3    H149797   6.734   3.614   6.629 -1.2693  0.2080 -0.2855
 8534TIP3    H249798   6.771   3.544   6.758 -0.5982  3.4844  1.4112
 8535TIP3   OH249799   0.889   1.722   5.305  0.4034  0.2859  0.5708
 8535TIP3    H149800   0.911   1.755   5.218 -0.0645  0.8607  0.6640
 8535TIP3    H249801   0.793   1.722   5.306  0.4088  0.2419  1.0768
 8536TIP3   OH249802   3.691   4.162   5.331  0.4826  0.1081  0.3375
 8536TIP3    H149803   3.620   4.143   5.391  0.1762  1.1984  0.3440
 8536TIP3    H249804   3.754   4.090   5.344  0.4742  0.3641  2.0257
 8537TIP3   OH249805   3.309   6.799   6.540 -0.3158 -0.4661  0.3293
 8537TIP3    H149806   3.293   6.719   6.489 -1.7097  0.1167 -0.2092
 8537TIP3    H249807   3.282   6.777   6.629  2.1945 -1.5116  0.9154
 8538TIP3   OH249808   2.032   4.967   4.751  0.3434  0.4776 -0.3010
 8538TIP3    H149809   2.053   5.006   4.667  1.0332  0.1665 -0.2839
 8538TIP3    H249810   2.052   5.036   4.815 -0.6141  0.8693 -0.4143
 8539TIP3   OH249811   7.198   5.645   5.477 -0.3618  0.3554  0.0639
 8539TIP3    H149812   7.242   5.679   5.399 -0.0492 -0.2733 -0.0386
 8539TIP3    H249813   7.105   5.653   5.457 -0.3560  2.2841  0.5271
 8540TIP3   OH249814   3.081   0.698   5.025 -0.2937 -0.7643  0.1173
 8540TIP3    H149815   3.023   0.729   4.956  1.2890 -0.5788 -1.2082
 8540TIP3    H249816   3.169   0.716   4.991  0.5540  0.3708  2.6566
 8541TIP3   OH249817   0.082   1.181   6.903  0.1912 -0.1500 -0.1319
 8541TIP3    H149818   0.090   1.164   6.809  1.3650 -0.7547  0.0590
 8541TIP3    H249819   0.078   1.094   6.943  0.7002  0.0923  0.4596
 8542TIP3   OH249820   6.807   0.672   7.448  0.4084 -0.0707  0.2570
 8542TIP3    H149821   6.747   0.671   7.523 -1.0346  1.1134 -0.8272
 8542TIP3    H249822   6.811   0.764   7.422  1.9327 -0.2706 -0.3488
 8543TIP3   OH249823   3.984   7.562   6.665  0.1469 -0.3134  0.0046
 8543TIP3    H149824   3.964   7.591   6.576 -0.8193 -0.2394  0.2350
 8543TIP3    H249825   3.909   7.590   6.717  0.3412 -1.0311  0.6994
 8544TIP3   OH249826   0.200   4.246   4.725  0.1943 -0.3861  0.3984
 8544TIP3    H149827   0.110   4.220   4.704  0.1530 -0.0798  0.1989
 8544TIP3    H249828   0.252   4.169   4.705 -0.2157 -1.1604  2.0823
 8545TIP3   OH249829   2.936   3.507   6.208 -0.0786  0.1339 -0.1363
 8545TIP3    H149830   3.023   3.486   6.174  0.4334  2.0914 -0.1542
 8545TIP3    H249831   2.905   3.578   6.153 -0.7244  0.9918  1.2785
 8546TIP3   OH249832   7.576   3.558   7.288  0.4252  0.0989 -0.3250
 8546TIP3    H149833   7.669   3.537   7.281  1.1877  2.1222  1.9971
 8546TIP3    H249834   7.573   3.654   7.286 -1.2832  0.1812  1.8270
 8547TIP3   OH249835   7.527   2.200   5.245  0.5507 -0.6664 -0.4871
 8547TIP3    H149836   7.454   2.164   5.195 -0.4171  1.6986 -0.9218
 8547TIP3    H249837   7.548   2.283   5.202  1.5402  0.1219  1.3562
 8548TIP3   OH249838   2.367   3.388   4.683 -1.0988 -0.2242  0.5580
 8548TIP3    H149839   2.367   3.450   4.756 -1.8418  0.3013  0.1231
 8548TIP3    H249840   2.377   3.443   4.605 -0.2051 -0.7923  0.2690
 8549TIP3   OH249841   7.122   3.996   6.762  0.0244  0.0864 -0.1189
 8549TIP3    H149842   7.095   4.000   6.854 -0.8015 -0.6477 -0.3211
 8549TIP3    H249843   7.200   3.940   6.762  0.5058  0.7428  0.2299
 8550TIP3   OH249844   7.295   3.357  11.545 -0.6883  1.0605 -0.2808
 8550TIP3    H149845   7.374   3.303  11.554 -2.5741 -2.1417 -1.3036
 8550TIP3    H249846   7.302   3.396  11.458 -0.1396  0.9787 -0.2740
 8551TIP3   OH249847   5.090   6.532   5.369 -0.3267 -0.2673  0.2692
 8551TIP3    H149848   5.058   6.447   5.401  0.0209 -0.0880  1.1421
 8551TIP3    H249849   5.183   6.531   5.391 -0.3955  0.4850  0.6135
 8552TIP3   OH249850   0.777   2.094   5.703  0.1729 -0.4144 -0.2381
 8552TIP3    H149851   0.749   2.085   5.612 -0.5036 -0.1232 -0.0662
 8552TIP3    H249852   0.809   2.007   5.727 -0.4758 -0.7247 -0.4798
 8553TIP3   OH249853   2.731   1.415   4.612  0.1936 -0.0502  0.3099
 8553TIP3    H149854   2.812   1.401   4.662  0.6728  1.2936 -0.0663
 8553TIP3    H249855   2.743   1.499   4.569 -0.6944 -0.6501 -1.1798
 8554TIP3   OH249856   4.147   7.457   6.010 -0.5246  0.0680 -0.0764
 8554TIP3    H149857   4.176   7.540   5.973  0.3063  0.2415  0.9104
 8554TIP3    H249858   4.207   7.441   6.084 -1.9830 -0.3516  1.0675
 8555TIP3   OH249859   3.773   5.870   5.305 -0.0640  0.7545 -0.2532
 8555TIP3    H149860   3.728   5.877   5.221 -3.1704  0.1051  1.2305
 8555TIP3    H249861   3.838   5.801   5.292 -2.3452 -1.3163 -1.4285
 8556TIP3   OH249862   1.524   6.769   4.783  0.0866 -0.2475 -0.7696
 8556TIP3    H149863   1.553   6.795   4.871 -0.9422 -0.0958 -0.4526
 8556TIP3    H249864   1.465   6.839   4.756 -0.9089 -1.0973 -0.8730
 8557TIP3   OH249865   3.371   3.596   5.439  0.4253 -0.5714 -0.2334
 8557TIP3    H149866   3.355   3.575   5.531 -0.2649  0.0797 -0.1907
 8557TIP3    H249867   3.339   3.686   5.430 -0.3172 -0.9292 -1.3078
 8558TIP3   OH249868   3.188   4.238   5.190 -0.1492 -0.5575  0.1931
 8558TIP3    H149869   3.113   4.223   5.131  0.4774 -2.3846 -0.1875
 8558TIP3    H249870   3.229   4.318   5.155 -1.9352  0.5318  0.4633
 8559TIP3   OH249871   0.981   2.669   6.831  0.6894  0.0760  0.0798
 8559TIP3    H149872   0.906   2.728   6.829  0.8157  0.2290 -0.1298
 8559TIP3    H249873   0.981   2.633   6.920  1.3563  1.3572  0.6154
 8560TIP3   OH249874   6.849   2.282   5.801  0.4370 -0.0081 -0.0272
 8560TIP3    H149875   6.776   2.338   5.827 -0.3350 -0.4281 -1.2027
 8560TIP3    H249876   6.813   2.193   5.804  0.5328 -0.1403 -1.6763
 8561TIP3   OH249877   2.452   3.672   7.041 -0.3961  0.2703  0.2691
 8561TIP3    H149878   2.364   3.650   7.011 -0.5897 -1.6487  1.9984
 8561TIP3    H249879   2.510   3.626   6.980 -0.6014  0.6278 -0.2065
 8562TIP3   OH249880   4.877   2.081  13.058  0.0151  0.2430 -0.1305
 8562TIP3    H149881   4.952   2.032  13.024  0.1386 -1.6522  2.5622
 8562TIP3    H249882   4.915   2.142  13.121 -0.6032  0.2196  0.2692
 8563TIP3   OH249883   4.899   6.722   5.505  0.1884 -0.0174 -0.3937
 8563TIP3    H149884   4.963   6.791   5.526 -0.5168  1.3785 -2.4306
 8563TIP3    H249885   4.946   6.663   5.446  0.3916 -0.5641  0.3002
 8564TIP3   OH249886   0.169   2.534   6.152  0.3900 -0.5096  0.7172
 8564TIP3    H149887   0.183   2.616   6.105  0.1832  0.0044  1.5371
 8564TIP3    H249888   0.078   2.511   6.133  0.7147 -1.0530 -0.2687
 8565TIP3   OH249889   0.110   6.033   4.784 -0.1343  0.4038  0.0130
 8565TIP3    H149890   0.183   5.985   4.823  0.0083  0.4969 -0.1404
 8565TIP3    H249891   0.045   6.039   4.854 -0.5637 -0.8642 -0.2466
 8566TIP3   OH249892   6.104   3.883   4.703  0.0317  0.0243 -0.3794
 8566TIP3    H149893   6.170   3.856   4.767 -0.2135 -0.9818 -0.5314
 8566TIP3    H249894   6.037   3.814   4.708 -1.1698  1.1859 -0.0001
 8567TIP3   OH249895   7.462   0.666   5.642 -0.5819 -0.1878 -0.2037
 8567TIP3    H149896   7.483   0.660   5.736  0.1610  0.4906 -0.3198
 8567TIP3    H249897   7.420   0.582   5.622  0.4684 -0.8931  0.4385
 8568TIP3   OH249898   2.767   7.507   5.390 -0.1894 -0.1464 -0.4183
 8568TIP3    H149899   2.840   7.525   5.331  0.7248 -1.0330  0.3944
 8568TIP3    H249900   2.732   7.423   5.361  1.1470 -1.2854  1.0712
 8569TIP3   OH249901   5.958   6.475   5.938  0.2335 -0.1343 -0.4491
 8569TIP3    H149902   6.025   6.428   5.888  0.2673 -1.3535  0.6775
 8569TIP3    H249903   6.001   6.495   6.021 -0.1715  0.8843 -0.4689
 8570TIP3   OH249904   5.187   6.618   6.154  0.1304  0.2887  0.2702
 8570TIP3    H149905   5.227   6.535   6.131 -1.0465  0.0677 -1.1494
 8570TIP3    H249906   5.101   6.616   6.112 -0.5328  1.6042  1.4448
 8571TIP3   OH249907   3.868   7.048   6.040 -0.6745  0.2239 -0.2492
 8571TIP3    H149908   3.876   7.132   6.086 -0.8342 -0.8695  1.8988
 8571TIP3    H249909   3.835   6.988   6.106  0.8712 -1.9179 -1.3159
 8572TIP3   OH249910   5.825   7.536   6.547 -0.3836  0.3403 -0.2248
 8572TIP3    H149911   5.859   7.552   6.459 -0.2755 -0.9769 -0.4442
 8572TIP3    H249912   5.866   7.603   6.601 -0.1200  0.9054 -1.1016
 8573TIP3   OH249913   2.625   5.744   5.770 -0.2449  0.8002  0.4257
 8573TIP3    H149914   2.694   5.677   5.768 -0.3910  0.6550 -1.5169
 8573TIP3    H249915   2.546   5.696   5.794  0.1584  0.8228  1.8714
 8574TIP3   OH249916   4.760   0.293   6.892 -0.1042 -0.6256 -0.1057
 8574TIP3    H149917   4.787   0.236   6.964 -0.1807  0.0925  0.5151
 8574TIP3    H249918   4.677   0.257   6.862  1.0396 -2.3315 -1.4348
 8575TIP3   OH249919   1.281   0.834   6.545  0.6763 -0.6136 -0.6914
 8575TIP3    H149920   1.292   0.838   6.450  2.3191  1.4521 -0.4853
 8575TIP3    H249921   1.232   0.913   6.566 -0.4886 -1.5159  0.1467
 8576TIP3   OH249922   4.334   6.978   6.586  0.0210 -0.2456  0.1610
 8576TIP3    H149923   4.341   6.883   6.597 -1.2388 -0.2035  1.7642
 8576TIP3    H249924   4.365   6.994   6.497  2.6886 -1.8538  0.6652
 8577TIP3   OH249925   0.692   1.967   6.587  0.0375 -0.1301 -0.2548
 8577TIP3    H149926   0.740   1.917   6.521 -1.2077 -1.9692  0.1670
 8577TIP3    H249927   0.740   1.952   6.668 -0.2784 -0.5893 -0.1476
 8578TIP3   OH249928   6.363   2.476   5.011 -0.2686 -0.0557  0.2511
 8578TIP3    H149929   6.299   2.410   5.038  0.7590 -0.3483  2.1975
 8578TIP3    H249930   6.423   2.482   5.085 -0.1618  2.9103  0.0239
 8579TIP3   OH249931   1.838   7.172   4.363  0.3616  0.1281  0.4063
 8579TIP3    H149932   1.863   7.087   4.400  2.5383  0.0768 -1.0073
 8579TIP3    H249933   1.754   7.156   4.320 -0.4750 -0.6520  2.2320
 8580TIP3   OH249934   5.112   4.184   5.846 -0.1067 -0.2517  0.5400
 8580TIP3    H149935   5.127   4.094   5.874  0.7317  0.0443  1.0733
 8580TIP3    H249936   5.061   4.223   5.916  2.2099  0.5636  1.8900
 8581TIP3   OH249937   7.295   4.617   7.303 -0.3642 -0.0245 -0.0742
 8581TIP3    H149938   7.297   4.693   7.362 -1.0936  0.3931 -0.5695
 8581TIP3    H249939   7.207   4.583   7.311  0.3456 -1.7009  1.1974
 8582TIP3   OH249940   4.701   5.230   5.851 -0.1915 -1.0780  0.3025
 8582TIP3    H149941   4.646   5.192   5.782  0.2829 -1.2839  0.0334
 8582TIP3    H249942   4.746   5.154   5.890 -0.0718 -0.9088  0.4960
 8583TIP3   OH249943   2.255   5.351   6.358 -0.4868 -0.0488 -0.2779
 8583TIP3    H149944   2.346   5.368   6.333 -0.7097  0.9136 -0.4901
 8583TIP3    H249945   2.257   5.347   6.453 -0.3635  0.9628 -0.2246
 8584TIP3   OH249946   1.320   4.865   5.409 -0.1319  0.5792 -0.0853
 8584TIP3    H149947   1.250   4.812   5.371 -1.0427  1.0077  0.9481
 8584TIP3    H249948   1.276   4.943   5.443  0.6368  0.3142  1.6652
 8585TIP3   OH249949   2.176   2.414   6.794 -0.2493  0.1628  0.6636
 8585TIP3    H149950   2.149   2.329   6.759 -1.8680  1.2389 -0.9249
 8585TIP3    H249951   2.257   2.434   6.748 -0.1661 -0.2639  0.6191
 8586TIP3   OH249952   6.743   2.088   5.030  0.1944  0.1537 -0.9507
 8586TIP3    H149953   6.776   2.008   4.990  1.9799  0.2897  0.1088
 8586TIP3    H249954   6.649   2.076   5.034  0.4207 -1.9226 -0.7933
 8587TIP3   OH249955   1.353   7.555   7.482 -0.0022 -0.1499  0.9104
 8587TIP3    H149956   1.309   7.483   7.437  1.7152 -0.9266  0.3716
 8587TIP3    H249957   1.384   7.516   7.564 -0.0407  0.2998  1.1445
 8588TIP3   OH249958   0.065   5.343   5.477 -0.2589 -0.0196 -0.4497
 8588TIP3    H149959  -0.009   5.403   5.473  0.1167  0.3811 -2.2122
 8588TIP3    H249960   0.094   5.347   5.568 -1.9677  0.3152  0.1177
 8589TIP3   OH249961   3.173   3.839   7.008 -0.2850  0.2797 -0.0133
 8589TIP3    H149962   3.232   3.777   6.965 -1.1406 -1.4322  1.2083
 8589TIP3    H249963   3.190   3.922   6.962  0.2491 -0.9967 -2.3094
 8590TIP3   OH249964   0.966   0.550   5.059 -0.1835  0.3028  0.6555
 8590TIP3    H149965   0.953   0.486   4.988 -1.0434  0.4512  0.6615
 8590TIP3    H249966   0.991   0.631   5.015  0.1690  0.1624  0.5934
 8591TIP3   OH249967   6.983   4.733   6.121 -0.1857 -0.0316 -0.2236
 8591TIP3    H149968   6.906   4.707   6.172  0.0562 -0.6177 -0.1576
 8591TIP3    H249969   7.019   4.652   6.087 -0.5769  0.3796 -1.7045
 8592TIP3   OH249970   4.213   5.241   6.134  0.8136  0.0726 -0.4553
 8592TIP3    H149971   4.226   5.252   6.040  0.8822 -1.5824 -0.6622
 8592TIP3    H249972   4.135   5.293   6.153 -2.5664 -3.6261 -2.5246
 8593TIP3   OH249973   0.452   3.927   6.714 -0.3140 -0.2115 -0.4839
 8593TIP3    H149974   0.469   3.978   6.793 -0.9190  2.0555 -1.7276
 8593TIP3    H249975   0.368   3.885   6.731  0.1862 -0.8095  0.5704
 8594TIP3   OH249976   5.016   6.035   6.577  0.4426  0.1213  0.0950
 8594TIP3    H149977   5.049   6.100   6.639  0.6723  0.0695  0.0276
 8594TIP3    H249978   4.957   6.084   6.519 -1.4041 -0.2087  1.6094
 8595TIP3   OH249979   6.535   3.429   6.855  0.9271  0.3048  0.4614
 8595TIP3    H149980   6.593   3.449   6.928  0.6091  4.4118 -0.1835
 8595TIP3    H249981   6.577   3.470   6.779  0.5483 -2.6212 -1.5123
 8596TIP3   OH249982   5.170   1.987   6.080 -0.5905 -0.1570 -0.3651
 8596TIP3    H149983   5.134   1.967   5.993 -0.0681 -2.2544 -0.1623
 8596TIP3    H249984   5.233   1.916   6.096  0.5260  1.0910  1.0563
 8597TIP3   OH249985   6.170   7.338   6.905 -0.5253 -0.2655 -0.5500
 8597TIP3    H149986   6.255   7.313   6.942 -1.4942 -1.9425  0.7116
 8597TIP3    H249987   6.192   7.382   6.823  1.5670 -0.5243 -0.1969
 8598TIP3   OH249988   0.823   6.303   7.497  0.1257  0.4475  0.5771
 8598TIP3    H149989   0.797   6.212   7.516 -2.6858  0.5739 -1.8857
 8598TIP3    H249990   0.871   6.297   7.415  1.1959  1.1174  1.1245
 8599TIP3   OH249991   6.110   3.333   4.831  0.1381 -0.0557  0.1034
 8599TIP3    H149992   6.192   3.383   4.833  0.2821 -0.3119  0.6372
 8599TIP3    H249993   6.135   3.246   4.801  0.3135 -0.5843  1.7084
 8600TIP3   OH249994   3.224   0.197   5.345  0.2096  0.7944 -0.0688
 8600TIP3    H149995   3.250   0.276   5.393  0.1344 -0.7668  2.7141
 8600TIP3    H249996   3.248   0.124   5.403 -0.2816 -1.2384 -2.2632
 8601TIP3   OH249997   1.323   4.757   5.145 -0.1824 -0.4667 -0.1380
 8601TIP3    H149998   1.326   4.689   5.212 -0.1627  0.9777  1.3770
 8601TIP3    H249999   1.408   4.799   5.149 -0.8066  0.8012  0.1960
 8602TIP3   OH250000   5.077   0.203   6.461 -0.4504 -0.7591 -0.2862
 8602TIP3    H150001   4.982   0.196   6.476 -0.3819  1.7753  2.2315
 8602TIP3    H250002   5.085   0.246   6.376 -1.4960 -1.8712 -0.9755
 8603TIP3   OH250003   3.538   3.581   5.940  0.2235  0.2412  0.1065
 8603TIP3    H150004   3.602   3.512   5.921  0.5629 -0.0031  2.0106
 8603TIP3    H250005   3.458   3.533   5.965  0.1649  0.5383  0.4970
 8604TIP3   OH250006   6.151   5.479   4.775  0.1711  0.3554 -0.0558
 8604TIP3    H150007   6.175   5.554   4.722 -1.3151  0.1417 -1.1113
 8604TIP3    H250008   6.064   5.501   4.810 -0.0210 -0.6119  0.1196
 8605TIP3   OH250009   4.962   1.012   7.021 -0.1505  0.0228 -0.3957
 8605TIP3    H150010   4.953   1.065   6.942  0.7384  0.9212  0.0799
 8605TIP3    H250011   5.055   0.986   7.022  0.0333  0.6773  0.7481
 8606TIP3   OH250012   4.518   5.174   6.795 -0.7539  0.0566  0.1984
 8606TIP3    H150013   4.470   5.210   6.719  0.0523 -0.7209 -0.6999
 8606TIP3    H250014   4.492   5.082   6.797  0.6096 -0.3541 -0.2486
 8607TIP3   OH250015   0.218   3.628   5.152 -0.1484 -0.1232  0.1651
 8607TIP3    H150016   0.124   3.643   5.163  0.1024  1.0816  0.8430
 8607TIP3    H250017   0.225   3.576   5.072 -1.5485 -2.2827  1.3524
 8608TIP3   OH250018   4.162   2.932   6.043 -0.1306  1.0208  0.0153
 8608TIP3    H150019   4.198   3.018   6.020  1.7540  0.5002  0.8664
 8608TIP3    H250020   4.217   2.901   6.115 -1.1702 -0.6492  0.1506
 8609TIP3   OH250021   4.226   2.891   4.639 -0.3781  0.6370  0.5151
 8609TIP3    H150022   4.186   2.811   4.673 -0.6937  0.5404 -0.0666
 8609TIP3    H250023   4.162   2.925   4.577  0.7059  0.1252 -0.9534
 8610TIP3   OH250024   3.898   2.356   5.471  0.2790  1.0608  0.2072
 8610TIP3    H150025   3.885   2.342   5.565 -0.7601  1.1699  0.0906
 8610TIP3    H250026   3.970   2.419   5.467  2.5192 -1.2732  0.8181
 8611TIP3   OH250027   1.077   2.977   6.241  0.1353  0.3384 -0.1349
 8611TIP3    H150028   1.008   3.014   6.296 -0.1132 -0.0801 -0.1569
 8611TIP3    H250029   1.030   2.919   6.181  0.4092  0.7504 -0.7540
 8612TIP3   OH250030   1.017   4.542   5.185 -0.0870  0.0798 -0.1061
 8612TIP3    H150031   1.046   4.467   5.237  0.8172  2.0531  2.4039
 8612TIP3    H250032   1.099   4.585   5.158 -0.5230  2.0498  1.4848
 8613TIP3   OH250033   5.519   0.061   7.764  0.5085 -0.7909 -0.4858
 8613TIP3    H150034   5.597   0.093   7.809 -0.5334  1.4761 -0.1093
 8613TIP3    H250035   5.539   0.072   7.671  0.6640 -0.2140 -0.3906
 8614TIP3   OH250036   1.508   0.382   5.848 -0.2341  0.1018  0.0788
 8614TIP3    H150037   1.572   0.443   5.886  1.0244  0.9258 -3.0345
 8614TIP3    H250038   1.470   0.430   5.774 -4.1088 -0.6036  1.3614
 8615TIP3   OH250039   6.325   1.314   6.862 -0.3597  0.4707 -0.8996
 8615TIP3    H150040   6.322   1.239   6.803  0.3832  0.4581 -0.9322
 8615TIP3    H250041   6.346   1.276   6.948 -2.4721  0.3612 -0.3728
 8616TIP3   OH250042   6.380   3.348   4.784  0.7030  0.1506  0.3532
 8616TIP3    H150043   6.453   3.390   4.738 -0.5670  0.9928 -0.9992
 8616TIP3    H250044   6.391   3.255   4.766  1.3419  0.2898  0.0055
 8617TIP3   OH250045   2.123   4.881   6.328  0.0492 -0.3388  0.1459
 8617TIP3    H150046   2.153   4.886   6.418  1.0895  0.8428 -0.2374
 8617TIP3    H250047   2.042   4.932   6.326 -0.7264 -1.5102  0.6759
 8618TIP3   OH250048   5.009   4.104   4.701  0.1910 -0.7147  0.6263
 8618TIP3    H150049   4.966   4.162   4.638 -2.0985 -0.0964  2.6232
 8618TIP3    H250050   5.044   4.033   4.647 -2.1368 -0.5190 -1.3277
 8619TIP3   OH250051   2.532   6.561   5.064  0.5633 -0.0008  0.5918
 8619TIP3    H150052   2.483   6.484   5.036 -1.0728  0.1465  2.7777
 8619TIP3    H250053   2.498   6.633   5.011 -0.6553 -0.1597  1.1122
 8620TIP3   OH250054   1.432   7.185   5.191  0.0216  0.1185 -0.3553
 8620TIP3    H150055   1.336   7.185   5.191 -0.1064  0.2520  2.9554
 8620TIP3    H250056   1.457   7.098   5.223  0.9719  0.3589 -0.4020
 8621TIP3   OH250057   0.157   5.191   4.599 -0.5623 -0.0443 -0.1703
 8621TIP3    H150058   0.226   5.125   4.596 -0.3783  0.1800 -1.8910
 8621TIP3    H250059   0.079   5.143   4.627 -0.2647 -0.8281 -0.6663
 8622TIP3   OH250060   1.707   7.277   5.176  0.1277 -0.2779  0.0416
 8622TIP3    H150061   1.618   7.259   5.206  0.5134 -1.6824  0.4595
 8622TIP3    H250062   1.739   7.192   5.146  0.7573  0.5310 -1.7126
 8623TIP3   OH250063   4.737   0.479   7.121  0.6057 -0.6316  0.1047
 8623TIP3    H150064   4.738   0.467   7.026  0.9085  0.6673 -0.0774
 8623TIP3    H250065   4.655   0.438   7.149  0.0145 -0.1546 -0.8575
 8624TIP3   OH250066   6.623   0.318   7.140 -0.2982 -0.3488 -0.4986
 8624TIP3    H150067   6.604   0.295   7.231  0.4404 -0.0355 -0.2562
 8624TIP3    H250068   6.537   0.334   7.101 -0.7601 -2.2136 -0.3361
 8625TIP3   OH250069   3.442   6.552   5.571 -0.0962 -0.4245  0.1051
 8625TIP3    H150070   3.438   6.470   5.522 -0.3909 -0.1189 -0.3870
 8625TIP3    H250071   3.499   6.532   5.645 -1.3027 -1.4808  0.7819
 8626TIP3   OH250072   1.612   1.272   5.320  0.6819 -0.0201  0.5949
 8626TIP3    H150073   1.532   1.313   5.287 -0.3103 -1.7898  0.6642
 8626TIP3    H250074   1.630   1.316   5.402 -1.0641 -0.5252  1.2827
 8627TIP3   OH250075   2.893   7.037   5.279 -0.3547  0.2300 -0.3564
 8627TIP3    H150076   2.843   7.118   5.290 -1.0795 -0.3407  0.7967
 8627TIP3    H250077   2.895   6.999   5.367  3.3358  0.9071  0.0289
 8628TIP3   OH250078   5.989   7.306   6.180 -0.1198  0.1518 -0.1036
 8628TIP3    H150079   5.914   7.267   6.224  1.2990 -0.6267  1.7683
 8628TIP3    H250080   5.993   7.395   6.214 -0.0781  0.1262 -0.0414
 8629TIP3   OH250081   0.548   5.953   5.765  0.0157  0.0195  0.2958
 8629TIP3    H150082   0.505   5.968   5.850 -0.3148 -1.7155  0.4707
 8629TIP3    H250083   0.621   6.015   5.764 -0.5970  0.7914  1.3900
 8630TIP3   OH250084   4.457   1.865   6.560  0.2033  0.1718  0.4314
 8630TIP3    H150085   4.549   1.877   6.583  0.3151  0.0133  0.0699
 8630TIP3    H250086   4.423   1.805   6.627  0.3405  0.2933  0.6107
 8631TIP3   OH250087   6.314   5.520   5.673 -0.0212  0.1300  0.1296
 8631TIP3    H150088   6.275   5.564   5.597  0.3030  2.5547  1.2650
 8631TIP3    H250089   6.363   5.589   5.717  1.8031 -1.7798  1.2457
 8632TIP3   OH250090   2.793   1.735   6.953 -0.0778  0.1851  0.3447
 8632TIP3    H150091   2.845   1.671   7.001 -0.1004 -0.4334 -0.4292
 8632TIP3    H250092   2.718   1.753   7.011  0.3991  0.2168  0.9634
 8633TIP3   OH250093   5.415   4.317   4.858 -0.2209  0.4934  0.0857
 8633TIP3    H150094   5.396   4.377   4.786  0.8149 -0.1842 -0.7696
 8633TIP3    H250095   5.506   4.336   4.883 -0.1451 -0.1621  0.3471
 8634TIP3   OH250096   7.102   5.654   6.833  0.4576 -0.5684 -0.4602
 8634TIP3    H150097   7.029   5.646   6.894  0.8498  0.2853  0.1240
 8634TIP3    H250098   7.095   5.576   6.777  1.3892 -2.5791  2.0446
 8635TIP3   OH250099   4.560   1.893   4.988 -0.1937 -0.5146 -0.1072
 8635TIP3    H150100   4.584   1.835   5.060  0.9453  0.2862  0.1917
 8635TIP3    H250101   4.538   1.976   5.031  0.8966  0.0924 -0.6775
 8636TIP3   OH250102   7.486   4.761   4.697  0.5036 -0.1723  0.5775
 8636TIP3    H150103   7.458   4.797   4.781  2.2873 -0.5989  1.4124
 8636TIP3    H250104   7.411   4.710   4.666 -0.1079 -0.1946  2.0381
 8637TIP3   OH250105   2.351   3.063   6.896 -0.0876 -0.0284  0.0525
 8637TIP3    H150106   2.257   3.074   6.907 -0.2533  0.3103 -1.4379
 8637TIP3    H250107   2.369   2.975   6.929 -1.7185 -1.8928 -3.4426
 8638TIP3   OH250108   2.130   1.481   5.697  0.3141  0.1464  0.0032
 8638TIP3    H150109   2.082   1.466   5.779 -0.1754 -0.8825 -0.4633
 8638TIP3    H250110   2.063   1.510   5.635  0.7428  1.2871  0.0393
 8639TIP3   OH250111   4.265   4.075   6.646 -0.0949 -1.2155 -0.3394
 8639TIP3    H150112   4.313   4.119   6.576 -0.4076 -2.1556 -1.1643
 8639TIP3    H250113   4.303   4.110   6.727  0.9110 -0.8022 -0.9767
 8640TIP3   OH250114   7.021   5.372   5.556 -0.4907 -0.6465  0.2639
 8640TIP3    H150115   6.956   5.398   5.622  1.7530  2.5815  1.4448
 8640TIP3    H250116   7.018   5.441   5.490  0.8686 -1.0754 -0.2898
 8641TIP3   OH250117   0.799   1.276   6.257 -0.1430 -0.0576 -0.2692
 8641TIP3    H150118   0.891   1.250   6.247  0.0004  0.1931  0.3861
 8641TIP3    H250119   0.754   1.228   6.188  0.6144  0.5534 -1.2258
 8642TIP3   OH250120   7.078   6.171   6.262  0.2817 -0.2015  0.1793
 8642TIP3    H150121   7.162   6.211   6.238  0.2777 -0.5348 -0.4028
 8642TIP3    H250122   7.101   6.086   6.299  0.1661 -0.6531 -0.7526
 8643TIP3   OH250123   5.065   3.379   6.959 -0.7263  0.0424  0.0938
 8643TIP3    H150124   5.090   3.471   6.962 -2.1291  0.4110  1.9678
 8643TIP3    H250125   5.147   3.333   6.940  0.1736  1.6001  0.0658
 8644TIP3   OH250126   3.154   5.407   5.801  0.2501  0.3579 -0.2019
 8644TIP3    H150127   3.182   5.496   5.783 -2.8952  1.8593  1.5644
 8644TIP3    H250128   3.089   5.387   5.733  1.3196 -0.8665 -0.9195
 8645TIP3   OH250129   1.870   3.702   5.298 -0.3101  0.2491  0.3206
 8645TIP3    H150130   1.835   3.777   5.346 -1.1356 -0.3360  0.6553
 8645TIP3    H250131   1.961   3.695   5.328 -1.0785 -0.7393  2.6831
 8646TIP3   OH250132   2.158   0.447   4.902  0.0787  0.4584  0.7314
 8646TIP3    H150133   2.121   0.517   4.847  1.4911  0.3085 -0.4710
 8646TIP3    H250134   2.204   0.493   4.972  0.3036  0.7156  0.4157
 8647TIP3   OH250135   2.643   6.533   5.802  0.5065  0.7615  0.1100
 8647TIP3    H150136   2.548   6.522   5.814  0.2982  2.9298  0.9000
 8647TIP3    H250137   2.681   6.455   5.841 -0.9177  0.3834  0.8271
 8648TIP3   OH250138   7.600   0.977   4.922 -0.4514  0.1975  0.1579
 8648TIP3    H150139   7.625   0.939   5.006 -0.2310 -0.2054 -0.0823
 8648TIP3    H250140   7.512   0.941   4.905 -0.1448 -0.4203 -0.1832
 8649TIP3   OH250141   2.822   1.300   6.075  0.3164 -0.2299  0.1332
 8649TIP3    H150142   2.874   1.286   5.996  1.2275  0.2445  0.6188
 8649TIP3    H250143   2.764   1.224   6.081  0.9932 -0.7982 -0.4149
 8650TIP3   OH250144   2.724   5.972   5.676  0.3394  0.4449  0.5079
 8650TIP3    H150145   2.769   5.934   5.601  0.2870 -0.3656  0.8757
 8650TIP3    H250146   2.685   5.897   5.721  1.6814  0.7063  2.2296
 8651TIP3   OH250147   7.199   5.354   7.120 -0.1804 -0.3625 -0.0485
 8651TIP3    H150148   7.257   5.313   7.185  0.4919  1.1473  0.3543
 8651TIP3    H250149   7.251   5.358   7.040 -0.7510 -1.5563 -0.4981
 8652TIP3   OH250150   6.425   4.118   4.759 -0.1259  0.8937 -0.2486
 8652TIP3    H150151   6.399   4.189   4.700 -0.0954  0.1498 -1.1761
 8652TIP3    H250152   6.359   4.050   4.746  0.5864  0.2154 -0.3587
 8653TIP3   OH250153   3.997   2.292   6.760 -0.1922  0.3818 -0.0159
 8653TIP3    H150154   4.017   2.374   6.806 -1.0743  0.7740 -0.3096
 8653TIP3    H250155   4.081   2.246   6.755  0.0320  0.5821  1.4896
 8654TIP3   OH250156   1.555   6.420   7.171  0.0221  0.1714  0.2566
 8654TIP3    H150157   1.575   6.511   7.192  0.3100  0.4624 -1.1826
 8654TIP3    H250158   1.576   6.411   7.078 -2.3962 -0.6776 -0.2916
 8655TIP3   OH250159   4.864   5.135   6.941 -0.8267  0.2823  0.0332
 8655TIP3    H150160   4.769   5.143   6.950 -0.9316 -1.8005  1.4766
 8655TIP3    H250161   4.881   5.041   6.951  1.2708  0.3977 -1.6819
 8656TIP3   OH250162   7.065   6.923   5.491 -0.2085  0.2644 -0.5667
 8656TIP3    H150163   7.109   6.937   5.407  1.0016  1.3432  0.2038
 8656TIP3    H250164   7.021   7.005   5.510  1.4098  0.8730  0.8776
 8657TIP3   OH250165   1.427   6.123   5.048  0.1957 -0.0389 -0.0142
 8657TIP3    H150166   1.488   6.054   5.024  1.6001  1.3449 -0.6602
 8657TIP3    H250167   1.345   6.100   5.004  1.1548 -0.3923 -1.6864
 8658TIP3   OH250168   3.520   1.179   5.881 -0.2149 -0.5771  0.9146
 8658TIP3    H150169   3.607   1.165   5.843 -0.9856 -0.6348 -0.9673
 8658TIP3    H250170   3.531   1.253   5.940  1.0746 -0.4500  0.5510
 8659TIP3   OH250171   3.502   3.816   5.734  0.1826 -0.3482  0.4548
 8659TIP3    H150172   3.415   3.854   5.747  0.2922 -0.3910  1.3565
 8659TIP3    H250173   3.496   3.729   5.772 -0.1121 -1.3666 -1.7468
 8660TIP3   OH250174   6.582   6.385   7.753  0.2742  0.1788 -0.3423
 8660TIP3    H150175   6.675   6.365   7.758  0.4630  1.2656  1.2704
 8660TIP3    H250176   6.539   6.316   7.804  0.3372  0.4401  0.0684
 8661TIP3   OH250177   1.496   4.702   4.682  0.3343 -0.5629  0.3702
 8661TIP3    H150178   1.404   4.729   4.677 -0.3924 -2.9888 -2.0148
 8661TIP3    H250179   1.544   4.773   4.639 -0.7978 -0.4689 -0.8072
 8662TIP3   OH250180   6.171   5.215   5.213 -0.2456 -0.8202 -0.5394
 8662TIP3    H150181   6.229   5.245   5.283 -1.3725 -1.4006  0.7102
 8662TIP3    H250182   6.084   5.214   5.254 -1.0030 -0.7541 -2.1010
 8663TIP3   OH250183   3.328   4.103   4.971 -0.0241  0.2532  0.0873
 8663TIP3    H150184   3.395   4.131   5.034  0.1954  1.9234 -0.8562
 8663TIP3    H250185   3.306   4.181   4.921 -2.4333 -0.3341  0.0913
 8664TIP3   OH250186   0.806   2.853   6.420  0.4020  0.4738 -0.4424
 8664TIP3    H150187   0.712   2.870   6.413  0.5729  0.9855 -2.1280
 8664TIP3    H250188   0.817   2.766   6.384  0.6449  0.6990 -0.9219
 8665TIP3   OH250189   0.821   6.491   7.704 -0.2638  0.0788  0.2919
 8665TIP3    H150190   0.732   6.516   7.727  0.2986  0.6507  1.9828
 8665TIP3    H250191   0.813   6.403   7.667 -1.4211 -0.2863  1.3581
 8666TIP3   OH250192   2.038   6.497   5.199  0.2271 -0.0999  0.1340
 8666TIP3    H150193   1.990   6.554   5.140 -0.5955 -0.6916  0.2050
 8666TIP3    H250194   2.119   6.477   5.154 -0.9290 -1.5937 -1.4273
 8667TIP3   OH250195   6.086   0.072   5.010 -0.0445  0.0603 -0.7533
 8667TIP3    H150196   6.098   0.034   4.923 -1.3524 -0.5610 -0.6849
 8667TIP3    H250197   5.991   0.085   5.018  0.0097 -0.2989  0.7508
 8668TIP3   OH250198   2.624   1.207   4.910  0.4657  0.5406  0.5322
 8668TIP3    H150199   2.669   1.130   4.947  0.9090  0.5909  0.1005
 8668TIP3    H250200   2.666   1.282   4.953 -0.6333  0.5197  1.6921
 8669TIP3   OH250201   4.857   2.331   4.987 -0.1207  0.2835 -0.3803
 8669TIP3    H150202   4.780   2.275   4.988  1.0685 -1.4695 -0.5001
 8669TIP3    H250203   4.926   2.275   4.948  1.0046  2.0299 -1.0115
 8670TIP3   OH250204   6.915   7.127   7.098  0.3731 -0.4764  0.4073
 8670TIP3    H150205   6.990   7.112   7.040 -0.5289  1.4687 -1.3483
 8670TIP3    H250206   6.860   7.190   7.052 -0.4631  1.1309  3.3423
 8671TIP3   OH250207   3.889   2.065   5.202  0.0277  0.4100 -0.1585
 8671TIP3    H150208   3.886   1.974   5.173  0.4158  0.1353  0.6533
 8671TIP3    H250209   3.904   2.061   5.296 -1.8669  1.2841  0.2320
 8672TIP3   OH250210   2.717   5.152   5.584 -0.0907  0.4833  0.2136
 8672TIP3    H150211   2.634   5.107   5.569  0.1978 -0.1419  0.4758
 8672TIP3    H250212   2.724   5.158   5.679  0.8715 -0.8144  0.2433
 8673TIP3   OH250213   1.143   0.676   5.878 -0.2889 -0.1183  0.0843
 8673TIP3    H150214   1.114   0.668   5.969 -0.6137 -0.5257 -0.0503
 8673TIP3    H250215   1.085   0.741   5.839  0.6933  1.0467  0.5038
 8674TIP3   OH250216   2.989   6.510   7.421  0.2308 -0.2090  0.4624
 8674TIP3    H150217   2.999   6.424   7.462  0.7580 -0.2768  0.2019
 8674TIP3    H250218   3.078   6.544   7.415 -0.1535  1.5386  3.0176
 8675TIP3   OH250219   4.837   1.643   7.040  0.3706 -0.4226 -0.1989
 8675TIP3    H150220   4.868   1.708   6.977  0.2708 -0.1863 -0.0068
 8675TIP3    H250221   4.843   1.687   7.124 -0.6306 -0.3135 -0.1724
 8676TIP3   OH250222   3.433   6.245   5.773  0.2156 -0.3333  0.0628
 8676TIP3    H150223   3.451   6.308   5.843 -0.1715 -0.3555  0.1808
 8676TIP3    H250224   3.515   6.242   5.723  0.1964  0.3673 -0.0230
 8677TIP3   OH250225   2.211   0.636   6.369 -0.2728 -0.1855 -0.2332
 8677TIP3    H150226   2.294   0.589   6.378  0.5014  1.0558 -0.6233
 8677TIP3    H250227   2.215   0.676   6.282 -0.6114  1.1144  0.3200
 8678TIP3   OH250228   1.218   3.823   6.428 -0.4345  0.3446  0.0585
 8678TIP3    H150229   1.175   3.907   6.413  0.7661  1.0139  0.2392
 8678TIP3    H250230   1.285   3.818   6.360 -1.6941 -1.3729 -1.1725
 8679TIP3   OH250231   5.704   1.813   4.795 -0.7487 -0.3163  0.1466
 8679TIP3    H150232   5.682   1.905   4.805 -1.5860 -0.5618  0.7270
 8679TIP3    H250233   5.662   1.786   4.714 -0.2519 -0.1166 -0.1778
 8680TIP3   OH250234   2.524   7.054   5.589 -0.0842 -0.4361 -0.1427
 8680TIP3    H150235   2.508   7.084   5.679  0.5485 -1.5587  0.3739
 8680TIP3    H250236   2.479   6.969   5.584 -1.3251  0.2482 -1.3633
 8681TIP3   OH250237   4.437   2.350   6.376 -0.1455 -0.3945 -0.4909
 8681TIP3    H150238   4.516   2.298   6.366 -0.9150 -1.5791 -0.6613
 8681TIP3    H250239   4.413   2.374   6.286  0.5128  0.7456 -0.3716
 8682TIP3   OH250240   6.055   1.693   5.974  0.4995 -0.5016 -0.2402
 8682TIP3    H150241   6.061   1.598   5.976  0.8234 -0.4996  2.2008
 8682TIP3    H250242   6.142   1.723   6.001 -0.3245  0.3710  1.6856
 8683TIP3   OH250243   2.788   0.212   6.199  0.7312 -0.3486 -0.0227
 8683TIP3    H150244   2.745   0.284   6.152 -0.9781 -0.9806  0.4676
 8683TIP3    H250245   2.806   0.247   6.286 -0.6040 -0.6224  0.3987
 8684TIP3   OH250246   1.323   4.837   5.797 -0.3749  0.4828 -0.4374
 8684TIP3    H150247   1.295   4.772   5.732  2.2266 -0.8097 -0.4099
 8684TIP3    H250248   1.366   4.785   5.865  1.8551  2.1924 -0.4427
 8685TIP3   OH250249   6.090   1.841   6.288  0.0430 -0.4504  0.5948
 8685TIP3    H150250   6.039   1.911   6.246  1.7848 -0.5740 -1.9617
 8685TIP3    H250251   6.171   1.884   6.316 -0.0383 -0.9048  1.5515
 8686TIP3   OH250252   3.687   1.275   6.912  0.2769  0.4232  0.0393
 8686TIP3    H150253   3.648   1.360   6.891 -2.2534 -0.2882  1.4147
 8686TIP3    H250254   3.682   1.270   7.008  2.0008 -0.5820  0.1080
 8687TIP3   OH250255   1.518   2.116   5.304 -0.3851 -0.0995  0.5173
 8687TIP3    H150256   1.446   2.150   5.358 -0.6307 -0.3591  0.3592
 8687TIP3    H250257   1.479   2.043   5.256 -0.0097 -0.2505  0.4379
 8688TIP3   OH250258   2.459   0.196   6.448  0.0800  0.5542 -0.0780
 8688TIP3    H150259   2.525   0.184   6.516  0.5521  0.4490 -0.5458
 8688TIP3    H250260   2.376   0.206   6.496  0.1039 -1.4101  0.4608
 8689TIP3   OH250261   1.645   5.666   6.699 -0.2006  0.5442 -0.7700
 8689TIP3    H150262   1.611   5.589   6.744 -0.0081  0.0302 -1.4778
 8689TIP3    H250263   1.740   5.659   6.708 -0.2305  1.5373  0.4979
 8690TIP3   OH250264   0.308   5.422   5.372  0.1742  0.2981  0.0955
 8690TIP3    H150265   0.215   5.400   5.374  0.2367  0.0278  0.0059
 8690TIP3    H250266   0.347   5.358   5.313  0.2758  0.9667 -0.5682
 8691TIP3   OH250267   4.587   3.065   5.335 -0.1655 -0.7620 -0.2853
 8691TIP3    H150268   4.543   3.142   5.370 -0.4666 -0.6226 -0.9621
 8691TIP3    H250269   4.568   2.996   5.399 -2.1391 -0.9270 -0.9869
 8692TIP3   OH250270   1.478   5.849   6.797 -0.1051 -0.2321 -0.4592
 8692TIP3    H150271   1.521   5.771   6.762  1.7554  0.5936 -0.0975
 8692TIP3    H250272   1.450   5.823   6.885  1.2590 -0.2644 -0.0155
 8693TIP3   OH250273   1.089   2.570   5.700  0.2233  0.3009 -0.6198
 8693TIP3    H150274   1.166   2.624   5.681  0.4230  0.1610 -0.2186
 8693TIP3    H250275   1.014   2.626   5.681  0.4237  0.4655 -0.9320
 8694TIP3   OH250276   4.944   5.646   7.267 -0.2146 -0.3386 -0.0028
 8694TIP3    H150277   4.882   5.688   7.207  0.8713  0.1819 -0.8012
 8694TIP3    H250278   4.980   5.718   7.318 -0.1389 -0.6136  0.3316
 8695TIP3   OH250279   1.904   5.386   5.285 -0.3701 -0.0481  0.5175
 8695TIP3    H150280   1.975   5.417   5.341  0.5469 -0.7286 -0.2287
 8695TIP3    H250281   1.920   5.428   5.201 -2.5169  2.0637  1.0442
 8696TIP3   OH250282   6.664   6.151   5.095 -0.2968  0.4905  0.2040
 8696TIP3    H150283   6.755   6.123   5.106 -0.4210  0.8657  3.1762
 8696TIP3    H250284   6.662   6.240   5.131 -1.8912  0.3187  0.6543
 8697TIP3   OH250285   5.284   4.439   5.265 -0.1467  0.0218  0.3578
 8697TIP3    H150286   5.320   4.528   5.258 -0.8728  0.3756  0.9499
 8697TIP3    H250287   5.357   4.382   5.241  0.5273  0.7506  0.6188
 8698TIP3   OH250288   4.352   2.938   5.078 -0.7810 -0.6987 -0.8094
 8698TIP3    H150289   4.386   2.995   5.147 -1.5521 -1.3483  0.1225
 8698TIP3    H250290   4.287   2.992   5.032  1.6949  0.7427 -2.9376
 8699TIP3   OH250291   6.291   0.969   6.555 -0.0075  0.0726 -0.2058
 8699TIP3    H150292   6.316   1.024   6.628  2.2504 -0.5611 -0.4046
 8699TIP3    H250293   6.241   1.026   6.497 -0.1882  1.0846  0.9196
 8700TIP3   OH250294   3.098   4.580   5.609  0.0352  0.0514  0.2210
 8700TIP3    H150295   3.028   4.639   5.580  1.3010  1.9578  0.8024
 8700TIP3    H250296   3.053   4.498   5.630 -2.0380  1.1890  0.5726
 8701TIP3   OH250297   2.759   5.697   6.724 -1.0805  0.1513 -0.0817
 8701TIP3    H150298   2.830   5.713   6.787 -0.1858 -1.4182 -0.6142
 8701TIP3    H250299   2.711   5.780   6.720  0.5787  1.2011  0.4887
 8702TIP3   OH250300   0.426   6.922   4.999  0.0160  0.5983  0.0089
 8702TIP3    H150301   0.411   7.002   5.049 -3.4156  0.6179 -0.8259
 8702TIP3    H250302   0.370   6.857   5.041  1.8457 -1.1185 -0.0553
 8703TIP3   OH250303   0.680   6.855   5.948 -0.5608 -0.4764 -0.0127
 8703TIP3    H150304   0.719   6.835   6.034  1.9817  0.5566 -0.8049
 8703TIP3    H250305   0.605   6.911   5.968 -0.7111 -1.1864  1.5689
 8704TIP3   OH250306   4.913   3.971   6.139 -0.2533  0.1642 -0.3772
 8704TIP3    H150307   4.827   4.009   6.121 -0.3134  0.3865  0.3545
 8704TIP3    H250308   4.941   3.936   6.055 -0.2280  1.7463 -1.0494
 8705TIP3   OH250309   7.174   2.229   5.295  0.0344 -0.8659  0.1423
 8705TIP3    H150310   7.145   2.317   5.319 -0.0381 -1.3975  2.1758
 8705TIP3    H250311   7.149   2.220   5.203 -3.1186 -0.0209  0.7900
 8706TIP3   OH250312   5.552   1.245   5.633  0.1111  0.4273  0.1551
 8706TIP3    H150313   5.573   1.219   5.543 -0.1921  1.4659 -0.2286
 8706TIP3    H250314   5.589   1.333   5.641 -0.7567  0.7542  0.7041
 8707TIP3   OH250315   1.775   2.140   5.363  0.0230  0.3562  0.1704
 8707TIP3    H150316   1.690   2.098   5.350 -1.1553  2.0411  1.9996
 8707TIP3    H250317   1.780   2.205   5.293 -0.1479  0.2009  0.0109
 8708TIP3   OH250318   7.277   3.373   6.398 -0.1290  0.2506  0.0947
 8708TIP3    H150319   7.297   3.433   6.469 -0.4763  0.8667 -0.3132
 8708TIP3    H250320   7.206   3.416   6.349  0.3658  0.0346 -0.8448
 8709TIP3   OH250321   0.010   2.873   6.575  0.0699  0.3528 -0.0811
 8709TIP3    H150322  -0.030   2.861   6.661  0.8742  2.2455  0.6017
 8709TIP3    H250323  -0.007   2.790   6.529 -0.3107 -0.7273  1.9025
 8710TIP3   OH250324   6.667   4.590   6.046 -0.7366  0.3104  0.1670
 8710TIP3    H150325   6.592   4.533   6.032 -0.0758 -0.4572 -0.3695
 8710TIP3    H250326   6.633   4.679   6.034 -1.3144 -0.0798 -1.2760
 8711TIP3   OH250327   2.070   7.652   7.027 -0.2723  0.0589  0.3974
 8711TIP3    H150328   2.124   7.725   7.054 -0.8287  0.6965 -0.1726
 8711TIP3    H250329   1.985   7.669   7.067 -0.4448 -0.1960  0.1470
 8712TIP3   OH250330   5.794   4.878   7.177 -0.2791  0.2586 -0.0841
 8712TIP3    H150331   5.737   4.816   7.132  0.4015 -0.4525  0.0068
 8712TIP3    H250332   5.745   4.905   7.255 -0.4033 -0.5046  0.1018
 8713TIP3   OH250333   3.225   7.299   5.206 -0.5270 -0.0606 -0.6175
 8713TIP3    H150334   3.313   7.260   5.209 -0.5850 -0.1662  0.2031
 8713TIP3    H250335   3.214   7.338   5.293 -1.8483 -1.3087 -0.1859
 8714TIP3   OH250336   5.804   4.866   5.673 -0.1307 -0.0596  0.0028
 8714TIP3    H150337   5.786   4.783   5.716 -1.8702 -1.2615 -2.6954
 8714TIP3    H250338   5.895   4.885   5.692 -0.0546 -1.8922  1.7622
 8715TIP3   OH250339   6.889   7.572   6.135  0.0784 -0.1349  0.0885
 8715TIP3    H150340   6.829   7.608   6.201  0.7854  1.7259 -0.2158
 8715TIP3    H250341   6.976   7.594   6.167  0.4369  0.9166 -1.4687
 8716TIP3   OH250342   1.501   5.801   7.077  0.1118 -0.2564 -0.3358
 8716TIP3    H150343   1.545   5.880   7.108 -2.0402  0.9440 -0.1381
 8716TIP3    H250344   1.505   5.740   7.150  1.1801 -0.0930 -0.2400
 8717TIP3   OH250345   1.294   5.294   7.077  0.0156  0.2022 -0.2591
 8717TIP3    H150346   1.288   5.203   7.047  0.8406  0.3149 -0.7967
 8717TIP3    H250347   1.349   5.290   7.155 -0.5319  0.1557  0.1293
 8718TIP3   OH250348   0.331   5.611   6.332  0.5646 -0.1631  0.5079
 8718TIP3    H150349   0.391   5.536   6.329  1.8206  0.7509  1.4520
 8718TIP3    H250350   0.254   5.578   6.377  0.9094 -1.0073  0.4999
 8719TIP3   OH250351   2.884   2.918   5.108 -0.0465  0.3612 -0.2767
 8719TIP3    H150352   2.790   2.939   5.109 -0.2232 -0.0921 -2.0698
 8719TIP3    H250353   2.925   2.987   5.159 -1.3295  0.7271  0.3122
 8720TIP3   OH250354   6.437   6.064   5.207 -0.1201 -0.3069  0.1052
 8720TIP3    H150355   6.519   6.076   5.161 -0.6472  0.7725 -0.5932
 8720TIP3    H250356   6.431   5.970   5.223  1.1576 -0.4097  0.0211
 8721TIP3   OH250357   6.804   7.391   5.859 -0.2188 -0.4623  0.3560
 8721TIP3    H150358   6.893   7.425   5.852 -0.5985  0.1470 -2.7954
 8721TIP3    H250359   6.751   7.468   5.879 -0.4066 -0.1801 -1.1536
 8722TIP3   OH250360   5.641   0.036   6.151  0.2035 -0.2886  0.1791
 8722TIP3    H150361   5.672   0.124   6.171  1.2636 -0.3716 -0.9319
 8722TIP3    H250362   5.721  -0.015   6.138 -0.3913 -1.4453  0.8927
 8723TIP3   OH250363   0.748   0.099   6.305  0.3486  0.1699  0.5451
 8723TIP3    H150364   0.675   0.156   6.328  0.5392 -0.2644  2.3541
 8723TIP3    H250365   0.817   0.122   6.367  1.3046 -0.3365 -0.2958
 8724TIP3   OH250366   6.978   5.893   5.030 -0.1382 -0.1842 -0.0944
 8724TIP3    H150367   7.057   5.884   5.083  1.1764  0.8707 -1.7491
 8724TIP3    H250368   6.954   5.986   5.039 -0.6415 -0.2894 -0.3155
 8725TIP3   OH250369   3.126   6.800   5.129 -0.1982 -0.1169  0.1537
 8725TIP3    H150370   3.109   6.884   5.086 -3.0121  0.3830  1.9093
 8725TIP3    H250371   3.048   6.786   5.184  0.5773 -3.4602  0.6098
 8726TIP3   OH250372   4.839   5.328   6.301 -0.1153  0.6435  0.0217
 8726TIP3    H150373   4.895   5.292   6.232 -1.0154  1.5619 -1.2302
 8726TIP3    H250374   4.900   5.354   6.370  0.6408 -2.8766  0.9168
 8727TIP3   OH250375   1.609   2.556   6.322 -0.0146  0.4190 -0.1326
 8727TIP3    H150376   1.682   2.503   6.289  0.7927  0.2167  1.8371
 8727TIP3    H250377   1.620   2.555   6.417 -2.8422  0.0469  0.2698
 8728TIP3   OH250378   5.352   6.976   6.396  0.0366 -0.0397  0.4234
 8728TIP3    H150379   5.405   6.899   6.417 -0.2674 -0.9928 -2.0626
 8728TIP3    H250380   5.416   7.046   6.381  0.4599 -0.5148 -0.0082
 8729TIP3   OH250381   3.459   4.617   7.360 -0.0029  0.2793  0.6081
 8729TIP3    H150382   3.468   4.533   7.314 -0.1542 -0.2358  1.4981
 8729TIP3    H250383   3.548   4.651   7.366 -0.2086  1.5746 -2.2458
 8730TIP3   OH250384   5.948   6.912   5.585 -0.0523  0.6161 -0.0674
 8730TIP3    H150385   5.956   6.969   5.509  1.7785  1.1121  0.4377
 8730TIP3    H250386   5.959   6.971   5.660  1.9784 -0.3496  0.4639
 8731TIP3   OH250387   7.472   0.617   5.912 -0.2208  0.0467  0.0119
 8731TIP3    H150388   7.384   0.656   5.915 -0.5935 -0.6770 -0.8623
 8731TIP3    H250389   7.521   0.663   5.979 -1.0810  0.9482  0.0445
 8732TIP3   OH250390   7.633   4.240   6.794  0.1220  0.5866  0.1099
 8732TIP3    H150391   7.597   4.158   6.827 -0.3196  0.5714 -0.3954
 8732TIP3    H250392   7.661   4.287   6.872 -0.4309  0.3284  0.4652
 8733TIP3   OH250393   6.851   3.549   4.339 -0.1078 -0.8101 -0.2043
 8733TIP3    H150394   6.756   3.552   4.325  0.0219  2.0391 -1.0252
 8733TIP3    H250395   6.862   3.488   4.412 -2.6617 -0.4823  0.5648
 8734TIP3   OH250396   5.442   2.422   6.305 -0.0662  0.3638  0.0669
 8734TIP3    H150397   5.359   2.407   6.260  0.0995  0.4168 -0.2643
 8734TIP3    H250398   5.485   2.490   6.253  0.5112 -0.1959 -0.2093
 8735TIP3   OH250399   0.932   3.992   6.056 -0.1098  0.4064  0.0680
 8735TIP3    H150400   0.870   4.064   6.063 -1.0448 -0.2629 -1.0461
 8735TIP3    H250401   0.878   3.913   6.060  0.9392 -0.2910  1.8858
 8736TIP3   OH250402   6.363   6.519   5.589 -0.3047  0.5676 -0.4792
 8736TIP3    H150403   6.355   6.541   5.682  0.0775 -1.3193  0.0336
 8736TIP3    H250404   6.449   6.552   5.564  0.5711 -0.9382  0.4614
 8737TIP3   OH250405   6.848   2.511   5.335 -0.3423  0.7675  0.0677
 8737TIP3    H150406   6.913   2.470   5.391 -0.9994  1.1818  1.1767
 8737TIP3    H250407   6.834   2.449   5.263 -1.0624 -0.8102  1.5022
 8738TIP3   OH250408   6.357   3.413   5.042  0.0314  0.3364  0.2258
 8738TIP3    H150409   6.435   3.468   5.039  0.4966 -0.1343  2.3063
 8738TIP3    H250410   6.352   3.374   4.955  1.2228  1.5564 -0.4274
 8739TIP3   OH250411   5.334   0.232   5.350 -0.2669 -0.5240 -0.1339
 8739TIP3    H150412   5.267   0.264   5.290 -1.7902 -2.3275  0.5283
 8739TIP3    H250413   5.307   0.266   5.436  0.1304 -0.6100  0.0287
 8740TIP3   OH250414   0.506   7.451   5.180 -0.4409 -0.1931 -0.1385
 8740TIP3    H150415   0.510   7.537   5.139 -1.5550 -1.2679 -2.7709
 8740TIP3    H250416   0.596   7.419   5.178 -0.3680  0.0155 -1.3809
 8741TIP3   OH250417   2.666   3.817   5.495  0.3091  0.4198 -0.1291
 8741TIP3    H150418   2.575   3.839   5.512  0.1427  1.1108 -1.7418
 8741TIP3    H250419   2.684   3.742   5.553 -1.2314  0.3321  0.2807
 8742TIP3   OH250420   3.072   1.937   5.070 -0.1143  0.6011 -0.3780
 8742TIP3    H150421   2.979   1.915   5.068 -0.0121  0.1992 -0.9034
 8742TIP3    H250422   3.075   2.032   5.068 -0.5307  0.6453  0.3969
 8743TIP3   OH250423   2.312   1.597   7.664  0.3506  0.2455 -0.2511
 8743TIP3    H150424   2.407   1.605   7.654  0.1982  0.4817 -1.7205
 8743TIP3    H250425   2.276   1.645   7.590 -0.8874 -1.0801 -0.5546
 8744TIP3   OH250426   3.122   5.745   4.962  0.7511  0.1202 -0.0041
 8744TIP3    H150427   3.036   5.748   5.005  0.3233 -1.7847 -0.6352
 8744TIP3    H250428   3.163   5.665   4.995  1.6144  0.1570 -0.9307
 8745TIP3   OH250429   2.968   5.026   6.018 -0.1074  0.0901 -0.1736
 8745TIP3    H150430   2.912   5.099   6.044  0.5317  0.7081 -0.4734
 8745TIP3    H250431   2.908   4.954   6.000 -0.7311  0.4525  0.4132
 8746TIP3   OH250432   1.869   4.590   6.112  0.3997 -0.1436 -0.4416
 8746TIP3    H150433   1.932   4.542   6.058 -0.4413 -0.1720 -1.4235
 8746TIP3    H250434   1.786   4.545   6.099  0.1067  0.0283  0.6634
 8747TIP3   OH250435   1.661   4.577   6.657 -0.2432 -0.4420  0.4464
 8747TIP3    H150436   1.753   4.572   6.632 -0.2398  0.6933  0.2016
 8747TIP3    H250437   1.654   4.519   6.733  0.5816 -0.8457  0.2266
 8748TIP3   OH250438   7.368   7.042   6.279  0.2773 -0.3144 -0.2803
 8748TIP3    H150439   7.462   7.030   6.291  0.4454  0.0856 -1.1118
 8748TIP3    H250440   7.335   6.954   6.259  0.5264 -0.4041 -0.2997
 8749TIP3   OH250441   0.371   0.473   5.922 -0.1549  0.0166 -0.0291
 8749TIP3    H150442   0.356   0.498   5.831 -0.9846  1.4959  0.4823
 8749TIP3    H250443   0.335   0.385   5.929  1.4778 -0.8517 -1.5270
 8750TIP3   OH250444   1.589   2.949   5.311 -0.3463  0.0123  0.0619
 8750TIP3    H150445   1.581   2.943   5.406 -0.4715  1.4535  0.1630
 8750TIP3    H250446   1.500   2.966   5.280 -0.1116  0.8611 -0.1818
 8751TIP3   OH250447   4.365   7.390   6.161  0.8248  0.2202  0.5917
 8751TIP3    H150448   4.320   7.338   6.227 -1.7612  1.8318  0.2177
 8751TIP3    H250449   4.421   7.450   6.211 -0.6189  0.9920  1.3499
 8752TIP3   OH250450   5.734   3.674   5.039  0.2769  0.8198 -0.3136
 8752TIP3    H150451   5.702   3.647   4.953 -0.5464  2.7513 -0.6554
 8752TIP3    H250452   5.819   3.629   5.047  0.5091  0.8034 -2.2548
 8753TIP3   OH250453   7.388   4.811   5.502 -0.3875  0.0077  0.7514
 8753TIP3    H150454   7.473   4.808   5.547 -0.6699  0.8155  1.3613
 8753TIP3    H250455   7.409   4.789   5.411  0.2419 -1.3294  1.1818
 8754TIP3   OH250456   6.263   3.420   6.670  0.4618  0.2517 -0.1430
 8754TIP3    H150457   6.180   3.381   6.640  0.6122  1.4093 -2.2034
 8754TIP3    H250458   6.291   3.362   6.741 -1.3923 -0.9899 -0.3300
 8755TIP3   OH250459   0.580   0.866   5.376  0.2926  0.2421  0.0636
 8755TIP3    H150460   0.516   0.936   5.384  0.4872  0.3438  0.8852
 8755TIP3    H250461   0.589   0.851   5.282  1.6916  2.6439 -0.2446
 8756TIP3   OH250462   6.541   7.585   5.893 -0.7983 -0.0120 -0.5243
 8756TIP3    H150463   6.557   7.638   5.972 -0.5063  0.2820 -0.7803
 8756TIP3    H250464   6.573   7.639   5.821 -0.1878 -0.6764 -0.7629
 8757TIP3   OH250465   2.856   5.598   5.880  0.5908  0.6865 -0.1314
 8757TIP3    H150466   2.909   5.670   5.846  0.5117  1.9505  2.2267
 8757TIP3    H250467   2.875   5.596   5.974 -0.7982 -1.2145  0.1750
 8758TIP3   OH250468   6.250   4.143   6.903  0.0967 -0.1893  0.3614
 8758TIP3    H150469   6.293   4.223   6.934 -0.4895  0.7055 -0.9907
 8758TIP3    H250470   6.251   4.152   6.808  1.2831 -2.5163  0.1008
 8759TIP3   OH250471   0.841   2.194   6.380  0.0862  0.2608  0.0522
 8759TIP3    H150472   0.823   2.220   6.290  0.4357  0.1277 -0.0560
 8759TIP3    H250473   0.833   2.099   6.380 -2.1192  0.4048  0.6544
 8760TIP3   OH250474   5.470   0.224   5.117  0.1544  0.3898  0.2817
 8760TIP3    H150475   5.428   0.303   5.084 -1.1469 -0.1847  0.5172
 8760TIP3    H250476   5.423   0.203   5.197  0.0393 -0.9752 -0.1073
 8761TIP3   OH250477   3.113   5.998   5.579  0.4439 -0.1129 -0.4278
 8761TIP3    H150478   3.080   6.070   5.632  0.3810 -0.4028 -0.0708
 8761TIP3    H250479   3.082   6.017   5.490 -1.2999 -0.7482  0.0122
 8762TIP3   OH250480   5.685   0.485   7.247 -0.0679 -0.3331 -0.1009
 8762TIP3    H150481   5.763   0.431   7.255  0.9336  1.1984  1.0135
 8762TIP3    H250482   5.697   0.533   7.165 -0.4848 -1.0129 -0.5788
 8763TIP3   OH250483   1.429   6.860   4.439 -0.1472  0.4281  0.3839
 8763TIP3    H150484   1.384   6.939   4.469 -2.0558 -0.0173 -1.0990
 8763TIP3    H250485   1.522   6.877   4.457 -0.6668  2.3217  1.5493
 8764TIP3   OH250486   4.265   3.289  13.293 -0.2348  0.0249  0.2544
 8764TIP3    H150487   4.250   3.373  13.251  0.9972  0.2079  0.1627
 8764TIP3    H250488   4.220   3.226  13.236  0.1144  0.4486 -0.5094
 8765TIP3   OH250489   0.479   5.117   4.747 -0.1315  0.0140  0.0496
 8765TIP3    H150490   0.419   5.062   4.697 -0.5513  1.0204 -0.5950
 8765TIP3    H250491   0.442   5.121   4.835  0.5747 -1.7224  0.4758
 8766TIP3   OH250492   1.937   1.780   7.346  0.2724 -0.0568  0.3611
 8766TIP3    H150493   2.006   1.824   7.395  0.9607 -0.4871 -0.1893
 8766TIP3    H250494   1.895   1.849   7.295 -1.1867  0.5832  2.3484
 8767TIP3   OH250495   0.106   7.279   7.037 -0.2572  0.1583 -0.5958
 8767TIP3    H150496   0.084   7.349   7.098  0.1424  0.2395 -0.5412
 8767TIP3    H250497   0.130   7.205   7.092 -2.3335 -0.5922 -0.6248
 8768TIP3   OH250498   2.656   5.029   7.281  0.2478 -0.5138 -0.2383
 8768TIP3    H150499   2.684   5.072   7.362 -1.0341  0.6077 -0.3614
 8768TIP3    H250500   2.725   5.049   7.218 -0.4667  1.7584 -0.3900
 8769TIP3   OH250501   4.096   6.503   6.093  0.2769 -0.3022 -0.0973
 8769TIP3    H150502   4.160   6.444   6.053  0.5214  0.3044 -0.6209
 8769TIP3    H250503   4.025   6.508   6.029 -0.5391 -1.3587  0.6923
 8770TIP3   OH250504   6.805   2.290   6.142  0.1785  0.2051 -0.8174
 8770TIP3    H150505   6.801   2.211   6.089 -0.8018  0.2985 -0.9012
 8770TIP3    H250506   6.898   2.309   6.150  0.5042 -1.5723  0.1300
 8771TIP3   OH250507   1.339   6.128   6.241  0.0772 -0.1967  0.1311
 8771TIP3    H150508   1.347   6.053   6.301  2.9285  0.0991  0.2391
 8771TIP3    H250509   1.402   6.109   6.171 -0.8288  1.0454 -1.0709
 8772TIP3   OH250510   4.596   2.181   6.009 -0.4672 -0.7644  0.4613
 8772TIP3    H150511   4.580   2.255   5.950 -0.2899 -1.2117 -0.1702
 8772TIP3    H250512   4.656   2.124   5.960 -0.1448 -1.0484  1.1687
 8773TIP3   OH250513   5.882   3.221   6.162  0.2167 -0.2110 -0.1519
 8773TIP3    H150514   5.886   3.188   6.252  1.2549 -1.3699 -0.6002
 8773TIP3    H250515   5.789   3.215   6.139  0.2365 -2.1438  0.0658
 8774TIP3   OH250516   2.150   5.872   5.361  0.4987 -0.2589 -0.7458
 8774TIP3    H150517   2.105   5.865   5.277 -1.5101  3.3031 -0.1678
 8774TIP3    H250518   2.152   5.782   5.394 -2.7967 -1.1961 -2.6059
 8775TIP3   OH250519   4.489   7.030   6.375  0.5533  0.2231  0.5356
 8775TIP3    H150520   4.580   7.059   6.377  1.3597 -1.9720 -0.3581
 8775TIP3    H250521   4.462   7.042   6.284 -0.1152  1.0087  0.8316
 8776TIP3   OH250522   2.361   0.785  11.563  0.0958  0.2918  0.0382
 8776TIP3    H150523   2.419   0.712  11.541  0.2736  0.1403  0.9615
 8776TIP3    H250524   2.375   0.848  11.492  1.5376  0.3370  0.3268
 8777TIP3   OH250525   6.011   2.882   6.441 -0.0400  0.5604  0.6064
 8777TIP3    H150526   6.067   2.891   6.364 -1.1409  2.6017 -0.0289
 8777TIP3    H250527   5.936   2.831   6.411 -0.9453  2.1751 -0.0298
 8778TIP3   OH250528   3.143   6.235   4.990 -0.1490 -0.2422  0.2045
 8778TIP3    H150529   3.102   6.315   4.957 -1.0353 -1.0136 -0.6119
 8778TIP3    H250530   3.213   6.266   5.048 -0.4384  1.1155 -0.1458
 8779TIP3   OH250531   3.983   6.449   7.611  0.4256 -0.3208  0.3036
 8779TIP3    H150532   4.035   6.417   7.537 -1.0699 -1.3988 -0.3412
 8779TIP3    H250533   3.939   6.528   7.578 -0.4032 -0.9172 -0.0650
 8780TIP3   OH250534   2.173   4.610   6.445 -0.5703  0.2358 -0.0341
 8780TIP3    H150535   2.203   4.701   6.442 -1.4499  0.5218 -2.0100
 8780TIP3    H250536   2.243   4.563   6.490 -0.9217  2.1383  2.7775
 8781TIP3   OH250537   3.524   2.476   4.737  0.0812 -0.4893 -0.1560
 8781TIP3    H150538   3.516   2.567   4.707 -2.6678 -0.4483  0.4241
 8781TIP3    H250539   3.473   2.426   4.673  1.7405 -1.7158 -0.5913
 8782TIP3   OH250540   3.824   0.527   5.697 -0.7992  0.1960  0.3281
 8782TIP3    H150541   3.814   0.565   5.609 -0.3661  3.2123  1.4359
 8782TIP3    H250542   3.741   0.545   5.740  0.5851  3.4610  2.0168
 8783TIP3   OH250543   2.984   0.992   5.466  0.0045 -0.3182 -0.0425
 8783TIP3    H150544   2.993   0.931   5.539 -3.0980 -0.0077  0.7483
 8783TIP3    H250545   2.939   0.942   5.398  1.9941 -0.3187 -1.4426
 8784TIP3   OH250546   6.239   4.504   5.856  0.1563  0.2336 -0.5478
 8784TIP3    H150547   6.238   4.578   5.795 -1.7330  0.9247  0.2531
 8784TIP3    H250548   6.146   4.483   5.870  0.6296 -2.2026 -0.6175
 8785TIP3   OH250549   2.580   0.441   5.397 -0.1075 -0.1046  0.1768
 8785TIP3    H150550   2.523   0.399   5.332  0.5405  1.5270 -1.5678
 8785TIP3    H250551   2.527   0.515   5.429 -1.0604 -1.8255  2.8478
 8786TIP3   OH250552   2.125   3.817   6.592 -0.0415  0.0888 -0.3680
 8786TIP3    H150553   2.056   3.823   6.527  0.8064  0.8929 -1.2210
 8786TIP3    H250554   2.091   3.866   6.667 -1.3888 -1.5844  0.1753
 8787TIP3   OH250555   1.358   5.909   6.399 -0.4292 -0.0041  0.1087
 8787TIP3    H150556   1.431   5.849   6.406 -0.3405 -0.0981 -1.4333
 8787TIP3    H250557   1.285   5.856   6.367 -0.2950  0.7131 -1.4734
 8788TIP3   OH250558   6.106   6.581   4.682 -0.1226 -0.3850 -0.7053
 8788TIP3    H150559   6.118   6.487   4.699  0.1183 -0.2463 -0.1015
 8788TIP3    H250560   6.164   6.624   4.745 -1.5065  0.2210  0.1769
 8789TIP3   OH250561   5.159   1.605   5.171  0.4041  0.5195 -0.1268
 8789TIP3    H150562   5.223   1.675   5.156 -1.8732  2.4421 -1.7207
 8789TIP3    H250563   5.199   1.550   5.238  3.3903  1.9651 -0.5390
 8790TIP3   OH250564   2.342   4.374   4.673 -0.1840 -0.0485 -0.1930
 8790TIP3    H150565   2.246   4.372   4.674 -0.1838 -0.5074  1.3781
 8790TIP3    H250566   2.367   4.282   4.671  0.2614  0.0779 -1.9781
 8791TIP3   OH250567   1.974   6.243   5.346  0.7602 -0.4340  0.2155
 8791TIP3    H150568   2.007   6.179   5.283 -2.6910 -1.0177 -1.1925
 8791TIP3    H250569   1.973   6.326   5.298  1.9239 -0.0050  0.8942
 8792TIP3   OH250570   7.481   6.361   5.614 -0.0596  0.5225 -0.4077
 8792TIP3    H150571   7.477   6.330   5.523 -1.7309  1.1003 -0.5763
 8792TIP3    H250572   7.509   6.285   5.664  0.3665  0.0403 -1.3510
 8793TIP3   OH250573   5.434   4.187   6.242  0.8822  0.0417  0.1732
 8793TIP3    H150574   5.391   4.272   6.236  1.5778  0.7100  3.1075
 8793TIP3    H250575   5.362   4.124   6.251  0.4014  0.7483  1.5026
 8794TIP3   OH250576   2.384   2.777   6.127 -0.9140 -0.5054 -0.2255
 8794TIP3    H150577   2.355   2.868   6.120  0.7709 -0.0295 -1.9724
 8794TIP3    H250578   2.347   2.734   6.049  0.1836 -0.7096 -0.6568
 8795TIP3   OH250579   2.065   4.785   6.071  0.3077 -0.0946  0.5993
 8795TIP3    H150580   2.097   4.788   6.161  0.4018 -3.1842  0.7711
 8795TIP3    H250581   1.982   4.737   6.077  0.5446 -0.7622 -1.0134
 8796TIP3   OH250582   1.212   2.360   6.157  0.7647  0.2589 -0.2417
 8796TIP3    H150583   1.264   2.324   6.229  1.5975  0.8885 -0.5213
 8796TIP3    H250584   1.216   2.293   6.089 -0.4413 -0.5672  0.4557
 8797TIP3   OH250585   4.153   3.598   6.087  0.0816  0.2405  0.5152
 8797TIP3    H150586   4.211   3.628   6.017 -0.4930  3.4569  1.2393
 8797TIP3    H250587   4.168   3.660   6.159 -2.3729 -0.3830  1.6743
 8798TIP3   OH250588   2.078   1.917   4.939 -0.1033 -0.6523 -0.0523
 8798TIP3    H150589   2.056   1.984   5.003 -0.8284 -0.4658 -0.4796
 8798TIP3    H250590   2.144   1.959   4.883 -1.3170  0.1248 -0.9678
 8799TIP3   OH250591   7.294   1.304   6.353  0.1715 -0.6279 -0.1844
 8799TIP3    H150592   7.302   1.398   6.339  1.4929 -0.6566  0.3255
 8799TIP3    H250593   7.356   1.265   6.290 -0.5793 -1.1823 -0.6022
 8800TIP3   OH250594   4.985   3.565   6.580  0.1744 -0.1289  0.4142
 8800TIP3    H150595   5.025   3.619   6.512 -3.4653  0.0559 -1.8416
 8800TIP3    H250596   4.982   3.622   6.657  1.4717  0.8203 -0.2002
 8801TIP3   OH250597   4.557   2.436   6.676 -0.5903 -0.3420 -0.0855
 8801TIP3    H150598   4.641   2.439   6.722 -1.1079 -0.1833  0.8792
 8801TIP3    H250599   4.575   2.388   6.595  1.0333  1.9142 -1.1970
 8802TIP3   OH250600   5.648   1.395   7.506 -0.0811 -0.0536  0.0285
 8802TIP3    H150601   5.684   1.307   7.501 -0.4366 -0.3664  2.2555
 8802TIP3    H250602   5.573   1.393   7.446  0.5763 -0.9045 -0.7906
 8803TIP3   OH250603   4.070   0.866   5.724  0.0090 -0.0302  0.6191
 8803TIP3    H150604   4.127   0.837   5.795  0.3784 -1.3787 -0.1912
 8803TIP3    H250605   3.982   0.844   5.754  0.1577 -0.5343  0.6936
 8804TIP3   OH250606   2.095   0.682   4.727  0.5918  0.1155  0.4018
 8804TIP3    H150607   2.042   0.609   4.698  2.2678 -0.8287 -0.4014
 8804TIP3    H250608   2.152   0.703   4.653  1.4270  1.0017  1.2454
 8805TIP3   OH250609   5.750   1.320   5.904  0.1286  0.4450 -0.0169
 8805TIP3    H150610   5.765   1.249   5.842 -3.4358 -0.0489 -0.5585
 8805TIP3    H250611   5.717   1.392   5.851 -0.1282  1.0774  0.9724
 8806TIP3   OH250612   4.902   2.789   5.098 -0.5800 -0.0895  0.0213
 8806TIP3    H150613   4.956   2.843   5.157  1.1525 -1.0132 -0.6519
 8806TIP3    H250614   4.814   2.826   5.106  0.4704  2.7776 -0.2933
 8807TIP3   OH250615   3.265   2.707   5.580  0.5747 -0.3726 -0.1261
 8807TIP3    H150616   3.222   2.759   5.512 -0.7987 -1.2383  0.0205
 8807TIP3    H250617   3.342   2.670   5.538  0.6483  0.4313 -0.7144
 8808TIP3   OH250618   4.879   5.427   7.011 -0.2212  0.3346 -0.4068
 8808TIP3    H150619   4.863   5.359   6.945 -0.3588  0.5358 -0.5787
 8808TIP3    H250620   4.818   5.497   6.988 -0.5062  0.2688  0.1304
 8809TIP3   OH250621   4.488   3.227   5.065  0.2508 -0.1615  0.1971
 8809TIP3    H150622   4.445   3.190   4.987  0.4123 -2.4137  1.0977
 8809TIP3    H250623   4.425   3.289   5.101 -0.9049 -1.0292 -0.2963
 8810TIP3   OH250624   6.130   3.049   4.827 -0.3355 -0.0256  0.0722
 8810TIP3    H150625   6.127   3.025   4.919  0.3384  1.6356  0.5663
 8810TIP3    H250626   6.042   3.030   4.793 -1.5070  1.9719  1.7724
 8811TIP3   OH250627   5.691   2.118   7.649  0.1296  0.4183 -0.2473
 8811TIP3    H150628   5.697   2.213   7.637 -0.6552  0.5920  0.6276
 8811TIP3    H250629   5.645   2.087   7.571 -0.7200  0.9161  0.0507
 8812TIP3   OH250630   6.081   6.058   7.086 -0.4608  0.2125 -0.0597
 8812TIP3    H150631   6.036   6.131   7.129 -0.2913 -0.3688  1.1615
 8812TIP3    H250632   6.141   6.025   7.153 -0.6946 -1.1723 -0.5098
 8813TIP3   OH250633   3.244   2.425   6.258 -0.6109 -0.3075 -0.2460
 8813TIP3    H150634   3.210   2.456   6.342  0.2148  1.3402 -0.4698
 8813TIP3    H250635   3.338   2.439   6.263 -0.3705 -1.5303 -0.9293
 8814TIP3   OH250636   4.427   3.961   6.088  0.1436 -0.0356  0.5876
 8814TIP3    H150637   4.415   4.051   6.115  0.1470  0.1599 -0.0431
 8814TIP3    H250638   4.430   3.911   6.170 -2.9673  0.1208  0.9434
 8815TIP3   OH250639   2.961   2.798   5.502 -0.4218 -0.2949  0.0759
 8815TIP3    H150640   2.877   2.833   5.473  0.6253  0.9528 -1.6001
 8815TIP3    H250641   2.983   2.850   5.580 -0.7257  0.0667 -0.0763
 8816TIP3   OH250642   1.469   2.945   6.942 -0.1493 -0.3036 -0.1225
 8816TIP3    H150643   1.452   2.870   6.998 -1.0185  1.7164  2.5666
 8816TIP3    H250644   1.564   2.947   6.931 -0.0948 -1.5734  0.0560
 8817TIP3   OH250645   4.836   2.667   7.412  0.0212 -0.0035 -0.3493
 8817TIP3    H150646   4.746   2.641   7.394 -0.1828  0.7323 -0.4152
 8817TIP3    H250647   4.833   2.762   7.415  0.4340 -0.0103  1.4579
 8818TIP3   OH250648   1.052   2.309   5.582  0.6259  0.3784 -0.0955
 8818TIP3    H150649   0.988   2.339   5.518  0.8707 -0.0947 -0.5657
 8818TIP3    H250650   1.056   2.380   5.647 -0.2558  0.4741 -0.1392
 8819TIP3   OH250651   6.217   4.568   6.573 -0.2144 -0.2260 -0.3170
 8819TIP3    H150652   6.165   4.521   6.638 -0.1344  0.6834  0.4175
 8819TIP3    H250653   6.307   4.540   6.590 -0.3199 -0.9667 -0.8880
 8820TIP3   OH250654   4.687   1.160   7.530  0.2891 -0.5364  0.0175
 8820TIP3    H150655   4.607   1.158   7.476  0.8908  0.4351 -0.9651
 8820TIP3    H250656   4.753   1.116   7.476  0.5989 -0.7047  0.5254
 8821TIP3   OH250657   4.163   3.320   6.728  0.3302 -0.3455  0.2194
 8821TIP3    H150658   4.243   3.289   6.770 -0.0657 -0.0226  1.2430
 8821TIP3    H250659   4.189   3.400   6.682  0.7691 -0.7057 -0.1717
 8822TIP3   OH250660   4.997   2.015   6.309 -0.1770  0.3486 -0.5077
 8822TIP3    H150661   5.070   2.006   6.248  0.6246 -0.2409  0.5129
 8822TIP3    H250662   4.919   2.018   6.253  0.5999  0.8061 -1.6017
 8823TIP3   OH250663   1.540   4.056   7.299 -0.0826 -0.1094  0.1731
 8823TIP3    H150664   1.464   4.114   7.305 -0.1388 -0.0330 -1.0317
 8823TIP3    H250665   1.612   4.113   7.272  0.3127 -0.2638  0.8688
 8824TIP3   OH250666   6.187   6.483   6.124 -0.3738 -0.1306 -0.3667
 8824TIP3    H150667   6.231   6.498   6.040  1.0850 -1.4364  0.1031
 8824TIP3    H250668   6.227   6.546   6.183  0.1503 -0.6088 -0.1920
 8825TIP3   OH250669   3.074   2.632   4.837 -0.1507 -0.5547 -0.0605
 8825TIP3    H150670   3.038   2.550   4.872 -1.6546  0.0273 -0.1597
 8825TIP3    H250671   3.024   2.648   4.757  0.2673  0.3603 -0.1499
 8826TIP3   OH250672   4.755   1.727   6.500 -0.4063 -0.0684  0.4356
 8826TIP3    H150673   4.750   1.733   6.404 -1.1930  0.5775  0.5025
 8826TIP3    H250674   4.821   1.791   6.525  0.0268 -0.4634  0.3011
 8827TIP3   OH250675   0.289   0.888   7.751 -0.0361 -0.0841  0.0072
 8827TIP3    H150676   0.363   0.901   7.811 -0.5923  2.8120  0.2154
 8827TIP3    H250677   0.261   0.798   7.767  2.3059 -0.6758  1.2149
 8828TIP3   OH250678   5.685   6.826   6.076 -0.4837  0.0174 -0.2640
 8828TIP3    H150679   5.681   6.913   6.116  0.1865  0.0698 -0.2976
 8828TIP3    H250680   5.660   6.766   6.146 -3.6804  0.3829 -0.9249
 8829TIP3   OH250681   6.933   3.421   6.147  0.3058  0.0326  0.0786
 8829TIP3    H150682   6.979   3.454   6.224  0.9970 -2.0591  0.6342
 8829TIP3    H250683   6.900   3.499   6.104 -0.3880  1.2687  2.6548
 8830TIP3   OH250684   0.218   1.550   6.555  0.2533  0.5596 -0.5602
 8830TIP3    H150685   0.294   1.557   6.498 -0.3185 -2.3428 -1.8917
 8830TIP3    H250686   0.234   1.470   6.607 -0.8986  1.1182  0.7344
 8831TIP3   OH250687   2.104   6.680   4.630  0.2894 -0.6752  0.0602
 8831TIP3    H150688   2.022   6.632   4.637  0.3852 -0.8880 -0.2521
 8831TIP3    H250689   2.154   6.634   4.563 -1.0624  1.9027 -3.0089
 8832TIP3   OH250690   3.535   3.063   6.846 -0.1069  0.1455 -0.7985
 8832TIP3    H150691   3.515   2.984   6.796 -0.9688 -1.3040  1.6610
 8832TIP3    H250692   3.466   3.068   6.912  1.3734  1.4648  0.7461
 8833TIP3   OH250693   2.157   3.475   6.240  0.2357  0.0564 -0.1594
 8833TIP3    H150694   2.072   3.464   6.281  0.3759 -0.5891 -0.0253
 8833TIP3    H250695   2.184   3.564   6.263 -0.2263  0.1233  0.1297
 8834TIP3   OH250696   2.100   0.019   5.179  0.4432  0.7700 -0.0392
 8834TIP3    H150697   2.080   0.098   5.229 -0.2096  1.2406 -1.0144
 8834TIP3    H250698   2.030   0.012   5.114  0.9973 -0.0873 -0.5804
 8835TIP3   OH250699   2.173   6.913   6.510  0.3099 -0.2992 -0.0853
 8835TIP3    H150700   2.185   6.928   6.417 -2.4163  0.2074 -0.4346
 8835TIP3    H250701   2.142   6.822   6.516 -2.0142  0.4278 -0.0193
 8836TIP3   OH250702   6.401   5.784   7.107  0.1873  0.0550  0.1925
 8836TIP3    H150703   6.415   5.704   7.157  0.6872 -0.7112 -1.1402
 8836TIP3    H250704   6.317   5.771   7.064  0.0059  0.4869  0.4131
 8837TIP3   OH250705   0.573   3.698   7.209  0.0452 -0.2687 -0.1062
 8837TIP3    H150706   0.616   3.624   7.253  0.0129  0.8206  1.8514
 8837TIP3    H250707   0.635   3.770   7.217 -1.0549  0.6421  0.4944
 8838TIP3   OH250708   2.226   2.860   6.685 -0.1771  0.1330  0.1030
 8838TIP3    H150709   2.173   2.937   6.709  0.4841  0.3090  1.0391
 8838TIP3    H250710   2.205   2.795   6.751 -1.2289 -0.7543 -1.0619
 8839TIP3   OH250711   6.884   1.518   5.811  0.8579  0.7025  0.8806
 8839TIP3    H150712   6.955   1.545   5.870  1.0132 -0.9202  1.4742
 8839TIP3    H250713   6.929   1.469   5.742  0.6388  2.3109 -0.4632
 8840TIP3   OH250714   1.168   5.196   4.848 -0.3154 -0.0739  0.5809
 8840TIP3    H150715   1.143   5.124   4.905  0.3121 -0.0709  0.8715
 8840TIP3    H250716   1.264   5.192   4.845 -0.3566 -0.3675 -0.8586
 8841TIP3   OH250717   2.350   0.311   5.228  0.1481  0.2091 -0.0738
 8841TIP3    H150718   2.375   0.392   5.183 -0.2315  0.0707 -0.5387
 8841TIP3    H250719   2.401   0.243   5.186  0.7476  0.2518  0.5697
 8842TIP3   OH250720   7.602   0.881   5.807  0.1870 -0.4305  0.5095
 8842TIP3    H150721   7.694   0.858   5.792  0.7335  0.6520  2.0159
 8842TIP3    H250722   7.555   0.837   5.736  1.9116 -0.5799 -0.5962
 8843TIP3   OH250723   5.321   6.776   5.517 -0.0264  0.2070 -0.5124
 8843TIP3    H150724   5.319   6.681   5.530 -1.1584  0.2808 -0.0356
 8843TIP3    H250725   5.400   6.805   5.563 -0.3012 -0.3724  0.3404
 8844TIP3   OH250726   2.469   5.081   6.124 -0.2853 -0.0249  0.3148
 8844TIP3    H150727   2.381   5.097   6.089  0.1761  1.1769 -0.3613
 8844TIP3    H250728   2.457   5.012   6.190 -1.4418 -1.2196 -1.0662
 8845TIP3   OH250729   0.729   3.943   7.274 -0.2308  0.0777  0.2391
 8845TIP3    H150730   0.675   3.975   7.347  0.3556  0.2855  0.5867
 8845TIP3    H250731   0.757   4.023   7.229 -1.0109 -0.0700 -0.5240
 8846TIP3   OH250732   5.288   7.315   7.103 -0.1612  0.6550  0.0219
 8846TIP3    H150733   5.209   7.264   7.122  0.2449 -0.2214 -0.5949
 8846TIP3    H250734   5.308   7.358   7.186  0.8548 -2.1086  1.3320
 8847TIP3   OH250735   2.855   2.365   5.428 -0.2699  0.1001 -0.3107
 8847TIP3    H150736   2.921   2.414   5.476 -1.2786  1.5505 -0.3419
 8847TIP3    H250737   2.792   2.431   5.399 -1.9617 -1.2564  0.0855
 8848TIP3   OH250738   6.763   3.534   5.726 -0.3000 -0.4648 -0.0017
 8848TIP3    H150739   6.711   3.571   5.796  0.6697 -0.9098  0.9807
 8848TIP3    H250740   6.844   3.504   5.768  1.2928  1.2389 -1.6392
 8849TIP3   OH250741   7.478   0.219   7.142 -0.4446 -0.5189  0.5357
 8849TIP3    H150742   7.481   0.229   7.237  2.4557  0.3921  0.4647
 8849TIP3    H250743   7.520   0.134   7.126 -0.7927 -0.6069  0.0749
 8850TIP3   OH250744   1.941   2.621   5.479  0.0806 -0.0630 -0.3982
 8850TIP3    H150745   1.874   2.554   5.490 -0.2979  0.3566 -0.1144
 8850TIP3    H250746   2.005   2.603   5.548 -0.7875  0.7648  0.6748
 8851TIP3   OH250747   1.487   0.558   8.324  0.2569  0.1806 -0.7042
 8851TIP3    H150748   1.533   0.475   8.310  1.9898  0.4728  2.4785
 8851TIP3    H250749   1.548   0.612   8.374 -1.4010  2.8731 -1.3448
 8852TIP3   OH250750   4.412   3.140   6.256 -0.1050  0.1006 -0.1637
 8852TIP3    H150751   4.406   3.196   6.333  0.0627 -0.0195 -0.0642
 8852TIP3    H250752   4.421   3.051   6.291  0.4602  0.0928 -0.3209
 8853TIP3   OH250753   6.471   7.662   7.203  0.4894 -0.6413 -0.3363
 8853TIP3    H150754   6.520   7.667   7.121 -0.1838 -1.1012 -0.7738
 8853TIP3    H250755   6.403   7.729   7.195 -0.0287 -1.1679 -0.4717
 8854TIP3   OH250756   3.193   0.580   6.802 -0.1558 -0.5127 -0.0359
 8854TIP3    H150757   3.279   0.565   6.843  0.3069 -0.7380 -1.0408
 8854TIP3    H250758   3.153   0.648   6.854  0.1304 -1.2475  1.1842
 8855TIP3   OH250759   7.547   2.472   5.114  0.3523  0.0471  0.5687
 8855TIP3    H150760   7.522   2.553   5.070  0.0870  0.3719  1.3032
 8855TIP3    H250761   7.642   2.479   5.123  0.4703 -0.2413 -0.3698
 8856TIP3   OH250762   1.736   0.903   5.234 -0.0338  0.3137  0.0086
 8856TIP3    H150763   1.700   0.920   5.321  1.7926 -2.1171  1.3741
 8856TIP3    H250764   1.750   0.989   5.196  0.9169  1.5594  2.9233
 8857TIP3   OH250765   4.848   1.187   5.146  0.7270  0.4953  0.1096
 8857TIP3    H150766   4.892   1.251   5.089  1.3677  0.1035  0.1561
 8857TIP3    H250767   4.919   1.130   5.177 -0.0166 -1.1110 -1.0371
 8858TIP3   OH250768   4.699   5.788   5.640  0.3051 -0.2765  0.1414
 8858TIP3    H150769   4.740   5.767   5.556 -1.2489 -0.0093 -0.7254
 8858TIP3    H250770   4.691   5.703   5.684  0.7631 -0.4812 -0.1569
 8859TIP3   OH250771   6.905   0.193   7.449 -0.0282 -0.0542  0.2810
 8859TIP3    H150772   6.868   0.280   7.435 -0.3783 -0.3398 -0.6575
 8859TIP3    H250773   6.936   0.194   7.539  1.9947  1.7809 -0.3570
 8860TIP3   OH250774   7.261   6.504   5.700 -0.0455  0.5780  0.5802
 8860TIP3    H150775   7.327   6.437   5.681 -0.9919 -0.4420  0.7494
 8860TIP3    H250776   7.275   6.571   5.633 -0.0521 -0.5277 -0.5555
 8861TIP3   OH250777   4.498   3.644   5.453  0.6083  0.3164  0.5668
 8861TIP3    H150778   4.581   3.624   5.410  0.7223 -2.6519  1.9053
 8861TIP3    H250779   4.449   3.697   5.389  2.0268 -1.1126 -1.8323
 8862TIP3   OH250780   6.351   2.911   6.200  0.3222 -0.4435 -0.4376
 8862TIP3    H150781   6.350   2.823   6.237 -0.5118 -0.4926 -0.5619
 8862TIP3    H250782   6.299   2.905   6.121 -1.8947  0.6975  0.8493
 8863TIP3   OH250783   6.172   1.072   6.816 -0.3736 -0.3727  0.3303
 8863TIP3    H150784   6.152   0.984   6.782  1.2180  0.1078 -2.1030
 8863TIP3    H250785   6.087   1.114   6.824 -1.0597 -1.6455  0.1095
 8864TIP3   OH250786   3.450   4.985   5.343 -0.3766  0.2560 -0.4966
 8864TIP3    H150787   3.390   5.038   5.395  1.0344  0.8238  0.6247
 8864TIP3    H250788   3.494   5.048   5.285  2.1112  0.6479  1.6024
 8865TIP3   OH250789   3.462   0.064   4.857  0.4304  0.0116 -0.0788
 8865TIP3    H150790   3.498  -0.024   4.863  0.1528 -0.1266 -0.4310
 8865TIP3    H250791   3.429   0.082   4.946  1.8243  0.3530  0.3959
 8866TIP3   OH250792   2.281   6.135   6.887 -0.1711 -0.3021  0.5499
 8866TIP3    H150793   2.198   6.183   6.882 -0.5090 -0.9491 -0.3663
 8866TIP3    H250794   2.258   6.052   6.928 -0.4321 -1.3363 -1.5144
 8867TIP3   OH250795   3.947   0.698   6.030  0.3328  0.5115  0.2084
 8867TIP3    H150796   3.888   0.736   5.964  0.2782  1.0762  0.5735
 8867TIP3    H250797   4.007   0.770   6.052 -1.1142  1.1005  2.5069
 8868TIP3   OH250798   2.689   0.599   5.182 -0.0390  0.6772 -0.3428
 8868TIP3    H150799   2.652   0.538   5.118  0.6757  0.9679 -1.0511
 8868TIP3    H250800   2.678   0.685   5.142  2.3112  0.6995 -1.0705
 8869TIP3   OH250801   4.095   6.783   6.652  0.0411  0.5172  0.1526
 8869TIP3    H150802   4.029   6.767   6.585 -0.1056  0.5685  0.2842
 8869TIP3    H250803   4.053   6.844   6.713  0.6644  1.5958 -0.4667
 8870TIP3   OH250804   4.195   4.962   6.040  0.2223  0.0063  0.1282
 8870TIP3    H150805   4.212   5.051   6.071 -1.7390  0.8869 -1.1179
 8870TIP3    H250806   4.130   4.973   5.971 -3.0776 -2.7002  2.5083
 8871TIP3   OH250807   6.499   0.217   6.922  0.1603  0.3559  0.2648
 8871TIP3    H150808   6.539   0.242   6.839 -0.7868 -0.6575 -0.5291
 8871TIP3    H250809   6.542   0.135   6.946 -0.4088  0.0155  0.1422
 8872TIP3   OH250810   7.463   5.710   5.911 -0.2514 -0.1826 -0.5657
 8872TIP3    H150811   7.553   5.721   5.940 -0.7602  0.7586  0.7669
 8872TIP3    H250812   7.461   5.750   5.824  0.4317  0.5544 -0.2545
 8873TIP3   OH250813   4.210   0.858   5.186  0.6040 -0.0953  0.1070
 8873TIP3    H150814   4.226   0.921   5.257 -1.4092  0.1750  0.3720
 8873TIP3    H250815   4.157   0.790   5.226  1.0018 -0.9033 -0.7057
 8874TIP3   OH250816   2.394   5.669   6.163 -0.2098 -0.0027 -0.2285
 8874TIP3    H150817   2.406   5.759   6.133  0.7040 -0.4935 -1.4099
 8874TIP3    H250818   2.469   5.621   6.128 -0.3786 -1.1190  0.8539
 8875TIP3   OH250819   1.221   4.180   6.476 -0.4364 -0.7976  0.6597
 8875TIP3    H150820   1.189   4.120   6.409  1.8033 -1.3177 -0.0349
 8875TIP3    H250821   1.186   4.265   6.451 -2.8137 -1.5635  1.0849
 8876TIP3   OH250822   5.679   7.089   6.132  0.1874 -0.1385  0.3055
 8876TIP3    H150823   5.619   7.147   6.085  0.0924  0.7025  1.4139
 8876TIP3    H250824   5.700   7.137   6.212 -0.8375 -2.1259  1.8608
 8877TIP3   OH250825   1.253   3.113   5.958  0.1972 -0.0914  0.3608
 8877TIP3    H150826   1.321   3.145   5.899  0.9901 -0.3454  1.1114
 8877TIP3    H250827   1.254   3.018   5.945 -0.0625 -0.0915  0.3340
 8878TIP3   OH250828   7.491   6.052   6.596 -0.9063  0.1131  0.0316
 8878TIP3    H150829   7.431   6.042   6.522  0.0868  0.8659 -0.9097
 8878TIP3    H250830   7.497   5.965   6.634  1.2722 -1.1856 -2.9321
 8879TIP3   OH250831   5.952   2.502   6.296 -0.1055  1.0624  0.0191
 8879TIP3    H150832   5.953   2.435   6.364  0.1824 -1.1997 -2.0793
 8879TIP3    H250833   6.029   2.482   6.242 -0.6852  2.3484 -1.3567
 8880TIP3   OH250834   2.175   3.200   4.640 -0.0901 -0.4686 -0.1226
 8880TIP3    H150835   2.098   3.242   4.677 -0.6969 -1.4764 -0.2039
 8880TIP3    H250836   2.244   3.266   4.647  0.0530 -0.7525  3.5436
 8881TIP3   OH250837   4.688   3.911   5.985  0.9533 -0.1244 -0.6379
 8881TIP3    H150838   4.700   3.821   6.014  0.5948 -0.1159 -0.4632
 8881TIP3    H250839   4.596   3.930   6.002  1.0960  0.3725 -0.3917
 8882TIP3   OH250840   0.918   0.548   5.637  0.2506  0.0473 -0.2943
 8882TIP3    H150841   0.954   0.637   5.637 -0.1267  0.2658  2.4676
 8882TIP3    H250842   0.959   0.505   5.712 -1.5232 -1.2726 -0.0278
 8883TIP3   OH250843   0.993   5.226   7.252 -0.1393 -0.3150  0.3136
 8883TIP3    H150844   0.961   5.140   7.225 -1.0603  0.4092 -1.0208
 8883TIP3    H250845   1.085   5.211   7.273  0.2090 -1.3096 -1.6322
 8884TIP3   OH250846   0.341   4.175   5.475  0.0452  1.0000 -0.3881
 8884TIP3    H150847   0.410   4.139   5.419 -0.0082  1.1721 -0.5668
 8884TIP3    H250848   0.365   4.149   5.563 -1.0638 -1.2829 -0.6792
 8885TIP3   OH250849   0.588   1.389   5.734  0.2775  0.4165 -1.0300
 8885TIP3    H150850   0.668   1.402   5.683  0.5294 -0.3840 -0.8633
 8885TIP3    H250851   0.569   1.295   5.725 -0.5354  0.5574 -0.9087
 8886TIP3   OH250852   1.174   1.028   4.499 -0.1959 -0.2235 -0.4072
 8886TIP3    H150853   1.092   0.987   4.526 -0.2010 -0.5737 -0.9403
 8886TIP3    H250854   1.241   0.963   4.518 -0.1031 -0.1485 -0.4755
 8887TIP3   OH250855   0.812   1.522   6.522 -0.0274  0.3441 -0.0545
 8887TIP3    H150856   0.739   1.479   6.477  0.1585  1.2843 -1.3153
 8887TIP3    H250857   0.860   1.568   6.453  2.7426 -1.5293  0.4608
 8888TIP3   OH250858   2.498   6.132   5.750 -0.2790 -0.4304 -0.1431
 8888TIP3    H150859   2.591   6.119   5.769 -0.5603  0.4301  2.2747
 8888TIP3    H250860   2.494   6.217   5.707 -0.0833  0.5734  1.7393
 8889TIP3   OH250861   1.911   5.052   6.331  0.5068 -0.0126 -0.4590
 8889TIP3    H150862   1.836   5.014   6.285  1.2849 -1.4529 -0.5883
 8889TIP3    H250863   1.881   5.065   6.421 -0.6001  1.5827 -1.0039
 8890TIP3   OH250864   0.294   1.085   7.375 -0.5831 -0.1561  0.6200
 8890TIP3    H150865   0.257   1.173   7.381  0.6050  0.5782 -1.6231
 8890TIP3    H250866   0.231   1.029   7.420 -2.9710  1.3966 -0.6008
 8891TIP3   OH250867   3.484   0.605   4.606 -0.2131 -0.1958  0.2413
 8891TIP3    H150868   3.450   0.522   4.575  2.1394 -0.7812 -0.9816
 8891TIP3    H250869   3.427   0.671   4.568 -0.9028 -1.1758 -0.4375
 8892TIP3   OH250870   6.348   5.464   7.532  0.0922 -0.0017 -0.0090
 8892TIP3    H150871   6.413   5.527   7.500 -0.5012 -0.1528 -1.6130
 8892TIP3    H250872   6.350   5.473   7.627  2.3692  0.0857 -0.0094
 8893TIP3   OH250873   1.244   2.583   5.406 -0.2919 -0.1808  0.5749
 8893TIP3    H150874   1.293   2.631   5.340 -0.7443  0.0056  0.3665
 8893TIP3    H250875   1.306   2.568   5.477  0.9532 -2.5564 -0.8820
 8894TIP3   OH250876   4.483   5.295   6.011 -0.2333  0.3209 -0.4422
 8894TIP3    H150877   4.502   5.347   6.089  0.9472 -1.2899  0.4071
 8894TIP3    H250878   4.569   5.274   5.974 -0.4686 -2.7156  0.4483
 8895TIP3   OH250879   6.638   4.172   5.260 -0.2488  0.1612 -0.2750
 8895TIP3    H150880   6.602   4.100   5.208 -0.5294 -1.5250  2.1155
 8895TIP3    H250881   6.732   4.169   5.242 -0.1124 -1.4967  0.5005
 8896TIP3   OH250882   4.768   0.042   6.549 -0.6753 -0.0487 -0.1190
 8896TIP3    H150883   4.725   0.127   6.541 -2.3597 -0.7423  1.1112
 8896TIP3    H250884   4.754   0.016   6.640 -0.1130 -1.6105 -0.4450
 8897TIP3   OH250885   0.514   6.175   5.288 -0.1285  0.0017  0.4437
 8897TIP3    H150886   0.486   6.182   5.197  0.4403 -0.1279  0.2567
 8897TIP3    H250887   0.475   6.092   5.318 -0.2370 -0.0026  0.2929
 8898TIP3   OH250888   1.937   3.814   5.611  0.1263  0.0199 -0.5065
 8898TIP3    H150889   1.889   3.810   5.694  1.3785  0.8936  0.2797
 8898TIP3    H250890   1.896   3.886   5.563  0.0107  0.1194 -0.2601
 8899TIP3   OH250891   1.823   3.561   6.422  0.3505  0.1703  1.1604
 8899TIP3    H150892   1.791   3.538   6.510 -0.9570  1.3406  1.0176
 8899TIP3    H250893   1.868   3.645   6.434 -0.2747  0.5904  0.6445
 8900TIP3   OH250894   4.407   5.490   5.022  0.2671  0.1877 -0.0190
 8900TIP3    H150895   4.403   5.404   4.980 -0.8262 -1.2076  2.6891
 8900TIP3    H250896   4.457   5.475   5.103 -0.4470  1.9747  0.8084
 8901TIP3   OH250897   2.887   3.720   5.742  0.0470 -0.8171  0.9526
 8901TIP3    H150898   2.808   3.670   5.723 -0.4121  0.6762 -1.4487
 8901TIP3    H250899   2.856   3.809   5.760  1.1525 -0.2282  0.0712
 8902TIP3   OH250900   1.246   7.094   6.348 -0.0113  0.3209 -0.4193
 8902TIP3    H150901   1.175   7.103   6.411 -0.2659 -0.1381 -0.6320
 8902TIP3    H250902   1.238   7.170   6.291  1.0128  1.4278  0.8602
 8903TIP3   OH250903   2.183   5.041   5.764 -0.8387  0.1716 -0.1434
 8903TIP3    H150904   2.142   4.955   5.764  2.9552 -1.8482 -0.4249
 8903TIP3    H250905   2.196   5.062   5.856 -0.4254 -0.3298 -0.0807
 8904TIP3   OH250906   5.453   6.287   6.351  0.1634  0.6431 -0.2211
 8904TIP3    H150907   5.526   6.300   6.412 -0.2588  0.3254  0.3579
 8904TIP3    H250908   5.393   6.229   6.397  1.2097 -2.1052 -2.0845
 8905TIP3   OH250909   6.612   1.252   5.327 -0.3905  0.0954 -0.0689
 8905TIP3    H150910   6.549   1.314   5.290 -0.2338  1.2461  1.4602
 8905TIP3    H250911   6.668   1.307   5.382 -0.7707 -1.5113  2.0336
 8906TIP3   OH250912   7.541   2.515   6.214 -0.0435  1.0404 -0.1031
 8906TIP3    H150913   7.599   2.445   6.243  0.3891  1.1402 -0.7216
 8906TIP3    H250914   7.461   2.471   6.186  0.7574  0.6495 -1.8648
 8907TIP3   OH250915   1.685   2.428   5.811 -0.2669  0.3054 -0.4698
 8907TIP3    H150916   1.615   2.465   5.865 -1.3518 -0.4527 -1.3048
 8907TIP3    H250917   1.657   2.337   5.796  0.8340  0.0349 -0.9265
 8908TIP3   OH250918   3.275   6.930   6.081 -0.0403  0.1295  0.2617
 8908TIP3    H150919   3.272   6.950   6.174 -1.5258  2.3268 -0.1767
 8908TIP3    H250920   3.221   6.998   6.040  1.1768 -0.3072 -2.2759
 8909TIP3   OH250921   7.635   3.511   4.698  0.4469 -0.0011  0.1697
 8909TIP3    H150922   7.655   3.511   4.604 -1.5125 -1.8020 -0.3125
 8909TIP3    H250923   7.541   3.525   4.703  0.5746  0.4598  1.9162
 8910TIP3   OH250924   0.637   4.914   4.930  0.5280 -0.6145 -0.1959
 8910TIP3    H150925   0.569   4.972   4.964  1.1476 -0.8772  1.6666
 8910TIP3    H250926   0.591   4.852   4.873 -0.6344 -0.2145  0.2867
 8911TIP3   OH250927   0.149   6.055   5.514  0.0559  0.3738  1.0245
 8911TIP3    H150928   0.209   6.112   5.564  0.6865 -0.1263  0.8512
 8911TIP3    H250929   0.196   6.038   5.432  0.2501 -1.0785  1.4156
 8912TIP3   OH250930   0.948   1.343   6.709 -0.4720 -0.1826 -0.5953
 8912TIP3    H150931   0.881   1.400   6.672 -1.4274 -1.1053 -0.3634
 8912TIP3    H250932   0.899   1.267   6.742  0.5883 -0.4462  0.4548
 8913TIP3   OH250933   5.580   5.060   4.898 -0.3140  0.6896  0.3451
 8913TIP3    H150934   5.631   5.126   4.849 -0.4470  0.3508 -0.2665
 8913TIP3    H250935   5.569   4.989   4.835 -0.5680  0.2809  0.8557
 8914TIP3   OH250936   4.576   2.634   7.357  0.2477  0.4411 -0.1404
 8914TIP3    H150937   4.517   2.629   7.282 -1.3517 -1.2842  1.1222
 8914TIP3    H250938   4.518   2.647   7.432  1.6568  0.5160  0.9873
 8915TIP3   OH250939   6.614   6.565   6.883  0.5311 -0.2884 -1.0753
 8915TIP3    H150940   6.617   6.475   6.852 -0.5185 -0.4757 -0.6897
 8915TIP3    H250941   6.703   6.584   6.913  0.7651 -1.1874 -1.1825
 8916TIP3   OH250942   6.329   3.920   7.017  0.1317 -0.1447 -0.2539
 8916TIP3    H150943   6.400   3.941   7.077 -0.1297 -0.7727  0.2891
 8916TIP3    H250944   6.306   4.003   6.977  0.9723  0.1154 -0.2209
 8917TIP3   OH250945   2.972   1.497   7.480 -0.0423 -0.2343  0.3219
 8917TIP3    H150946   3.037   1.565   7.496  0.0363 -0.2780  0.1870
 8917TIP3    H250947   2.897   1.544   7.442 -0.2866 -0.1072  0.9498
 8918TIP3   OH250948   3.985   0.637   4.981  0.5885 -0.2419  0.4063
 8918TIP3    H150949   3.991   0.730   5.003  1.1188 -0.3117  0.5644
 8918TIP3    H250950   4.026   0.629   4.895 -0.3310 -0.1772 -0.0471
 8919TIP3   OH250951   6.621   0.749   7.105 -0.5199  0.6081 -0.5790
 8919TIP3    H150952   6.575   0.743   7.188 -0.1556  0.2816 -0.3968
 8919TIP3    H250953   6.557   0.720   7.040 -0.4425 -0.2772 -0.2820
 8920TIP3   OH250954   2.618   6.336   5.182  0.2031  0.2547 -0.0874
 8920TIP3    H150955   2.682   6.349   5.112 -0.2337 -2.0268 -0.9931
 8920TIP3    H250956   2.555   6.407   5.171  1.5405  1.4281 -0.3593
 8921TIP3   OH250957   0.220   3.169   6.480 -0.0360  0.0665 -0.2605
 8921TIP3    H150958   0.171   3.218   6.546  0.7616  1.4369 -0.6399
 8921TIP3    H250959   0.155   3.111   6.439 -1.1713  1.2865 -0.2358
 8922TIP3   OH250960   2.703   7.488   5.664 -0.1458 -0.2204 -0.5592
 8922TIP3    H150961   2.705   7.483   5.568 -0.6738 -0.1435 -0.5801
 8922TIP3    H250962   2.615   7.458   5.687  0.1811 -0.8093 -0.0572
 8923TIP3   OH250963   1.471   3.196   5.849 -0.3399  0.0098 -0.0536
 8923TIP3    H150964   1.536   3.139   5.891  0.5924 -0.2484 -1.7151
 8923TIP3    H250965   1.520   3.275   5.825 -1.4594  1.2549  1.5917
 8924TIP3   OH250966   6.245   1.682   5.510  0.6119 -0.9160  0.5531
 8924TIP3    H150967   6.266   1.693   5.603  1.5675  1.5165  0.1143
 8924TIP3    H250968   6.330   1.688   5.466  0.0695 -1.2364 -0.5635
 8925TIP3   OH250969   7.168   7.197   6.635 -0.1034 -0.3576  0.0212
 8925TIP3    H150970   7.207   7.221   6.719  1.2177 -0.2354 -0.5901
 8925TIP3    H250971   7.151   7.281   6.592  1.1339 -0.4052 -0.6326
 8926TIP3   OH250972   6.366   2.873   5.258 -0.2206  0.4245  0.7830
 8926TIP3    H150973   6.300   2.807   5.279  0.2707 -0.1938  0.3963
 8926TIP3    H250974   6.394   2.907   5.343 -0.9106  0.5795  0.9602
 8927TIP3   OH250975   4.580   2.268   5.066  0.1646 -0.7852  0.0611
 8927TIP3    H150976   4.595   2.362   5.072  0.8092 -0.7641 -1.3583
 8927TIP3    H250977   4.599   2.235   5.154  1.6927  0.1853  0.1338
 8928TIP3   OH250978   5.857   3.649   5.844  0.7840  0.5696  0.0214
 8928TIP3    H150979   5.860   3.632   5.750 -0.3742 -0.5652  0.1782
 8928TIP3    H250980   5.894   3.571   5.884 -0.7319  0.1223  0.5880
 8929TIP3   OH250981   2.816   5.957   4.959  0.1938 -0.0593  0.1808
 8929TIP3    H150982   2.733   5.922   4.992  0.8069 -1.8841 -0.1063
 8929TIP3    H250983   2.871   5.966   5.037  0.2586 -0.3857  0.1729
 8930TIP3   OH250984   7.599   6.360   6.882  0.3344 -0.0224 -0.1986
 8930TIP3    H150985   7.609   6.386   6.974 -0.2674 -1.7429  0.3978
 8930TIP3    H250986   7.678   6.310   6.863 -0.4104 -1.3166  0.0125
 8931TIP3   OH250987   4.143   1.987   6.800  0.1329  1.7001  0.1174
 8931TIP3    H150988   4.187   2.000   6.884  0.6333  1.8215 -0.1562
 8931TIP3    H250989   4.050   1.996   6.820  0.2968  2.8487  0.4676
 8932TIP3   OH250990   5.407   7.186   5.723  0.2052  0.0674  0.1497
 8932TIP3    H150991   5.390   7.216   5.633 -1.3403 -0.7253  0.1435
 8932TIP3    H250992   5.479   7.123   5.714  0.3956  0.3579 -0.4554
 8933TIP3   OH250993   4.962   2.758   7.190 -0.6673 -0.1571 -0.1434
 8933TIP3    H150994   4.949   2.734   7.281  0.8155 -0.4995  0.0076
 8933TIP3    H250995   5.043   2.713   7.164 -0.1538  1.2416 -1.1314
 8934TIP3   OH250996   6.885   5.458   5.055 -0.2285 -0.5634  0.0167
 8934TIP3    H150997   6.886   5.386   5.119 -2.6554  0.6250  1.5194
 8934TIP3    H250998   6.929   5.422   4.978 -0.2050 -3.2141  1.1648
 8935TIP3   OH250999   0.874   3.787   5.492 -0.2767 -0.6518 -0.5850
 8935TIP3    H151000   0.964   3.771   5.519 -0.6947 -0.3450  1.0876
 8935TIP3    H251001   0.868   3.883   5.485  0.2664 -0.7375 -3.5414
 8936TIP3   OH251002   0.762   4.271   5.246 -0.7305  0.0882 -0.2204
 8936TIP3    H151003   0.771   4.363   5.273 -1.1187 -0.0603  0.4155
 8936TIP3    H251004   0.762   4.275   5.150  1.2717  0.5627 -0.2479
 8937TIP3   OH251005   5.647   6.577   6.873 -0.7841  0.1289  0.1625
 8937TIP3    H151006   5.682   6.513   6.812 -1.0617 -1.1250  1.2610
 8937TIP3    H251007   5.559   6.545   6.894 -0.6826  0.4904  1.2331
 8938TIP3   OH251008   2.411   3.893   5.842 -0.6681  0.4893 -0.5372
 8938TIP3    H151009   2.344   3.960   5.853  0.1622  1.0197  2.3861
 8938TIP3    H251010   2.389   3.826   5.908 -0.4151 -1.2096 -2.0995
 8939TIP3   OH251011   3.853   2.980   4.867  0.1389  0.4569 -0.0502
 8939TIP3    H151012   3.811   3.065   4.878  0.5117  0.5530  0.6868
 8939TIP3    H251013   3.854   2.942   4.955  0.0976 -0.2527 -0.3500
 8940TIP3   OH251014   1.239   7.343   5.543 -0.4502 -0.8871  0.2317
 8940TIP3    H151015   1.249   7.269   5.603 -0.2342 -0.3053  0.9214
 8940TIP3    H251016   1.325   7.354   5.503 -0.2725 -0.5268  0.7044
 8941TIP3   OH251017   0.432   3.613   5.506 -0.0276  0.4136 -0.0994
 8941TIP3    H151018   0.430   3.527   5.547 -2.0428  0.1983 -0.5743
 8941TIP3    H251019   0.524   3.624   5.480  1.1153  0.0208  3.1909
 8942TIP3   OH251020   6.184   1.192   5.621  0.3236 -0.5140  0.1570
 8942TIP3    H151021   6.120   1.137   5.667 -1.2460  0.3194 -0.9222
 8942TIP3    H251022   6.147   1.280   5.626  1.2583 -0.0537 -0.7626
 8943TIP3   OH251023   7.260   0.892   5.305 -0.6882 -0.6034 -0.2247
 8943TIP3    H151024   7.262   0.862   5.396  2.4009 -1.0057 -0.3117
 8943TIP3    H251025   7.172   0.871   5.275 -1.5754 -1.1037  2.4451
 8944TIP3   OH251026   7.070   3.237   5.781 -0.2831 -0.4237  0.2357
 8944TIP3    H151027   7.140   3.186   5.740 -0.4034  1.0945 -2.0290
 8944TIP3    H251028   7.117   3.305   5.831 -0.1535 -1.5202  1.6646
 8945TIP3   OH251029   4.877   7.272   5.129  0.4743 -0.7539  0.4264
 8945TIP3    H151030   4.882   7.176   5.134 -1.4602 -0.9852 -0.8476
 8945TIP3    H251031   4.785   7.289   5.110  1.2026  1.2383 -1.7620
 8946TIP3   OH251032   6.546   3.883   4.650  0.0231 -0.3947  0.7314
 8946TIP3    H151033   6.619   3.873   4.588 -1.0595 -0.1242 -0.6356
 8946TIP3    H251034   6.550   3.975   4.676 -1.1983  0.2502 -1.1775
 8947TIP3   OH251035   2.789   4.011   7.062  0.2391  0.8049 -0.0375
 8947TIP3    H151036   2.709   3.963   7.085 -0.0185  0.8246 -0.8491
 8947TIP3    H251037   2.810   4.063   7.139  1.0382 -1.2797  1.2366
 8948TIP3   OH251038   4.657   7.468   6.877  0.3248  0.0086 -0.2375
 8948TIP3    H151039   4.604   7.388   6.868  0.0915  0.0181  0.9005
 8948TIP3    H251040   4.747   7.437   6.885  0.2696 -0.1263 -0.1324
 8949TIP3   OH251041   3.967   7.097   5.679 -0.7545 -0.0184 -0.1589
 8949TIP3    H151042   3.874   7.109   5.701 -0.6422  0.3621  0.1291
 8949TIP3    H251043   3.991   7.180   5.637 -0.5167 -0.0746 -0.1315
 8950TIP3   OH251044   6.932   3.104   7.216 -0.4168 -0.1058 -0.1021
 8950TIP3    H151045   6.887   3.164   7.277  1.6987  1.1918  0.2731
 8950TIP3    H251046   6.895   3.018   7.237 -1.3598  0.6223  1.4598
 8951TIP3   OH251047   3.552   2.765   4.647 -0.2206 -0.0692  0.6390
 8951TIP3    H151048   3.605   2.801   4.576  1.3816 -1.1903  1.2047
 8951TIP3    H251049   3.545   2.837   4.710  1.2080 -0.0717  0.8361
 8952TIP3   OH251050   2.177   6.364   6.580 -0.6249 -0.5449 -0.1863
 8952TIP3    H151051   2.264   6.330   6.559 -0.3094  0.6680 -0.9145
 8952TIP3    H251052   2.183   6.387   6.673 -0.2246 -0.6321 -0.1880
 8953TIP3   OH251053   4.714   5.527   5.765 -0.6315 -0.0260  0.0922
 8953TIP3    H151054   4.673   5.511   5.850 -1.0148  0.5770  0.0270
 8953TIP3    H251055   4.756   5.444   5.742 -1.1912 -0.4239  0.5043
 8954TIP3   OH251056   0.575   2.145   5.890  0.3682  0.2259  0.5193
 8954TIP3    H151057   0.637   2.161   5.818  0.9125  0.0298  0.9435
 8954TIP3    H251058   0.567   2.050   5.894  0.5455  0.2261  0.8946
 8955TIP3   OH251059   2.309   1.469   4.723  0.4079 -0.2991 -0.3715
 8955TIP3    H151060   2.372   1.410   4.682  2.1313  0.1544  1.4830
 8955TIP3    H251061   2.258   1.413   4.782 -1.1961 -0.7104 -2.0399
 8956TIP3   OH251062   4.198   6.790   5.502  0.1413  0.0489  0.1459
 8956TIP3    H151063   4.172   6.832   5.584  0.6546  1.3259 -0.3165
 8956TIP3    H251064   4.256   6.718   5.529 -0.8279 -0.4495  0.9571
 8957TIP3   OH251065   6.804   6.918   5.386 -0.0908 -0.0041 -0.3261
 8957TIP3    H151066   6.769   6.987   5.443 -0.3889  0.5790 -1.2077
 8957TIP3    H251067   6.894   6.905   5.417 -0.1348  0.5588  0.0547
 8958TIP3   OH251068   0.888   0.811   7.886  0.6716  0.1695 -0.1729
 8958TIP3    H151069   0.951   0.741   7.872  0.2712 -0.2087 -0.0965
 8958TIP3    H251070   0.812   0.787   7.832  0.6929  0.7487 -0.4638
 8959TIP3   OH251071   6.594   4.284   5.641  0.1213 -0.0134 -0.4214
 8959TIP3    H151072   6.642   4.350   5.690 -0.0132 -0.7538  0.7595
 8959TIP3    H251073   6.617   4.201   5.684 -0.5233 -0.6201 -1.2094
 8960TIP3   OH251074   3.673   3.836   5.229 -0.0325 -0.2042  0.1491
 8960TIP3    H151075   3.753   3.873   5.266  0.2699  1.7087 -2.1897
 8960TIP3    H251076   3.603   3.866   5.288  0.6441  0.8533  0.4409
 8961TIP3   OH251077   2.541   0.837   5.033  0.2567  0.0458 -0.6325
 8961TIP3    H151078   2.484   0.913   5.024 -1.5321 -1.0556  0.7265
 8961TIP3    H251079   2.541   0.796   4.946  0.6784  1.1947 -1.1854
 8962TIP3   OH251080   7.578   1.590   6.058  0.8787 -0.1610  0.0469
 8962TIP3    H151081   7.578   1.554   5.969 -1.1660  1.0862 -0.5261
 8962TIP3    H251082   7.668   1.577   6.089  1.6396 -0.6674 -2.1737
 8963TIP3   OH251083   6.688   7.299   5.233  0.0534 -0.3746 -0.0651
 8963TIP3    H151084   6.680   7.386   5.272  1.8585 -0.4489  0.5261
 8963TIP3    H251085   6.649   7.240   5.297 -1.8381  0.0142 -0.7776
 8964TIP3   OH251086   2.307   0.129   5.904 -0.0399  0.2105  0.5518
 8964TIP3    H151087   2.399   0.101   5.903 -0.1229 -0.0404 -0.0155
 8964TIP3    H251088   2.308   0.210   5.955  0.9150  1.5824 -1.4968
 8965TIP3   OH251089   6.087   7.248   5.921 -0.1017  0.1911  0.0140
 8965TIP3    H151090   6.065   7.255   6.014 -0.9387  0.9259 -0.2216
 8965TIP3    H251091   6.142   7.324   5.904  0.9882 -0.5474  0.1412
 8966TIP3   OH251092   0.874   7.087   5.082  0.4128  0.3099  0.1416
 8966TIP3    H151093   0.809   7.079   5.013  0.5788  0.6331 -0.0524
 8966TIP3    H251094   0.823   7.091   5.163  0.2773 -2.2196  0.2507
 8967TIP3   OH251095   5.142   6.343   6.411  0.0607 -0.1601 -0.6376
 8967TIP3    H151096   5.198   6.269   6.430 -0.8965 -0.3213  1.8886
 8967TIP3    H251097   5.057   6.304   6.389 -0.5186  0.1108  0.9523
 8968TIP3   OH251098   5.963   0.613   6.381  0.1275 -0.6999 -0.1267
 8968TIP3    H151099   5.957   0.574   6.468  0.0202 -1.9167 -0.6694
 8968TIP3    H251100   5.873   0.617   6.350  0.3410 -2.2243 -1.0127
 8969TIP3   OH251101   1.771   7.520   6.625 -0.3120  0.0653 -0.2465
 8969TIP3    H151102   1.840   7.565   6.576 -1.8404  1.5986 -1.1353
 8969TIP3    H251103   1.766   7.433   6.585 -0.3607  0.7019 -1.7121
 8970TIP3   OH251104   7.435   1.284   6.096  0.3714  0.0012  0.2501
 8970TIP3    H151105   7.496   1.333   6.040 -0.5820  0.3561 -0.5227
 8970TIP3    H251106   7.482   1.205   6.120  0.7852 -0.1966 -1.1367
 8971TIP3   OH251107   4.747   5.771   6.697  0.2073  0.2002  0.3599
 8971TIP3    H151108   4.832   5.785   6.741  0.2623 -0.1929  0.3820
 8971TIP3    H251109   4.753   5.823   6.617  0.2524  0.6255  0.6325
 8972TIP3   OH251110   0.254   5.984   6.232 -0.0987 -0.1978  0.4223
 8972TIP3    H151111   0.175   5.965   6.283  1.2986 -1.6180  2.2156
 8972TIP3    H251112   0.256   6.079   6.224 -0.9727 -0.0022  2.1037
 8973TIP3   OH251113   7.667   5.439   4.763 -0.4531  0.2397  0.0261
 8973TIP3    H151114   7.642   5.350   4.788 -1.0731  0.0025 -1.3548
 8973TIP3    H251115   7.723   5.428   4.686  0.1290  1.0230  0.3167
 8974TIP3   OH251116   0.436   5.295   6.059  0.0169  0.4990  0.0473
 8974TIP3    H151117   0.361   5.345   6.027 -1.2448 -0.9144  0.6242
 8974TIP3    H251118   0.460   5.238   5.986  2.0874  2.5400 -0.9583
 8975TIP3   OH251119   6.136   6.102   4.987  0.3514 -0.2192  0.3309
 8975TIP3    H151120   6.061   6.090   5.046 -0.3009 -0.7978 -0.5869
 8975TIP3    H251121   6.211   6.074   5.038 -0.3968 -2.3739  0.3637
 8976TIP3   OH251122   2.865   5.850   5.459 -0.2429  0.7069  0.6089
 8976TIP3    H151123   2.801   5.908   5.415 -0.2765  0.1614 -0.0927
 8976TIP3    H251124   2.898   5.794   5.388  1.1024  1.0526  0.9483
 8977TIP3   OH251125   1.755   5.739   4.931  0.2624 -0.1701  0.1691
 8977TIP3    H151126   1.833   5.777   4.971  0.7851  1.0266 -1.8410
 8977TIP3    H251127   1.786   5.701   4.849 -1.0048 -1.1928  0.1327
 8978TIP3   OH251128   3.085   3.968   4.935 -0.3753  0.0243 -0.1836
 8978TIP3    H151129   3.080   3.948   5.029 -1.5859  0.9759 -0.0184
 8978TIP3    H251130   3.168   4.013   4.924 -0.9445  1.3606  0.7527
 8979TIP3   OH251131   7.520   4.929   6.085 -0.4053  0.1112  0.0275
 8979TIP3    H151132   7.458   4.986   6.129 -1.3021  0.1382 -1.2198
 8979TIP3    H251133   7.487   4.841   6.100  0.3530 -0.0186  1.0028
 8980TIP3   OH251134   6.708   5.705   6.195 -0.4234  0.7020  0.1361
 8980TIP3    H151135   6.732   5.617   6.164  0.1520  0.9879 -0.2522
 8980TIP3    H251136   6.671   5.748   6.118 -1.1524  0.6463  0.4475
 8981TIP3   OH251137   7.126   3.856   5.878 -0.1786  0.6202  0.4894
 8981TIP3    H151138   7.069   3.915   5.927  0.3206  1.6895 -0.1768
 8981TIP3    H251139   7.140   3.900   5.794 -0.4043 -0.8176 -0.3414
 8982TIP3   OH251140   7.593   0.995   7.353  0.3906 -0.0486  0.4136
 8982TIP3    H151141   7.676   0.960   7.387  1.0186  0.4477 -0.5909
 8982TIP3    H251142   7.586   1.083   7.390  0.1178 -0.2257  0.7953
 8983TIP3   OH251143   6.253   3.529   6.113 -0.0189  0.5550 -0.5355
 8983TIP3    H151144   6.331   3.489   6.073  0.6888  0.6261  0.7288
 8983TIP3    H251145   6.235   3.606   6.059 -1.1741 -1.1707 -2.8020
 8984TIP3   OH251146   4.021   4.289   5.287 -0.3484 -0.1181 -0.3015
 8984TIP3    H151147   4.001   4.262   5.197 -1.7763  0.6563 -0.2489
 8984TIP3    H251148   3.960   4.361   5.304 -0.4671 -0.5976  1.4657
 8985TIP3   OH251149   2.751   0.178   4.724 -0.4483  0.7512  0.7402
 8985TIP3    H151150   2.679   0.167   4.786  0.3944 -3.5745  1.2307
 8985TIP3    H251151   2.827   0.201   4.778  0.0293 -1.8700  1.2879
 8986TIP3   OH251152   2.203   1.942   7.242 -0.4336 -0.2008  0.4699
 8986TIP3    H151153   2.279   1.971   7.191 -0.0272 -0.1799  1.0840
 8986TIP3    H251154   2.130   1.992   7.206 -0.7957 -2.4691 -2.3180
 8987TIP3   OH251155   4.228   2.105   4.871  0.0125  0.4940  0.0210
 8987TIP3    H151156   4.303   2.106   4.930  0.0883  1.2068 -0.0800
 8987TIP3    H251157   4.238   2.184   4.817 -0.8944  0.7032  0.1285
 8988TIP3   OH251158   7.186   3.934   5.610  0.6600  0.0859 -0.1733
 8988TIP3    H151159   7.134   3.938   5.530  1.9701  1.4952 -1.0151
 8988TIP3    H251160   7.236   3.853   5.603 -0.8096 -0.8907  0.2813
 8989TIP3   OH251161   1.051   5.244   6.403 -0.4802 -0.3248 -0.3301
 8989TIP3    H151162   0.968   5.282   6.431  0.5818  0.5291  1.9147
 8989TIP3    H251163   1.042   5.234   6.308 -3.0801 -0.1767 -0.1752
 8990TIP3   OH251164   2.792   2.666   5.082 -0.2129 -0.5819  0.4731
 8990TIP3    H151165   2.865   2.726   5.095 -0.9514  0.1344  1.4832
 8990TIP3    H251166   2.723   2.721   5.044 -0.7256 -0.8950  0.9427
 8991TIP3   OH251167   0.922   1.797   5.987 -0.0442  0.2974  0.3406
 8991TIP3    H151168   0.920   1.880   6.033 -0.6027  0.4477  0.0493
 8991TIP3    H251169   1.013   1.787   5.958 -0.2830  1.5165 -0.9115
 8992TIP3   OH251170   6.041   4.919   6.780  0.0980  0.5327  0.0026
 8992TIP3    H151171   6.103   4.898   6.849 -0.0703 -2.6438 -0.6754
 8992TIP3    H251172   5.956   4.892   6.815 -0.8698  3.6377  0.4133
 8993TIP3   OH251173   7.001   4.049   6.072  0.1016  0.2090  0.0027
 8993TIP3    H151174   6.915   4.021   6.041  0.2994  0.2116 -0.5637
 8993TIP3    H251175   6.983   4.122   6.130 -0.1785  1.4820 -1.6094
 8994TIP3   OH251176   4.193   7.556   4.897 -0.3944 -0.4797  0.3878
 8994TIP3    H151177   4.257   7.519   4.837  1.0934 -0.2061  1.7272
 8994TIP3    H251178   4.147   7.480   4.933 -1.1453 -0.6534 -0.8997
 8995TIP3   OH251179   1.852   1.787   5.775  0.0075  0.2664 -0.3215
 8995TIP3    H151180   1.916   1.858   5.783 -0.0432  0.2599  0.1384
 8995TIP3    H251181   1.804   1.808   5.694 -0.2175  0.9329 -0.0249
 8996TIP3   OH251182   5.077   7.099   5.780  0.2484  1.0524  1.2832
 8996TIP3    H151183   5.147   7.163   5.766 -0.3786  1.1676 -2.5052
 8996TIP3    H251184   4.998   7.142   5.749 -0.7292 -0.5436  1.4493
 8997TIP3   OH251185   6.419   1.239   5.722  0.6361  0.2982  0.2953
 8997TIP3    H151186   6.343   1.190   5.691 -2.3742  3.0112  2.7807
 8997TIP3    H251187   6.431   1.309   5.658 -0.5933  1.3011  1.1269
 8998TIP3   OH251188   0.433   2.716   6.211 -0.4305 -0.2503  0.3121
 8998TIP3    H151189   0.360   2.730   6.272  0.4167  1.3515  1.0303
 8998TIP3    H251190   0.479   2.640   6.246 -1.0575 -0.5145  0.5721
 8999TIP3   OH251191   6.962   6.099   5.693 -0.3224 -0.1979  0.4560
 8999TIP3    H151192   6.980   6.045   5.616  2.4008  0.0430  0.8450
 8999TIP3    H251193   6.958   6.189   5.660  0.8051 -0.0993  0.5447
 9000TIP3   OH251194   1.736   2.938   6.919 -0.8433  0.0859 -0.4894
 9000TIP3    H151195   1.818   2.984   6.904 -1.5229  1.0086 -1.5651
 9000TIP3    H251196   1.761   2.859   6.968  0.5471  0.8001  0.0084
 9001TIP3   OH251197   2.468   0.662   6.111  0.0724  0.1072  0.2122
 9001TIP3    H151198   2.445   0.755   6.115 -0.9601 -0.0538 -1.2896
 9001TIP3    H251199   2.438   0.634   6.025 -0.9081 -1.9601  1.1756
 9002TIP3   OH251200   5.356   6.627   6.828  0.3238  0.4010  0.1318
 9002TIP3    H151201   5.305   6.566   6.882 -0.8045  1.0255 -0.2045
 9002TIP3    H251202   5.367   6.581   6.745  0.1874  0.3130  0.1616
 9003TIP3   OH251203   2.005   5.427   5.982 -0.3350 -0.0718 -0.2419
 9003TIP3    H151204   2.005   5.348   6.036  0.1794  0.3488  0.3902
 9003TIP3    H251205   1.953   5.490   6.031 -0.2975  0.1529 -0.4863
 9004TIP3   OH251206   2.735   3.680   6.494  0.5700 -0.2945 -0.1152
 9004TIP3    H151207   2.736   3.736   6.572 -0.4983  0.4293 -0.6035
 9004TIP3    H251208   2.757   3.738   6.422  0.4735 -0.7251 -0.4961
 9005TIP3   OH251209   3.461   1.495   6.987  0.4149 -0.4014 -0.6944
 9005TIP3    H151210   3.426   1.462   6.904 -0.8931 -0.3488 -0.1832
 9005TIP3    H251211   3.506   1.576   6.963  3.1894 -2.1386 -1.8828
 9006TIP3   OH251212   6.292   5.293   7.291  0.2601 -0.4479  0.8127
 9006TIP3    H151213   6.288   5.335   7.377 -1.7202  0.1365  0.4815
 9006TIP3    H251214   6.251   5.356   7.231  0.6899 -1.2643 -0.3767
 9007TIP3   OH251215   1.455   7.392   5.784 -0.4192 -0.0862 -0.1691
 9007TIP3    H151216   1.445   7.398   5.689 -0.1392 -0.0938 -0.1998
 9007TIP3    H251217   1.464   7.299   5.802  2.2505  0.0516 -0.4297
 9008TIP3   OH251218   4.787   3.108   4.883  0.0981 -0.5066 -0.6459
 9008TIP3    H151219   4.777   3.062   4.967 -0.7408 -0.4701 -0.7092
 9008TIP3    H251220   4.874   3.085   4.852  0.1612 -1.0519 -0.0759
 9009TIP3   OH251221   0.663   6.345   5.436 -0.1232 -0.6272 -0.0896
 9009TIP3    H151222   0.611   6.281   5.388 -0.5712  0.4916 -1.1750
 9009TIP3    H251223   0.753   6.332   5.406  0.5301 -3.2259  2.5147
 9010TIP3   OH251224   1.798   0.228   7.033 -0.0480  0.3187  0.1533
 9010TIP3    H151225   1.801   0.289   7.107 -1.0406  1.4668 -0.7168
 9010TIP3    H251226   1.810   0.142   7.073 -1.0584  0.8623  1.7249
 9011TIP3   OH251227   0.337   4.956   4.952  0.0118  0.0491 -0.7282
 9011TIP3    H151228   0.372   4.936   5.039  1.1153 -0.2929 -1.2306
 9011TIP3    H251229   0.279   4.882   4.932  0.5247 -0.3693 -0.6883
 9012TIP3   OH251230   0.972   1.731   5.050  0.2289 -0.0208  0.5094
 9012TIP3    H151231   0.904   1.668   5.029 -0.3056  0.6357  0.2275
 9012TIP3    H251232   1.021   1.743   4.969  0.1350  0.1570  0.4781
 9013TIP3   OH251233   7.570   5.794   4.719  0.3575  0.3594  0.2152
 9013TIP3    H151234   7.613   5.767   4.638 -1.6126  0.0782 -0.7890
 9013TIP3    H251235   7.619   5.750   4.788  0.9934 -0.8275 -0.9476
 9014TIP3   OH251236   3.678   6.245   5.628  0.1023 -0.1680 -0.0256
 9014TIP3    H151237   3.710   6.206   5.547  1.1638  1.1771 -0.2701
 9014TIP3    H251238   3.703   6.337   5.623 -0.5545  0.1227  1.4564
 9015TIP3   OH251239   4.280   6.173   7.105  0.0186 -0.2198 -0.2471
 9015TIP3    H151240   4.340   6.244   7.129  1.4009 -0.8546 -1.6681
 9015TIP3    H251241   4.200   6.192   7.154  1.4147  0.5509  1.8668
 9016TIP3   OH251242   5.386   2.187   6.905  0.1830  0.3797 -0.2145
 9016TIP3    H151243   5.464   2.139   6.875 -0.3930  0.3812 -1.8079
 9016TIP3    H251244   5.411   2.279   6.898  0.0429  0.3804 -0.7357
 9017TIP3   OH251245   3.766   2.284   4.734 -0.6843  0.1541 -0.2999
 9017TIP3    H151246   3.686   2.334   4.721 -2.6360 -1.9982  2.1977
 9017TIP3    H251247   3.760   2.211   4.672  0.5929  1.1842 -1.7234
 9018TIP3   OH251248   0.388   3.873   5.689 -0.4336  0.3262  0.2715
 9018TIP3    H151249   0.422   3.798   5.641 -0.0739  0.3620  0.4694
 9018TIP3    H251250   0.451   3.943   5.672 -0.5703  0.4812  0.3911
 9019TIP3   OH251251   0.052   3.804   6.065  0.1256 -0.2103 -0.0450
 9019TIP3    H151252   0.035   3.861   5.990 -0.0512 -0.7891 -0.4500
 9019TIP3    H251253   0.062   3.864   6.139  1.5734  0.4649 -0.7419
 9020TIP3   OH251254   5.730   4.601   6.434  0.0805  0.1510 -0.2284
 9020TIP3    H151255   5.796   4.542   6.397 -0.4940 -0.3413 -0.4899
 9020TIP3    H251256   5.740   4.683   6.384 -0.0095 -0.1719 -0.7914
 9021TIP3   OH251257   2.735   4.922   4.894  0.6190 -0.9053  0.3720
 9021TIP3    H151258   2.736   4.832   4.860  0.5800 -0.3180 -1.2707
 9021TIP3    H251259   2.652   4.958   4.864  1.7742  0.5016 -1.3644
 9022TIP3   OH251260   7.320   5.327   5.490 -0.0968 -0.6768 -0.4807
 9022TIP3    H151261   7.291   5.236   5.484 -0.4934 -0.4406 -3.2197
 9022TIP3    H251262   7.240   5.376   5.508 -0.2048 -0.7153 -0.8398
 9023TIP3   OH251263   0.170   2.769   5.715 -0.5637 -0.1911  0.2438
 9023TIP3    H151264   0.154   2.845   5.658  1.7129  0.3692  0.2628
 9023TIP3    H251265   0.125   2.697   5.671 -3.0842  1.1873  0.4039
 9024TIP3   OH251266   7.244   3.971   4.537  0.0173  0.2167  0.1733
 9024TIP3    H151267   7.164   3.969   4.590 -0.3924  0.4209 -0.4315
 9024TIP3    H251268   7.213   3.962   4.447  0.7894 -1.3538  0.0342
 9025TIP3   OH251269   0.767   2.611   5.197  0.5880 -0.3634 -0.5576
 9025TIP3    H151270   0.724   2.648   5.120 -0.3707  0.2633  0.2516
 9025TIP3    H251271   0.699   2.611   5.265  1.6297 -0.0882  0.5250
 9026TIP3   OH251272   3.290   5.516   6.122  0.4432 -0.1408 -0.1946
 9026TIP3    H151273   3.213   5.477   6.164  2.3640 -3.1657  0.8509
 9026TIP3    H251274   3.287   5.483   6.032  1.1339 -1.3069  0.1958
 9027TIP3   OH251275   7.098   7.588   6.332 -0.2680  0.2061  0.1275
 9027TIP3    H151276   7.161   7.518   6.344 -1.2715 -0.8410 -0.5905
 9027TIP3    H251277   7.141   7.665   6.370  1.4738 -0.4396 -0.4545
 9028TIP3   OH251278   1.567   1.869   5.682  0.0713 -0.7455  0.2347
 9028TIP3    H151279   1.604   1.788   5.647 -1.1683 -0.1716 -2.6981
 9028TIP3    H251280   1.477   1.871   5.649  0.0791  1.8377  0.1496
 9029TIP3   OH251281   6.208   4.025   5.686  0.2487 -0.3265 -0.1097
 9029TIP3    H151282   6.256   3.945   5.708 -0.5986 -0.8364 -0.0645
 9029TIP3    H251283   6.119   4.008   5.715  0.2610  1.0302  0.7925
 9030TIP3   OH251284   7.173   5.877   6.349  0.4148 -0.1228 -0.0253
 9030TIP3    H151285   7.110   5.854   6.281  0.2881  1.4459 -0.4542
 9030TIP3    H251286   7.130   5.850   6.431 -1.0410  1.3042 -0.2708
 9031TIP3   OH251287   1.613   3.283   6.124  0.2280  0.2709 -0.1757
 9031TIP3    H151288   1.633   3.376   6.136  0.2962  0.1883  0.3602
 9031TIP3    H251289   1.524   3.282   6.088 -0.2595  0.5073  0.9680
 9032TIP3   OH251290   2.965   4.452   5.251  0.2257 -0.5358  0.4449
 9032TIP3    H151291   2.906   4.479   5.321 -0.2929  1.7361 -0.7635
 9032TIP3    H251292   2.925   4.373   5.215 -1.5729  0.3931  0.2988
 9033TIP3   OH251293   4.975   3.808   4.883  0.3990 -0.1362 -0.1880
 9033TIP3    H151294   4.908   3.862   4.840 -1.3578 -1.5198  0.6877
 9033TIP3    H251295   4.928   3.730   4.912  2.3393 -1.0016  0.8052
 9034TIP3   OH251296   5.928   7.371   4.945  0.0433  0.3943  0.0359
 9034TIP3    H151297   5.863   7.328   5.000 -0.9927  0.3276 -1.1819
 9034TIP3    H251298   5.988   7.413   5.006 -1.1449  0.4576  1.1962
 9035TIP3   OH251299   0.452   4.923   5.184  0.1435  0.6827 -0.4329
 9035TIP3    H151300   0.410   4.958   5.263 -1.7086  1.1430 -1.5460
 9035TIP3    H251301   0.457   4.829   5.199 -1.5031  0.5877 -0.3145
 9036TIP3   OH251302   6.948   2.999   5.361  0.0251  0.0881  0.2624
 9036TIP3    H151303   6.907   3.049   5.431  0.7714  0.8667  0.1465
 9036TIP3    H251304   6.967   2.914   5.401 -1.5921 -0.2689  0.3483
 9037TIP3   OH251305   7.250   4.607   4.662  0.4366  0.0178 -0.0953
 9037TIP3    H151306   7.222   4.536   4.604 -0.9852  0.8751 -0.5171
 9037TIP3    H251307   7.184   4.676   4.649 -0.2859  0.0425  2.9351
 9038TIP3   OH251308   6.962   4.333   5.708  0.1098  0.1411 -0.3329
 9038TIP3    H151309   7.047   4.314   5.748  0.8073  0.1457 -1.7454
 9038TIP3    H251310   6.898   4.301   5.771  1.1673 -0.5330  0.4309
 9039TIP3   OH251311   0.300   1.299   5.142 -0.0650  0.2066 -0.3077
 9039TIP3    H151312   0.394   1.298   5.159 -0.2857 -1.2202  1.0473
 9039TIP3    H251313   0.275   1.207   5.135 -1.0144  0.5606 -3.0637
 9040TIP3   OH251314   0.778   6.050   5.599 -0.4064 -0.2251  0.1417
 9040TIP3    H151315   0.793   6.145   5.591  2.2062 -0.7179 -2.6948
 9040TIP3    H251316   0.820   6.026   5.681  2.8401  0.5596 -1.1559
 9041TIP3   OH251317   7.271   3.652   5.255 -0.0300  0.1964  0.9087
 9041TIP3    H151318   7.281   3.747   5.251  2.6106 -0.0292  0.3174
 9041TIP3    H251319   7.316   3.626   5.335  0.2441 -0.6502  0.4853
 9042TIP3   OH251320   1.214   6.397   7.597 -0.3484  0.0888  0.4879
 9042TIP3    H151321   1.303   6.370   7.618 -0.4324 -0.0561  0.6693
 9042TIP3    H251322   1.215   6.413   7.503 -0.5025 -1.3740  0.2136
 9043TIP3   OH251323   2.384   3.547   5.700 -0.2060  0.5093 -0.0764
 9043TIP3    H151324   2.389   3.512   5.789  0.8075 -0.8465 -0.6391
 9043TIP3    H251325   2.291   3.540   5.677 -0.6128  1.5667  1.1143
 9044TIP3   OH251326   1.590   2.186   5.625 -0.0640 -0.5654  0.3769
 9044TIP3    H151327   1.513   2.204   5.571  0.6868  0.2370 -0.4521
 9044TIP3    H251328   1.592   2.091   5.634 -0.3244 -0.6941 -0.8330
 9045TIP3   OH251329   2.837   0.875   6.407 -0.0875  0.0878 -0.0910
 9045TIP3    H151330   2.836   0.954   6.354 -0.1718  1.3658  1.7227
 9045TIP3    H251331   2.744   0.853   6.418 -0.0476 -0.5894 -1.0266
 9046TIP3   OH251332   0.991   5.967   6.477  0.2646 -0.1659 -0.7421
 9046TIP3    H151333   0.974   5.954   6.384  3.8585 -0.2581 -1.5285
 9046TIP3    H251334   1.016   6.059   6.484  0.3542 -0.2437  0.0725
 9047TIP3   OH251335   1.582   3.567   5.473  0.5206  0.2378 -0.5992
 9047TIP3    H151336   1.640   3.491   5.479  0.1108 -0.0903 -0.7651
 9047TIP3    H251337   1.578   3.587   5.379 -1.2793 -1.0322 -0.8270
 9048TIP3   OH251338   6.372   6.141   6.417  0.5377 -0.3082  0.0340
 9048TIP3    H151339   6.346   6.085   6.490 -1.6682 -0.4672 -0.7761
 9048TIP3    H251340   6.426   6.209   6.457 -0.6629 -0.3517  1.8510
 9049TIP3   OH251341   3.803   4.660   7.002 -0.4936 -0.1265 -0.0241
 9049TIP3    H151342   3.892   4.635   7.026 -0.3737 -0.1026 -0.4333
 9049TIP3    H251343   3.804   4.664   6.906 -0.3638  1.8940  0.0065
 9050TIP3   OH251344   1.044   6.833   6.481  0.5912  0.2775  0.3425
 9050TIP3    H151345   1.077   6.884   6.407  2.1941 -2.1130 -0.7066
 9050TIP3    H251346   1.111   6.840   6.548  1.4598 -1.3702 -0.2917
 9051TIP3   OH251347   7.147   2.964   5.977 -0.6161 -0.1043 -0.4278
 9051TIP3    H151348   7.220   3.019   5.947 -1.2166  0.1613 -1.4574
 9051TIP3    H251349   7.084   3.027   6.013 -1.8286  0.0601 -2.6903
 9052TIP3   OH251350   2.891   6.028   6.485  0.1369 -0.0170  0.1279
 9052TIP3    H151351   2.902   6.034   6.390  0.8988 -2.8453 -0.0535
 9052TIP3    H251352   2.905   5.935   6.505  0.2783  0.5417  3.0531
 9053TIP3   OH251353   4.363   2.562   5.993 -0.3760 -0.5197 -0.3283
 9053TIP3    H151354   4.427   2.630   6.010 -0.2667 -0.8206  0.5256
 9053TIP3    H251355   4.281   2.609   5.976 -0.2980 -0.1820  0.2337
 9054TIP3   OH251356   3.051   1.345   5.255 -0.4073  0.4385 -0.1195
 9054TIP3    H151357   3.092   1.426   5.223 -0.2694  1.3717  2.2429
 9054TIP3    H251358   2.981   1.375   5.313  0.8251 -1.0570  2.2961
 9055TIP3   OH251359   0.661   6.457   5.698 -0.1048  0.1579 -0.0126
 9055TIP3    H151360   0.667   6.411   5.614  1.8759 -0.0756  0.2274
 9055TIP3    H251361   0.723   6.529   5.691  0.1263  0.1035  1.2810
 9056TIP3   OH251362   3.524   2.987   4.840 -0.1787 -0.3737  0.1505
 9056TIP3    H151363   3.437   3.017   4.816  0.6891 -0.7748 -4.2020
 9056TIP3    H251364   3.564   3.062   4.884 -2.0289  0.4843  0.4620
 9057TIP3   OH251365   4.801   4.964   5.936 -0.6272  0.1636  0.2499
 9057TIP3    H151366   4.847   4.918   5.865 -2.6245  2.1756 -2.5822
 9057TIP3    H251367   4.861   5.034   5.962 -0.6842  0.6984 -0.9992
 9058TIP3   OH251368   7.131   6.709   6.664 -0.2009  0.6136 -0.2204
 9058TIP3    H151369   7.063   6.654   6.627 -0.0463  0.5740 -0.4506
 9058TIP3    H251370   7.114   6.796   6.627  1.1312  0.1790 -2.0133
 9059TIP3   OH251371   7.251   7.329   6.354  0.0493 -0.5910 -0.0133
 9059TIP3    H151372   7.289   7.241   6.350 -1.8744 -1.4282 -0.8375
 9059TIP3    H251373   7.159   7.314   6.376  0.1270  1.3672  2.0397
 9060TIP3   OH251374   0.219   2.510   7.082  0.4263  0.2780 -0.7583
 9060TIP3    H151375   0.284   2.441   7.075  1.1606  0.8598  0.1560
 9060TIP3    H251376   0.242   2.557   7.162 -0.6173  1.0074 -0.8684
 9061TIP3   OH251377   2.926   2.428   4.991 -0.3075  0.0597  0.0029
 9061TIP3    H151378   2.868   2.493   5.031  0.0375  0.1778  0.3175
 9061TIP3    H251379   2.873   2.386   4.924 -0.7479  0.1865  0.2729
 9062TIP3   OH251380   0.841   1.909   6.315  0.1950  0.3487  0.4943
 9062TIP3    H151381   0.901   1.835   6.322  0.7248  0.8580  1.8063
 9062TIP3    H251382   0.859   1.947   6.229 -0.5316 -1.3791 -0.4566
 9063TIP3   OH251383   3.057   0.005   5.212  0.2789 -0.9809 -0.1399
 9063TIP3    H151384   3.079  -0.061   5.278 -0.7882 -1.5859 -0.3737
 9063TIP3    H251385   3.096   0.085   5.245 -1.2081 -0.9958  1.8506
 9064TIP3   OH251386   6.320   7.580   6.964 -0.3462 -0.5007  0.3609
 9064TIP3    H151387   6.281   7.646   7.020 -0.1581  0.3550 -0.4920
 9064TIP3    H251388   6.336   7.505   7.022 -0.5189  0.2107  1.3475
 9065TIP3   OH251389   4.187   4.134   6.992 -0.1519  0.0512 -0.5291
 9065TIP3    H151390   4.211   4.043   7.012 -1.4201  0.1858  2.0145
 9065TIP3    H251391   4.093   4.130   6.972 -0.6135  0.9386  1.2435
 9066TIP3   OH251392   0.763   4.905   6.157 -0.0390  0.6357 -0.0790
 9066TIP3    H151393   0.788   4.965   6.087  0.4905 -2.0527 -2.4154
 9066TIP3    H251394   0.845   4.882   6.200 -0.1936  1.2764  0.5724
 9067TIP3   OH251395   0.236   4.627   5.350 -0.4166 -0.0527  0.3606
 9067TIP3    H151396   0.256   4.550   5.404  0.8474  1.2009  1.7887
 9067TIP3    H251397   0.320   4.672   5.342 -0.8309  0.4423 -1.6890
 9068TIP3   OH251398   2.823   6.513   5.583  0.0547 -0.4582  0.8663
 9068TIP3    H151399   2.768   6.527   5.660 -0.2718 -0.9726  0.7312
 9068TIP3    H251400   2.819   6.419   5.568  0.9252 -0.4998  0.8212
 9069TIP3   OH251401   7.569   0.419   6.974 -0.2284 -0.1253 -0.4834
 9069TIP3    H151402   7.551   0.356   7.044  0.9495  1.2767  1.1654
 9069TIP3    H251403   7.500   0.403   6.910 -2.1522 -0.6382  1.5667
 9070TIP3   OH251404   6.894   1.829   6.060 -0.4442  0.2291  0.5891
 9070TIP3    H151405   6.958   1.787   6.004 -0.3391 -0.8468  1.4906
 9070TIP3    H251406   6.834   1.759   6.085 -2.0956  1.2278 -0.3568
 9071TIP3   OH251407   7.266   1.183   5.298  0.0385 -0.2026  0.1767
 9071TIP3    H151408   7.293   1.198   5.207  1.8189  0.6723  0.8149
 9071TIP3    H251409   7.282   1.090   5.313  0.7256 -0.1337 -0.1001
 9072TIP3   OH251410   0.718   6.648   4.646 -0.5033  0.2631  0.3976
 9072TIP3    H151411   0.625   6.666   4.644 -0.6734 -0.5894 -1.2302
 9072TIP3    H251412   0.744   6.664   4.737 -1.9602  1.7012  0.6034
 9073TIP3   OH251413   0.678   3.401   5.716 -0.4310 -0.0720  0.4599
 9073TIP3    H151414   0.766   3.364   5.707 -0.6719 -0.6027  0.2142
 9073TIP3    H251415   0.691   3.496   5.719  0.1956 -0.1689  1.0152
 9074TIP3   OH251416   2.461   1.091   5.297 -0.1711 -0.1824 -0.3231
 9074TIP3    H151417   2.366   1.090   5.294 -0.1587 -0.2719 -0.9290
 9074TIP3    H251418   2.488   1.062   5.210  0.4244 -1.4365  0.2527
 9075TIP3   OH251419   2.526   7.643   7.112  0.1911  0.5644  0.2117
 9075TIP3    H151420   2.520   7.591   7.032 -0.6981  2.0656 -0.7447
 9075TIP3    H251421   2.516   7.579   7.183  1.6991 -0.9001 -0.8229
 9076TIP3   OH251422   6.474   5.604   5.890 -0.3687  0.3310 -0.6629
 9076TIP3    H151423   6.424   5.630   5.967 -1.0976  0.0614 -1.0295
 9076TIP3    H251424   6.536   5.676   5.876 -2.0892  1.7608 -1.4321
 9077TIP3   OH251425   4.082   1.211   4.869  0.6893  0.6501  0.3926
 9077TIP3    H151426   4.081   1.307   4.862 -1.7702  0.8530  2.3155
 9077TIP3    H251427   4.163   1.192   4.916  0.5493  1.9428  1.2136
 9078TIP3   OH251428   6.036   4.906   5.347  0.0173  0.2362  0.4332
 9078TIP3    H151429   6.031   4.955   5.429  0.1205  1.0698 -0.0412
 9078TIP3    H251430   5.966   4.943   5.293  1.0470  0.9098 -0.4732
 9079TIP3   OH251431   3.986   0.945   6.495 -0.0865 -0.0783  0.3655
 9079TIP3    H151432   4.038   0.962   6.417 -0.2538  0.5683  0.3846
 9079TIP3    H251433   3.901   0.915   6.461 -0.5689  1.3578  0.2467
 9080TIP3   OH251434   3.319   5.311   4.754  0.5616  0.0778  0.2359
 9080TIP3    H151435   3.376   5.380   4.722  0.1720 -0.2920 -1.3870
 9080TIP3    H251436   3.308   5.253   4.678 -3.1317  0.9078 -0.0539
 9081TIP3   OH251437   4.778   4.728   6.455 -0.3289 -0.2914 -0.1610
 9081TIP3    H151438   4.772   4.783   6.534  0.2802 -0.8949  0.3153
 9081TIP3    H251439   4.691   4.689   6.446 -0.0088 -1.3166  1.0287
 9082TIP3   OH251440   0.075   1.895   7.017 -0.8923 -0.0995  0.2598
 9082TIP3    H151441   0.025   1.851   7.086 -1.6117 -0.1161 -0.2703
 9082TIP3    H251442   0.096   1.825   6.955 -1.6500  0.2146 -0.3552
 9083TIP3   OH251443   4.999   1.811   6.857 -0.4044 -0.1035  0.0245
 9083TIP3    H151444   5.032   1.899   6.835 -2.6957  0.2812 -2.3243
 9083TIP3    H251445   5.052   1.752   6.803 -0.8291  0.1291 -0.6560
 9084TIP3   OH251446   2.280   7.542   5.289 -0.6979 -0.4543 -0.2136
 9084TIP3    H151447   2.240   7.510   5.369 -0.8353 -0.0563 -0.1202
 9084TIP3    H251448   2.213   7.596   5.247 -0.6549 -0.7270 -0.6371
 9085TIP3   OH251449   1.585   7.253   6.568 -0.2359 -0.0061  0.2934
 9085TIP3    H151450   1.544   7.173   6.535  1.7541 -1.0461  0.1758
 9085TIP3    H251451   1.525   7.323   6.543 -0.9588 -1.2254 -1.6175
 9086TIP3   OH251452   0.868   5.553   7.365  0.2311 -0.4327  0.2154
 9086TIP3    H151453   0.892   5.645   7.371 -0.0539 -0.2948 -0.5721
 9086TIP3    H251454   0.801   5.541   7.433  0.3307 -0.0799  0.3777
 9087TIP3   OH251455   2.167   4.295   5.254 -0.2329 -0.4025 -0.1302
 9087TIP3    H151456   2.088   4.301   5.309 -0.1923  1.2523 -0.2065
 9087TIP3    H251457   2.238   4.278   5.316 -0.3472  0.3562  0.2239
 9088TIP3   OH251458   4.253   2.368   5.219  0.5261 -0.0214 -0.2803
 9088TIP3    H151459   4.274   2.461   5.211  1.9511 -0.3624 -0.7523
 9088TIP3    H251460   4.297   2.340   5.300  1.1218 -0.5441 -0.7777
 9089TIP3   OH251461   6.051   6.361   4.863 -0.0973 -0.2020  0.2966
 9089TIP3    H151462   6.021   6.396   4.948 -0.0386 -0.5313  0.4545
 9089TIP3    H251463   6.077   6.271   4.883  0.2956 -0.1496  0.0047
 9090TIP3   OH251464   2.409   2.176   5.635  0.0576  0.5103 -0.0309
 9090TIP3    H151465   2.322   2.154   5.668  0.4152  0.2454  0.7553
 9090TIP3    H251466   2.467   2.112   5.675  0.9189  1.9766  1.2078
 9091TIP3   OH251467   5.690   6.342   6.042 -0.5519 -0.1379  0.0124
 9091TIP3    H151468   5.764   6.395   6.014 -0.2160 -0.1090  0.9473
 9091TIP3    H251469   5.708   6.321   6.133 -1.1463 -1.0664 -0.0676
 9092TIP3   OH251470   3.445   5.558   4.785  0.6093  0.2094 -0.1592
 9092TIP3    H151471   3.391   5.627   4.746 -0.3432 -1.5591 -2.1755
 9092TIP3    H251472   3.534   5.576   4.755  0.3054  0.3651 -0.9878
 9093TIP3   OH251473   6.238   5.253   5.657  0.1079 -0.0226 -0.6654
 9093TIP3    H151474   6.258   5.341   5.688  2.7781 -1.1723  1.3221
 9093TIP3    H251475   6.294   5.241   5.580 -0.9717  0.3046 -1.5218
 9094TIP3   OH251476   7.223   1.056   6.430 -0.3415 -0.1818 -0.2790
 9094TIP3    H151477   7.314   1.033   6.410  1.0078 -0.3346  4.7966
 9094TIP3    H251478   7.219   1.150   6.414  1.0597  0.0225  0.3916
 9095TIP3   OH251479   5.194   1.427   6.243  0.0251  0.1316 -0.3390
 9095TIP3    H151480   5.241   1.495   6.293 -0.6854  0.1728  0.2929
 9095TIP3    H251481   5.170   1.471   6.162  1.3432  0.0153 -0.8148
 9096TIP3   OH251482   4.775   7.560   6.339 -0.5695 -0.3014  0.3915
 9096TIP3    H151483   4.784   7.613   6.418  0.1926  0.4430 -0.1829
 9096TIP3    H251484   4.839   7.489   6.350 -0.0441  0.1379  0.1770
 9097TIP3   OH251485   3.331   6.580   5.853 -0.2066 -0.2845 -0.5553
 9097TIP3    H151486   3.379   6.593   5.935 -0.3480 -1.3542 -0.2787
 9097TIP3    H251487   3.393   6.602   5.784  1.1666 -2.7735 -0.2474
 9098TIP3   OH251488   5.939   4.054   6.866 -0.1584 -0.3073  0.2268
 9098TIP3    H151489   5.900   4.011   6.942  1.0316 -2.4635 -0.3010
 9098TIP3    H251490   6.033   4.058   6.887  0.1432 -0.6726 -0.9722
 9099TIP3   OH251491   3.925   7.001   6.357  0.2660  0.2192  0.5259
 9099TIP3    H151492   3.843   7.011   6.309  0.4501 -0.4564  0.0449
 9099TIP3    H251493   3.926   6.909   6.383  2.3202 -0.7118 -2.2675
 9100TIP3   OH251494   1.856   0.435   5.264 -0.1910 -0.0484  0.3083
 9100TIP3    H151495   1.911   0.514   5.267 -2.8122  1.8616  1.6140
 9100TIP3    H251496   1.835   0.417   5.355 -1.1398 -1.1869 -0.1098
 9101TIP3   OH251497   2.804   6.866   7.167 -0.3425 -0.4701  0.1332
 9101TIP3    H151498   2.711   6.887   7.158 -0.4775 -0.1561  1.8724
 9101TIP3    H251499   2.807   6.803   7.239  0.8603  0.1025  0.6000
 9102TIP3   OH251500   1.766   0.988   5.863 -0.5624  0.0645 -0.3452
 9102TIP3    H151501   1.824   1.007   5.936 -1.2427  0.1861  0.1824
 9102TIP3    H251502   1.820   0.940   5.800  0.0491  0.0126  0.2107
 9103TIP3   OH251503   3.391   1.246   5.438 -0.2123 -0.1044 -0.2979
 9103TIP3    H151504   3.349   1.277   5.517  1.1024  0.2931  0.2765
 9103TIP3    H251505   3.322   1.199   5.391 -0.8463 -0.9658  1.4085
 9104TIP3   OH251506   1.660   0.378   8.267 -0.3550  0.4235 -0.0649
 9104TIP3    H151507   1.608   0.321   8.211 -1.1513  1.2711 -0.2155
 9104TIP3    H251508   1.750   0.366   8.238 -0.3766 -1.4524  0.5308
 9105TIP3   OH251509   0.061   6.911   5.495 -0.3504  0.5784  0.4434
 9105TIP3    H151510   0.109   6.835   5.530 -0.0661  1.2162  1.4753
 9105TIP3    H251511   0.121   6.948   5.430  0.0120  0.6182  0.7969
 9106TIP3   OH251512   7.390   5.766   4.356 -0.2782  0.2964  0.0903
 9106TIP3    H151513   7.340   5.738   4.433 -0.2184 -0.0050  0.0222
 9106TIP3    H251514   7.341   5.840   4.321 -0.2433  0.5091  0.4876
 9107TIP3   OH251515   0.081   2.963   6.029  0.3028  0.0616 -0.7926
 9107TIP3    H151516   0.056   2.871   6.025  2.6769 -0.8467  1.9665
 9107TIP3    H251517   0.113   2.984   5.941 -0.6615 -1.5900 -1.5747
 9108TIP3   OH251518   6.657   4.350   6.240 -0.3228  0.5793 -0.0474
 9108TIP3    H151519   6.685   4.438   6.215  0.8530  0.9233  2.2620
 9108TIP3    H251520   6.699   4.334   6.325  1.1140 -2.9754 -1.2170
 9109TIP3   OH251521   6.434   0.757   6.885 -0.1913 -0.1358  0.0073
 9109TIP3    H151522   6.407   0.669   6.859 -0.9513  0.3705 -1.0041
 9109TIP3    H251523   6.488   0.788   6.812 -0.5822  0.5230 -0.0130
 9110TIP3   OH251524   4.592   3.320   5.785  0.1715 -0.1555 -0.3118
 9110TIP3    H151525   4.526   3.384   5.757  1.0322  1.0679  0.3507
 9110TIP3    H251526   4.585   3.319   5.880  2.3621  1.4776 -0.0452
 9111TIP3   OH251527   7.353   5.539   7.381 -0.2535  0.1190 -0.4790
 9111TIP3    H151528   7.321   5.621   7.418  1.6821  0.5390  0.3614
 9111TIP3    H251529   7.365   5.481   7.456  1.2814  0.1224 -0.6865
 9112TIP3   OH251530   3.616   4.169   7.145 -0.2284 -0.5218 -0.2111
 9112TIP3    H151531   3.664   4.183   7.227 -1.7357 -0.3139  0.6745
 9112TIP3    H251532   3.677   4.120   7.089  1.2310  0.2976  0.6155
 9113TIP3   OH251533   5.895   6.133   5.126 -0.7034  0.4389 -0.2667
 9113TIP3    H151534   5.826   6.075   5.093  0.1257 -0.1777 -0.9880
 9113TIP3    H251535   5.860   6.221   5.117 -1.2637  0.1520 -0.9434
 9114TIP3   OH251536   6.338   3.301   7.353 -0.7457  0.7401  0.5325
 9114TIP3    H151537   6.361   3.258   7.270  1.2947  0.0585  1.3840
 9114TIP3    H251538   6.252   3.267   7.375 -0.4272 -0.6770 -0.2958
 9115TIP3   OH251539   7.073   6.346   6.883  0.3001  0.5846  0.3795
 9115TIP3    H151540   7.139   6.383   6.824 -0.0908 -1.3150 -1.3444
 9115TIP3    H251541   7.124   6.320   6.961  1.7898 -1.3046 -1.1070
 9116TIP3   OH251542   0.873   2.443   4.870  0.1878 -0.0783  0.3525
 9116TIP3    H151543   0.794   2.401   4.903 -0.0969 -1.0435 -1.4271
 9116TIP3    H251544   0.842   2.510   4.810  0.7111  0.4878  0.6998
 9117TIP3   OH251545   3.342   1.046   6.317  0.2318 -0.0650 -0.3927
 9117TIP3    H151546   3.336   0.950   6.309  1.8551 -0.3743  1.4134
 9117TIP3    H251547   3.375   1.061   6.405  2.3538  2.0676 -1.4322
 9118TIP3   OH251548   6.709   6.559   5.816  0.1199  0.0726 -0.1231
 9118TIP3    H151549   6.696   6.475   5.859 -1.7337  1.0986  1.4667
 9118TIP3    H251550   6.800   6.557   5.786  0.1081 -2.4697 -0.1386
 9119TIP3   OH251551   3.620   6.053   6.125 -0.1556  0.3359  0.0919
 9119TIP3    H151552   3.683   6.053   6.053 -0.1201  0.6816  0.1237
 9119TIP3    H251553   3.655   5.990   6.188 -0.0425  0.2409 -0.0675
 9120TIP3   OH251554   6.856   7.293   7.462  0.1731 -0.2446 -0.3009
 9120TIP3    H151555   6.911   7.257   7.531  1.5309 -1.5707 -1.9838
 9120TIP3    H251556   6.917   7.319   7.393 -1.1820  0.1648 -1.3937
 9121TIP3   OH251557   0.577   2.679   4.967  0.0382  0.2805  0.2979
 9121TIP3    H151558   0.521   2.650   4.894 -0.8184 -0.7346  1.3248
 9121TIP3    H251559   0.627   2.752   4.931 -2.0730  1.3618 -0.6314
 9122TIP3   OH251560   7.350   4.123   5.716 -0.3202 -0.1523  0.0956
 9122TIP3    H151561   7.296   4.044   5.711 -0.0435 -0.3118 -0.6324
 9122TIP3    H251562   7.365   4.148   5.624 -0.4185  0.7610  0.3169
 9123TIP3   OH251563   6.282   7.678   6.251 -0.4813 -0.1365 -0.1128
 9123TIP3    H151564   6.290   7.759   6.301 -0.2469 -0.8466  1.0281
 9123TIP3    H251565   6.338   7.615   6.297 -3.0478 -1.8333  0.8677
 9124TIP3   OH251566   0.862   7.483   6.652  0.1771  0.0924 -0.5184
 9124TIP3    H151567   0.949   7.444   6.658  0.4017  0.6281 -0.1850
 9124TIP3    H251568   0.875   7.573   6.681 -0.8108 -0.2878  1.1820
 9125TIP3   OH251569   2.016   7.504   5.406 -0.3521  0.6928 -0.3816
 9125TIP3    H151570   1.973   7.589   5.397 -0.8878  0.3917 -0.7393
 9125TIP3    H251571   2.004   7.463   5.321 -0.4000  0.1155 -0.0974
 9126TIP3   OH251572   7.637   1.611   5.519 -0.6986 -0.2543  0.1608
 9126TIP3    H151573   7.603   1.689   5.476 -1.8524 -1.4155 -1.1491
 9126TIP3    H251574   7.717   1.640   5.562 -1.1182  1.6414 -0.2402
 9127TIP3   OH251575   0.125   4.690   5.806  0.0257  0.6807 -0.2233
 9127TIP3    H151576   0.106   4.732   5.890 -1.0083  3.7184 -1.8538
 9127TIP3    H251577   0.043   4.697   5.757  0.9348 -0.0281 -1.9018
 9128TIP3   OH251578   5.604   2.572   5.466  0.7802  0.5908  0.8535
 9128TIP3    H151579   5.641   2.486   5.483  0.7846  0.4058 -0.0296
 9128TIP3    H251580   5.651   2.631   5.525  1.4455  0.1341  0.7913
 9129TIP3   OH251581   1.057   0.773   4.866  0.2856  0.0568 -0.1120
 9129TIP3    H151582   1.036   0.715   4.793 -0.1722  0.6355 -0.4504
 9129TIP3    H251583   1.151   0.762   4.880  0.3697 -0.0807 -0.7698
 9130TIP3   OH251584   1.167   0.577   5.245 -0.1864  0.3368 -0.0229
 9130TIP3    H151585   1.100   0.531   5.194 -0.5462 -1.9291  2.3483
 9130TIP3    H251586   1.130   0.664   5.259 -1.7915 -0.2605 -0.3515
 9131TIP3   OH251587   7.551   5.233   5.682  0.1942 -0.0716 -0.7988
 9131TIP3    H151588   7.592   5.194   5.605  0.9944 -0.9028  0.0132
 9131TIP3    H251589   7.533   5.323   5.657  0.8473 -0.2079 -1.8026
 9132TIP3   OH251590   1.044   4.172   7.355 -0.0909 -0.3283 -0.4469
 9132TIP3    H151591   1.010   4.238   7.295  0.7171  0.9488  0.4516
 9132TIP3    H251592   0.968   4.145   7.407 -0.0908  1.4333  0.5677
 9133TIP3   OH251593   0.401   6.268   6.825  0.4401  0.3150  0.5136
 9133TIP3    H151594   0.445   6.309   6.751  0.5626  0.4603  0.6651
 9133TIP3    H251595   0.467   6.269   6.895 -0.1900  1.5961  1.1119
 9134TIP3   OH251596   1.690   0.426   6.394 -0.0363  0.1349  0.0335
 9134TIP3    H151597   1.646   0.483   6.331  0.9545  0.7869 -0.1065
 9134TIP3    H251598   1.757   0.483   6.434 -0.3491 -0.3932  1.3437
 9135TIP3   OH251599   7.626   6.088   7.086 -0.0961 -0.2586  0.4197
 9135TIP3    H151600   7.542   6.129   7.108 -0.0209  0.9861 -1.3607
 9135TIP3    H251601   7.619   6.069   6.992  1.2156 -1.1614  0.4762
 9136TIP3   OH251602   2.719   2.850   7.306 -0.0617 -0.6539  0.0185
 9136TIP3    H151603   2.660   2.887   7.240  0.8466 -0.7411 -0.8687
 9136TIP3    H251604   2.661   2.826   7.378 -0.7105  2.5841  0.7367
 9137TIP3   OH251605   1.612   6.666   6.244 -0.9418  0.1434 -0.5744
 9137TIP3    H151606   1.532   6.694   6.288 -1.2267  0.7975 -1.4942
 9137TIP3    H251607   1.647   6.596   6.301 -1.3347  0.9034  0.6403
 9138TIP3   OH251608   1.112   1.866   5.392  0.2680 -0.0925  0.3572
 9138TIP3    H151609   1.046   1.798   5.380  0.7017 -0.9387  2.2695
 9138TIP3    H251610   1.181   1.823   5.443  1.3232  1.3390  0.1973
 9139TIP3   OH251611   1.266   3.866   5.227  0.1931  0.0875  0.5341
 9139TIP3    H151612   1.350   3.863   5.181  0.0772 -0.7359  0.3506
 9139TIP3    H251613   1.221   3.941   5.190  1.5949  1.7455  1.9958
 9140TIP3   OH251614   2.341   0.929   6.065 -0.0985 -0.2158  0.0197
 9140TIP3    H151615   2.327   0.975   6.148  1.3517 -1.3010  0.9214
 9140TIP3    H251616   2.269   0.867   6.059  0.9278 -1.6684  1.6329
 9141TIP3   OH251617   5.767   5.217   4.772 -0.3266 -0.2325  0.3072
 9141TIP3    H151618   5.757   5.306   4.804  2.0926  0.0730  0.4209
 9141TIP3    H251619   5.826   5.224   4.696  0.5926 -1.7704  0.8111
 9142TIP3   OH251620   3.841   0.104   5.945  0.2838 -0.3245  0.4377
 9142TIP3    H151621   3.768   0.095   5.884  1.9260 -0.4249 -1.6282
 9142TIP3    H251622   3.886   0.020   5.941  0.1442 -0.5295  2.2693
 9143TIP3   OH251623   3.437   3.111   6.424 -0.1364  0.1783  0.4253
 9143TIP3    H151624   3.391   3.112   6.340 -0.8540 -3.5719  0.5940
 9143TIP3    H251625   3.367   3.108   6.489  0.3594 -0.6307  0.9390
 9144TIP3   OH251626   0.362   1.018   4.651  0.1184 -0.1703 -0.1276
 9144TIP3    H151627   0.380   0.965   4.574 -0.3266  1.0754 -1.1145
 9144TIP3    H251628   0.277   0.987   4.683  1.1242 -1.9484  0.9996
 9145TIP3   OH251629   2.993   5.381   6.482 -0.2712 -0.3689  0.3593
 9145TIP3    H151630   2.934   5.394   6.557 -1.6361 -1.6287 -0.4497
 9145TIP3    H251631   3.062   5.324   6.516 -0.0951  0.2021  1.0051
 9146TIP3   OH251632   2.009   4.853   5.249  0.0370  0.2774 -0.2933
 9146TIP3    H151633   1.927   4.816   5.214  0.2302  0.3106 -0.7911
 9146TIP3    H251634   1.981   4.933   5.295 -0.1764  0.4779 -0.7579
 9147TIP3   OH251635   0.762   6.013   5.292  0.5053  0.0240  0.0621
 9147TIP3    H151636   0.718   6.017   5.377  0.6467 -0.1126  0.1424
 9147TIP3    H251637   0.770   6.105   5.264 -1.9173 -0.0328 -1.0378
 9148TIP3   OH251638   7.271   5.056   5.523  0.4880  0.0688 -0.2043
 9148TIP3    H151639   7.313   4.976   5.492 -0.5292 -0.2390 -0.8262
 9148TIP3    H251640   7.269   5.047   5.618  3.6486  1.0149  0.0767
 9149TIP3   OH251641   0.005   5.097   5.930 -0.7081  0.0672 -0.0080
 9149TIP3    H151642  -0.042   5.141   5.860  1.8203 -0.2741 -2.0906
 9149TIP3    H251643  -0.060   5.039   5.970 -2.5642  1.2230 -1.1819
 9150TIP3   OH251644   2.632   3.368   4.500 -0.4171  0.1228  0.1078
 9150TIP3    H151645   2.568   3.437   4.519 -0.7690 -0.6211  1.7885
 9150TIP3    H251646   2.579   3.290   4.485  0.0495 -0.2539  0.4001
 9151TIP3   OH251647   6.400   4.049   6.104  0.2708 -0.0348  0.3670
 9151TIP3    H151648   6.375   3.959   6.085  1.2813 -0.5596  1.3788
 9151TIP3    H251649   6.358   4.101   6.036 -0.7052 -1.2184  0.0414
 9152TIP3   OH251650   3.252   2.765   6.756 -0.2003 -0.1988  0.0016
 9152TIP3    H151651   3.156   2.766   6.745 -0.1550 -0.7762 -0.5408
 9152TIP3    H251652   3.266   2.782   6.849 -0.7178  2.7390 -0.3578
 9153TIP3   OH251653   2.669   7.045   4.664 -0.0888 -0.4646  0.5756
 9153TIP3    H151654   2.628   7.125   4.696  0.4447  0.0745 -0.0567
 9153TIP3    H251655   2.730   7.075   4.596  0.3336 -1.3792  0.5400
 9154TIP3   OH251656   1.202   4.868   7.505 -1.0994  0.0942  0.2918
 9154TIP3    H151657   1.114   4.890   7.534 -0.8724  0.6120  0.5906
 9154TIP3    H251658   1.253   4.861   7.586 -0.3751  1.8892  0.0352
 9155TIP3   OH251659   2.944   5.352   5.619 -0.3639  0.6454 -0.3047
 9155TIP3    H151660   2.975   5.334   5.530 -0.3369  0.0623 -0.1788
 9155TIP3    H251661   2.867   5.408   5.606 -0.8752 -0.1464 -0.7333
 9156TIP3   OH251662   0.558   4.034   7.460  0.2272 -0.0726  0.0527
 9156TIP3    H151663   0.503   4.110   7.445 -0.4870 -0.3631  1.0675
 9156TIP3    H251664   0.502   3.974   7.510  1.1487 -0.7893  0.2423
 9157TIP3   OH251665   3.408   1.169   6.572 -0.0469 -0.0930  0.1171
 9157TIP3    H151666   3.459   1.134   6.645  0.6957  0.0638 -0.3148
 9157TIP3    H251667   3.455   1.248   6.546 -0.0457 -0.3866 -0.8072
 9158TIP3   OH251668   7.385   0.401   5.616 -0.5289 -0.0613 -0.1716
 9158TIP3    H151669   7.354   0.365   5.533  2.0616 -1.9568 -0.4244
 9158TIP3    H251670   7.332   0.357   5.683 -1.6276  0.3800 -0.7349
 9159TIP3   OH251671   4.663   4.572   5.009  0.0085 -0.3050 -0.0474
 9159TIP3    H151672   4.647   4.499   5.070  1.0330  0.4967  1.2548
 9159TIP3    H251673   4.712   4.533   4.937 -0.7102 -1.1778 -0.0728
 9160TIP3   OH251674   1.863   2.860   5.601 -0.2684  0.0788  0.0470
 9160TIP3    H151675   1.908   2.812   5.532 -0.2107 -1.1525  0.9025
 9160TIP3    H251676   1.859   2.798   5.674  0.4521  1.6240  1.4543
 9161TIP3   OH251677   0.474   4.233   6.421  0.0812 -0.0116  0.2858
 9161TIP3    H151678   0.569   4.221   6.428 -0.0803 -1.4837  0.3606
 9161TIP3    H251679   0.461   4.264   6.331  0.5945 -0.5047  0.0284
 9162TIP3   OH251680   1.982   0.176   4.414  0.2479  0.2429  0.2853
 9162TIP3    H151681   2.041   0.242   4.450 -0.4512  0.1450  1.6827
 9162TIP3    H251682   1.895   0.201   4.445 -0.1858 -0.6730 -0.1429
 9163TIP3   OH251683   1.164   3.594   5.619 -0.1041 -0.3620  0.0240
 9163TIP3    H151684   1.172   3.544   5.699  0.1651 -0.9907 -0.3893
 9163TIP3    H251685   1.122   3.535   5.557  0.7440 -0.2930 -0.6431
 9164TIP3   OH251686   0.638   2.238   6.148 -0.0441  0.0822  0.2123
 9164TIP3    H151687   0.667   2.227   6.058  0.8134 -2.2150  0.7018
 9164TIP3    H251688   0.575   2.168   6.162  0.8056 -0.4222  1.7665
 9165TIP3   OH251689   1.045   2.786   5.458 -0.1950  0.2018 -0.1940
 9165TIP3    H151690   1.108   2.731   5.411  1.2506 -0.3423  2.2422
 9165TIP3    H251691   1.067   2.876   5.431 -0.6887 -0.1602 -1.9718
 9166TIP3   OH251692   6.832   3.470   5.469 -0.1975  0.4428 -0.5677
 9166TIP3    H151693   6.773   3.515   5.409  1.0474  1.1831 -1.2802
 9166TIP3    H251694   6.801   3.493   5.556 -0.4314  1.5295 -0.9306
 9167TIP3   OH251695   1.160   3.679   5.058 -0.4404 -0.1470  0.1818
 9167TIP3    H151696   1.185   3.724   5.139  0.1861 -0.6208  0.2577
 9167TIP3    H251697   1.219   3.604   5.054  0.2911  0.4748 -1.2763
 9168TIP3   OH251698   2.163   6.739   7.232  0.3128 -0.5108  0.3002
 9168TIP3    H151699   2.068   6.742   7.240  0.2804  0.3527 -0.3490
 9168TIP3    H251700   2.179   6.730   7.138  0.8762 -0.3930  0.3814
 9169TIP3   OH251701   0.114   2.662   4.614 -0.1580  0.3462 -0.2086
 9169TIP3    H151702   0.078   2.629   4.697 -1.0806 -1.3496 -1.2288
 9169TIP3    H251703   0.070   2.746   4.601 -1.0656 -0.0271  0.3474
 9170TIP3   OH251704   4.190   2.463   7.028 -0.0648 -0.1989 -0.0641
 9170TIP3    H151705   4.122   2.499   6.972  1.2901  0.2769 -1.4973
 9170TIP3    H251706   4.174   2.369   7.027 -0.6708 -0.0976 -0.4473
 9171TIP3   OH251707   2.622   2.833   4.900  0.0224  0.8811 -0.4805
 9171TIP3    H151708   2.577   2.895   4.956 -0.3115 -1.7199  2.3875
 9171TIP3    H251709   2.554   2.773   4.870  0.9569 -1.3737  1.5361
 9172TIP3   OH251710   2.444   1.955   5.251  0.2010  0.1989 -0.5387
 9172TIP3    H151711   2.444   1.894   5.178  0.4618  1.5065 -1.6819
 9172TIP3    H251712   2.471   1.903   5.326  1.2562 -0.8979 -1.6376
 9173TIP3   OH251713   1.931   7.372   7.961  0.5083 -0.5079  0.0298
 9173TIP3    H151714   1.978   7.453   7.944 -0.1767  0.1707  1.1989
 9173TIP3    H251715   1.977   7.306   7.909  0.3686  0.8068 -1.8654
 9174TIP3   OH251716   0.343   6.389   6.315 -0.1880  0.1321 -0.1605
 9174TIP3    H151717   0.357   6.464   6.257 -2.8144  3.1872  2.7294
 9174TIP3    H251718   0.263   6.348   6.282 -1.4119  1.5762  0.8858
 9175TIP3   OH251719   4.856   5.993   6.007  0.1737 -0.4185  0.0662
 9175TIP3    H151720   4.937   5.944   6.014  0.8969  0.7065 -0.1268
 9175TIP3    H251721   4.882   6.084   6.019 -1.0924 -0.0563  0.2154
 9176TIP3   OH251722   7.392   2.990   5.375  0.1047  0.3511 -0.4815
 9176TIP3    H151723   7.461   3.037   5.329 -0.2396 -0.1106 -1.4822
 9176TIP3    H251724   7.312   3.036   5.352  0.0812  1.1345  0.9955
 9177TIP3   OH251725   2.575   0.497   4.979 -0.1930 -0.2132  0.0848
 9177TIP3    H151726   2.551   0.530   4.892 -3.0706  0.7360  1.1308
 9177TIP3    H251727   2.636   0.425   4.961  0.9566  1.2431 -2.5843
 9178TIP3   OH251728   3.416   6.672   6.104 -0.5843 -0.4528 -0.0491
 9178TIP3    H151729   3.399   6.760   6.070  2.7739 -0.3615 -1.9374
 9178TIP3    H251730   3.510   6.671   6.122 -0.4119 -3.7936 -0.5398
 9179TIP3   OH251731   6.432   1.844   6.788 -0.0940  0.0675 -0.0029
 9179TIP3    H151732   6.409   1.937   6.789 -1.9413 -0.3400 -1.2231
 9179TIP3    H251733   6.373   1.804   6.852 -2.5012 -0.8674 -2.6093
 9180TIP3   OH251734   3.903   5.692   4.945 -0.2014 -0.1029  0.1854
 9180TIP3    H151735   3.832   5.700   4.881  1.5603  1.9129 -1.6896
 9180TIP3    H251736   3.875   5.621   5.002 -3.7493  0.6101 -0.3784
 9181TIP3   OH251737   6.734   0.617   6.757 -0.1647 -0.0004  0.1424
 9181TIP3    H151738   6.683   0.536   6.762 -0.8469  0.4750  0.9726
 9181TIP3    H251739   6.771   0.627   6.845 -0.6045  0.9329  0.2229
 9182TIP3   OH251740   6.863   4.026   4.914 -0.0196 -0.5005  0.3823
 9182TIP3    H151741   6.911   4.054   4.992 -0.5931  1.7663  0.0011
 9182TIP3    H251742   6.781   4.075   4.917  0.4596  0.6635 -2.2576
 9183TIP3   OH251743   5.252   1.085   6.627  0.0133  0.0961 -0.0373
 9183TIP3    H151744   5.336   1.040   6.624  0.2017  0.4712 -0.4152
 9183TIP3    H251745   5.272   1.175   6.601 -0.4909  0.2036 -0.0591
 9184TIP3   OH251746   2.255   6.065   4.658  0.6633  0.3880 -0.2858
 9184TIP3    H151747   2.165   6.052   4.687  0.6734 -0.6145 -0.6622
 9184TIP3    H251748   2.302   5.988   4.689  1.9077  1.8633  1.7772
 9185TIP3   OH251749   2.591   0.201   5.582  0.2724  0.1035  0.1203
 9185TIP3    H151750   2.501   0.230   5.568  0.9694  1.8922 -0.9829
 9185TIP3    H251751   2.610   0.224   5.673 -0.2298  0.1557  0.2133
 9186TIP3   OH251752   2.804   1.552   6.167 -0.3196  0.1118 -0.6373
 9186TIP3    H151753   2.822   1.458   6.172  1.5340  0.4906  0.2848
 9186TIP3    H251754   2.860   1.583   6.095 -0.3593  0.6357 -0.4447
 9187TIP3   OH251755   0.980   2.590   5.058 -0.7842 -0.1346  0.4204
 9187TIP3    H151756   0.900   2.595   5.110 -0.8314  0.2456  0.3134
 9187TIP3    H251757   0.956   2.533   4.984 -0.9272 -0.1025  0.4406
 9188TIP3   OH251758   1.314   3.172   7.071  0.1397 -0.0604 -0.5693
 9188TIP3    H151759   1.226   3.138   7.088  0.5677 -1.7202 -1.3962
 9188TIP3    H251760   1.364   3.095   7.043  1.4441  1.1217 -1.6360
 9189TIP3   OH251761   5.671   2.768   4.709  0.3123 -0.0669 -0.6127
 9189TIP3    H151762   5.752   2.808   4.677  0.5349  0.0553  0.1003
 9189TIP3    H251763   5.618   2.842   4.739  0.1148 -0.1860 -0.6653
 9190TIP3   OH251764   5.583   7.466   6.619  0.3533 -0.2977  0.6586
 9190TIP3    H151765   5.671   7.495   6.593  0.3336  0.7476  1.6647
 9190TIP3    H251766   5.548   7.539   6.671 -1.7427 -0.0072 -1.0205
 9191TIP3   OH251767   6.673   7.307   6.587  0.3881  0.2276 -0.0214
 9191TIP3    H151768   6.614   7.322   6.661  0.0809  0.1537 -0.2483
 9191TIP3    H251769   6.705   7.394   6.564  0.4372  0.2577  0.1598
 9192TIP3   OH251770   4.224   0.419   4.896  0.2616  0.0312 -0.4833
 9192TIP3    H151771   4.180   0.478   4.835 -0.2706 -0.1895 -0.3271
 9192TIP3    H251772   4.152   0.372   4.939  0.5338  1.0414  1.1888
 9193TIP3   OH251773   2.781   6.103   7.408  0.3932  0.0899  0.0755
 9193TIP3    H151774   2.723   6.081   7.481  0.8948 -0.6228  0.2566
 9193TIP3    H251775   2.721   6.119   7.335 -0.0808  0.2553  0.4930
 9194TIP3   OH251776   3.415   3.018   6.009 -0.5779  0.0620 -0.1110
 9194TIP3    H151777   3.504   3.044   6.034 -0.5676  0.5929 -0.6656
 9194TIP3    H251778   3.423   2.988   5.918 -1.0137  0.4015 -0.2671
 9195TIP3   OH251779   4.899   1.369   6.152 -0.5257 -0.2836 -0.7131
 9195TIP3    H151780   4.870   1.326   6.072 -0.5357  0.1719 -0.9565
 9195TIP3    H251781   4.994   1.373   6.144 -0.2605 -2.5716  0.4806
 9196TIP3   OH251782   3.645   6.316   6.298 -0.0190  0.1266  0.1675
 9196TIP3    H151783   3.593   6.349   6.371 -0.0269  1.2696 -0.3223
 9196TIP3    H251784   3.618   6.225   6.287  0.8588 -0.4564  2.3592
 9197TIP3   OH251785   5.432   0.953   5.268  0.1380 -0.1551  0.2870
 9197TIP3    H151786   5.411   1.010   5.194  0.0309 -0.0852  0.3702
 9197TIP3    H251787   5.393   0.869   5.246 -0.0020 -0.0990  0.3220
 9198TIP3   OH251788   1.132   7.225   5.952 -0.2731 -0.0176 -0.0773
 9198TIP3    H151789   1.154   7.315   5.979  0.7764 -0.8057  1.8393
 9198TIP3    H251790   1.049   7.207   5.995 -0.4982  0.0143 -0.4871
 9199TIP3   OH251791   2.815   6.894   6.151 -0.0437  0.2926 -0.7703
 9199TIP3    H151792   2.810   6.867   6.059 -0.3958  0.4955 -0.8096
 9199TIP3    H251793   2.771   6.823   6.199 -1.7547  1.1891 -0.9503
 9200TIP3   OH251794   3.648   6.197   4.956 -0.1161 -0.6665 -0.1720
 9200TIP3    H151795   3.638   6.260   4.885 -0.1843 -1.3306 -0.7562
 9200TIP3    H251796   3.647   6.111   4.913 -0.2916 -1.0806  0.6423
 9201TIP3   OH251797   5.018   3.445   5.757  0.1970 -0.3292 -0.4099
 9201TIP3    H151798   4.974   3.464   5.840 -0.2827 -1.3573 -0.4064
 9201TIP3    H251799   4.948   3.411   5.701  0.5018  0.4375 -1.2681
 9202TIP3   OH251800   6.072   4.455   5.044 -0.5984  0.1503  0.1293
 9202TIP3    H151801   6.141   4.507   5.003 -0.0799 -0.3914  0.3006
 9202TIP3    H251802   6.040   4.509   5.116 -0.9935  0.7903 -0.5155
 9203TIP3   OH251803   7.113   0.020   5.105  0.8197  0.5923 -0.5070
 9203TIP3    H151804   7.117  -0.075   5.093  2.9648  0.4167  0.8676
 9203TIP3    H251805   7.020   0.040   5.114  0.3750 -1.5383  0.1796
 9204TIP3   OH251806   1.926   4.249   6.493  0.0929 -0.1915 -0.2130
 9204TIP3    H151807   1.894   4.339   6.490 -0.9025 -0.5473 -0.3880
 9204TIP3    H251808   1.880   4.210   6.567 -0.9437 -1.1013 -1.3109
 9205TIP3   OH251809   1.077   5.298   5.835 -0.0504  0.9909 -0.2655
 9205TIP3    H151810   1.159   5.266   5.873 -0.2752  0.6291 -0.0826
 9205TIP3    H251811   1.012   5.286   5.904 -0.3229  0.9661 -0.5265
 9206TIP3   OH251812   5.360   0.372   5.874 -0.0054 -0.1715  0.6040
 9206TIP3    H151813   5.349   0.289   5.829 -1.7464  0.6585 -0.5902
 9206TIP3    H251814   5.316   0.436   5.818 -1.9936  0.9853  3.2656
 9207TIP3   OH251815   2.375   2.195   5.361  0.3922  0.5896  0.1654
 9207TIP3    H151816   2.390   2.218   5.453  0.9394  1.5403 -0.1463
 9207TIP3    H251817   2.423   2.113   5.349  0.3197  0.4586  0.7204
 9208TIP3   OH251818   3.497   5.191   4.928  0.5502 -0.0965  0.0562
 9208TIP3    H151819   3.461   5.258   4.870  1.5712 -0.6468 -1.2809
 9208TIP3    H251820   3.423   5.135   4.949 -0.5296  1.9039  1.9572
 9209TIP3   OH251821   1.177   4.740   4.657 -0.5708 -0.8067 -0.2950
 9209TIP3    H151822   1.147   4.807   4.596 -3.6487 -2.8463 -1.2537
 9209TIP3    H251823   1.158   4.775   4.744  1.3915  1.0170 -0.5237
 9210TIP3   OH251824   3.535   3.974   5.499  0.1003 -0.2631  0.0902
 9210TIP3    H151825   3.478   4.020   5.560 -0.6813 -0.3697 -0.5421
 9210TIP3    H251826   3.560   3.893   5.545  0.4617  0.1886  0.7047
 9211TIP3   OH251827   7.337   5.716   4.827  0.4271 -0.3534 -0.1523
 9211TIP3    H151828   7.409   5.756   4.778  0.2442  0.9414  0.5837
 9211TIP3    H251829   7.366   5.716   4.918 -0.2699 -0.3274  0.0800
 9212TIP3   OH251830   4.519   4.595   6.504 -0.1206 -0.4551 -0.2439
 9212TIP3    H151831   4.516   4.591   6.600  0.1051  0.3882 -0.1963
 9212TIP3    H251832   4.438   4.552   6.476 -1.6847  1.8777  0.4170
 9213TIP3   OH251833   2.549   5.993   6.028  0.1923 -0.0781 -0.6008
 9213TIP3    H151834   2.585   5.946   6.104 -2.6034  0.2485  1.0779
 9213TIP3    H251835   2.584   5.947   5.952  3.3814 -0.2432  0.8060
 9214TIP3   OH251836   3.156   7.117   5.456  0.1360  0.8080  0.6689
 9214TIP3    H151837   3.111   7.141   5.375 -0.0467 -0.7215  0.2928
 9214TIP3    H251838   3.098   7.055   5.499  0.7468  0.7402  1.4288
 9215TIP3   OH251839   7.097   1.663   5.929  0.3355  0.6630  0.4989
 9215TIP3    H151840   7.106   1.658   5.834  1.0587  0.9900  0.5355
 9215TIP3    H251841   7.181   1.700   5.958  0.9364 -1.3095  1.4408
 9216TIP3   OH251842   2.526   7.508   6.029 -0.7227 -0.3778 -0.4227
 9216TIP3    H151843   2.553   7.502   6.120 -2.8155 -1.9807  0.1477
 9216TIP3    H251844   2.607   7.494   5.979  0.1845 -1.0295  1.1661
 9217TIP3   OH251845   3.170   3.724   5.765  0.0135 -0.3326 -0.0417
 9217TIP3    H151846   3.081   3.700   5.790  0.3691  0.0903  1.7607
 9217TIP3    H251847   3.176   3.818   5.784  0.4010 -0.0058 -1.5901
 9218TIP3   OH251848   3.373   2.758   6.505  0.1576  0.0370  0.2409
 9218TIP3    H151849   3.468   2.756   6.516  0.1395 -0.2082  0.3773
 9218TIP3    H251850   3.339   2.770   6.594  0.0653  0.2554  0.1757
 9219TIP3   OH251851   4.887   6.492   6.168 -0.7741  0.1743 -0.3849
 9219TIP3    H151852   4.910   6.406   6.133  1.7880  0.9120 -0.6948
 9219TIP3    H251853   4.900   6.552   6.094 -2.8148  0.8450 -0.2618
 9220TIP3   OH251854   2.125   7.226   4.941 -0.3623 -1.0719 -0.4864
 9220TIP3    H151855   2.157   7.181   5.020  2.0765  0.5806 -0.4456
 9220TIP3    H251856   2.078   7.302   4.975 -1.0772 -1.4323 -0.6368
 9221TIP3   OH251857   4.367   6.262   5.674 -0.2217  0.5080  0.4487
 9221TIP3    H151858   4.277   6.234   5.686 -0.3894 -0.2078 -2.0329
 9221TIP3    H251859   4.410   6.188   5.632  1.9540  0.2727  2.8274
 9222TIP3   OH251860   3.412   3.017   5.157 -0.0458 -0.7193  0.2618
 9222TIP3    H151861   3.353   2.949   5.126 -0.3112 -0.1124 -0.5824
 9222TIP3    H251862   3.410   3.085   5.089 -0.4717  0.5473  1.4781
 9223TIP3   OH251863   0.543   0.728   6.921  0.5434  0.1792 -0.3250
 9223TIP3    H151864   0.589   0.645   6.933 -0.5502 -0.3132  0.6172
 9223TIP3    H251865   0.478   0.730   6.990 -1.0883  0.7027 -1.7965
 9224TIP3   OH251866   7.065   4.319   6.912  1.0972  0.1796 -0.3776
 9224TIP3    H151867   6.991   4.374   6.938  0.4871 -0.6666 -0.2826
 9224TIP3    H251868   7.055   4.239   6.965  1.4518 -0.3978 -1.1709
 9225TIP3   OH251869   2.708   1.981   6.228 -0.7138 -0.7474  0.3050
 9225TIP3    H151870   2.681   2.038   6.156  0.4646 -0.4389  0.0916
 9225TIP3    H251871   2.775   1.924   6.191  2.5640  1.7041  1.8554
 9226TIP3   OH251872   3.821   4.110   6.862  0.1989  0.3406  0.2821
 9226TIP3    H151873   3.843   4.088   6.953  2.1381  1.3327  0.0918
 9226TIP3    H251874   3.868   4.046   6.809 -0.0955  0.4104 -0.0712
 9227TIP3   OH251875   0.492   1.123   5.745 -0.1450  0.0679 -0.4673
 9227TIP3    H151876   0.518   1.032   5.759 -0.6109  0.1935  1.4938
 9227TIP3    H251877   0.396   1.120   5.744 -0.1727  0.2874 -2.5161
 9228TIP3   OH251878   0.563   4.655   4.798 -0.3922 -0.5117 -0.9480
 9228TIP3    H151879   0.638   4.634   4.853  0.6100 -1.1235 -2.4847
 9228TIP3    H251880   0.499   4.586   4.817 -0.9132  0.4228  0.9019
 9229TIP3   OH251881   1.509   5.290   7.280  0.4364 -0.5925  0.5923
 9229TIP3    H151882   1.470   5.251   7.358 -0.9690 -1.8089 -0.6764
 9229TIP3    H251883   1.544   5.216   7.230  0.2403  0.0263 -0.5026
 9230TIP3   OH251884   0.437   1.246   6.307 -0.1238  0.0767  0.1297
 9230TIP3    H151885   0.427   1.156   6.278 -1.5316 -0.5262  2.2774
 9230TIP3    H251886   0.429   1.298   6.226  1.2991 -1.6863 -1.2284
 9231TIP3   OH251887   2.012   2.201   6.744  0.1667 -0.1741 -0.0988
 9231TIP3    H151888   1.968   2.136   6.799  1.4868 -1.1089 -0.0894
 9231TIP3    H251889   1.995   2.171   6.655 -0.9529  0.6614 -0.1924
 9232TIP3   OH251890   0.096   2.820   5.260 -0.3248 -0.4661 -0.0288
 9232TIP3    H151891   0.130   2.868   5.335 -0.1674  0.1073 -0.4590
 9232TIP3    H251892   0.173   2.779   5.220 -0.6315 -2.3095  1.1720
 9233TIP3   OH251893   6.482   0.523   5.906 -0.5025 -0.0125  0.1957
 9233TIP3    H151894   6.407   0.498   5.852  1.0195 -3.6734 -0.4682
 9233TIP3    H251895   6.550   0.546   5.843 -0.7706  2.7714  0.7927
 9234TIP3   OH251896   7.089   7.400   6.012  0.4606  0.0547  0.1489
 9234TIP3    H151897   7.150   7.472   6.026  1.3726 -0.9427  1.6246
 9234TIP3    H251898   7.015   7.419   6.070 -0.8394  1.4062 -1.8447
 9235TIP3   OH251899   2.616   7.188   6.537 -0.1115 -0.2945 -0.0141
 9235TIP3    H151900   2.523   7.210   6.541 -0.2926 -1.0426  0.1581
 9235TIP3    H251901   2.651   7.214   6.622 -0.3974 -0.9734  0.3206
 9236TIP3   OH251902   2.460   3.599   4.534  0.3294 -0.3202 -0.0242
 9236TIP3    H151903   2.542   3.622   4.577  0.5534 -2.1288  0.6167
 9236TIP3    H251904   2.408   3.680   4.536  1.5340  0.4692  0.8462
 9237TIP3   OH251905   5.679   2.186   6.119 -0.1757 -0.7281  0.0780
 9237TIP3    H151906   5.643   2.190   6.031  0.8112 -1.5277 -0.3855
 9237TIP3    H251907   5.706   2.276   6.138 -1.2669 -0.3618 -0.0372
 9238TIP3   OH251908   4.183   2.564   6.695  0.2864 -0.6182 -0.1442
 9238TIP3    H151909   4.254   2.501   6.711  0.1276 -0.6656  0.4202
 9238TIP3    H251910   4.119   2.543   6.763  0.3046  0.2610  0.1490
 9239TIP3   OH251911   1.650   6.038   6.888 -0.2952  0.3618  0.6877
 9239TIP3    H151912   1.601   6.117   6.909 -0.3215  0.7913 -0.8452
 9239TIP3    H251913   1.586   5.982   6.842 -0.0727 -0.2337  1.0917
 9240TIP3   OH251914   1.686   6.919   4.522 -0.2922 -0.5273  0.2571
 9240TIP3    H151915   1.781   6.922   4.514 -0.3328 -0.5476 -0.2392
 9240TIP3    H251916   1.670   6.854   4.591  0.0761  0.0856  0.9413
 9241TIP3   OH251917   3.990   3.381   6.427 -0.0470  0.2944 -0.4094
 9241TIP3    H151918   3.993   3.369   6.332 -1.8717 -0.9036 -0.3550
 9241TIP3    H251919   3.950   3.301   6.461  0.3882  0.7758  1.3704
 9242TIP3   OH251920   4.503   1.824   5.537 -0.4621  0.2948  0.2021
 9242TIP3    H151921   4.471   1.756   5.596  1.2004 -1.6177 -0.9688
 9242TIP3    H251922   4.436   1.831   5.470 -0.6403 -0.2111  0.3230
 9243TIP3   OH251923   3.557   0.332   4.799  0.1111  0.1950 -0.0521
 9243TIP3    H151924   3.529   0.241   4.808  0.9592 -0.1753 -0.9200
 9243TIP3    H251925   3.572   0.342   4.705  0.2400  1.1696  0.0685
 9244TIP3   OH251926   2.695   1.037   6.178 -0.2799  0.0738 -0.1354
 9244TIP3    H151927   2.720   1.011   6.089 -0.0981 -0.2651  0.0115
 9244TIP3    H251928   2.645   0.963   6.211  0.7455 -0.3565  0.4998
 9245TIP3   OH251929   6.524   4.286   6.817 -0.1068 -0.1515 -0.2052
 9245TIP3    H151930   6.543   4.248   6.902 -0.3951 -0.4275 -0.2633
 9245TIP3    H251931   6.437   4.253   6.794 -0.5204  0.8359 -0.0974
 9246TIP3   OH251932   6.479   4.008   7.235  0.6198 -0.7879  0.0684
 9246TIP3    H151933   6.417   4.042   7.299  0.6219  0.5192 -0.5852
 9246TIP3    H251934   6.513   3.928   7.275 -2.3584 -2.2767 -0.0639
 9247TIP3   OH251935   1.607   1.828   6.307 -0.0428 -0.8840 -0.2968
 9247TIP3    H151936   1.620   1.801   6.216 -1.0108  0.3725 -0.8429
 9247TIP3    H251937   1.516   1.804   6.327 -0.5951  0.8996 -0.4628
 9248TIP3   OH251938   3.992   3.794   6.898 -0.0792 -0.0628  0.4915
 9248TIP3    H151939   3.968   3.705   6.871  1.3822 -0.2822 -0.1794
 9248TIP3    H251940   3.986   3.845   6.817 -3.9157  1.2237  1.3862
 9249TIP3   OH251941   2.953   1.909   5.843  0.0266  0.1328 -0.0353
 9249TIP3    H151942   2.880   1.968   5.826 -2.1952 -2.4858 -0.1921
 9249TIP3    H251943   3.022   1.940   5.785 -2.7547 -0.3970 -4.0295
 9250TIP3   OH251944   2.893   6.030   6.209  0.1346 -0.1562  0.0989
 9250TIP3    H151945   2.880   6.049   6.116  4.3284  0.4871 -0.5701
 9250TIP3    H251946   2.952   5.954   6.210  1.8308  1.0621  2.0557
 9251TIP3   OH251947   5.681   0.225   5.355  0.3176 -0.4372 -0.3557
 9251TIP3    H151948   5.628   0.222   5.275 -0.5870  0.6715  0.1708
 9251TIP3    H251949   5.667   0.140   5.396 -0.4007 -0.4716 -0.6548
 9252TIP3   OH251950   6.554   3.894   5.016 -0.3424  0.0305 -0.3799
 9252TIP3    H151951   6.593   3.976   4.988  1.0430 -0.5221 -0.1364
 9252TIP3    H251952   6.586   3.880   5.105 -0.1366 -1.0131 -0.5953
 9253TIP3   OH251953   3.382   3.506   6.420 -0.8453 -0.4761 -0.0970
 9253TIP3    H151954   3.465   3.521   6.376 -1.6510  2.3365 -0.8622
 9253TIP3    H251955   3.399   3.529   6.511 -1.1058  1.8689 -0.5641
 9254TIP3   OH251956   6.310   3.156   5.782  0.4286  0.3186 -0.5275
 9254TIP3    H151957   6.249   3.229   5.776  2.0780  1.8487  0.3186
 9254TIP3    H251958   6.394   3.197   5.802  1.0426 -1.9495  2.0731
 9255TIP3   OH251959   0.699   6.150   6.580  0.0794 -0.9421 -0.0991
 9255TIP3    H151960   0.779   6.159   6.527 -0.2727 -0.6601 -0.5832
 9255TIP3    H251961   0.686   6.055   6.588  0.5929 -0.9931  0.1838
 9256TIP3   OH251962   5.744   2.538   4.856  0.0020 -0.1798 -0.2724
 9256TIP3    H151963   5.702   2.562   4.939 -2.2254  0.7025 -1.5632
 9256TIP3    H251964   5.716   2.606   4.795  0.2735 -1.6577 -2.1312
 9257TIP3   OH251965   2.638   0.421   6.037  0.1574  0.5531 -0.0838
 9257TIP3    H151966   2.708   0.458   5.984  0.8642  1.0372  1.1381
 9257TIP3    H251967   2.594   0.497   6.075 -0.7992  0.2397 -0.5305
 9258TIP3   OH251968   2.648   3.666   4.795 -0.3880 -0.2378 -0.3756
 9258TIP3    H151969   2.696   3.747   4.811  0.1829 -0.5156 -0.6802
 9258TIP3    H251970   2.676   3.607   4.866  1.7303 -1.2866 -1.9861
 9259TIP3   OH251971   4.743   5.390   6.709  0.0989 -0.0209 -0.2704
 9259TIP3    H151972   4.693   5.325   6.658  0.3345 -0.2384 -0.2248
 9259TIP3    H251973   4.810   5.421   6.649  0.6894 -0.6405  0.0603
 9260TIP3   OH251974   6.751   6.356   5.469 -0.1848 -0.0085 -0.5352
 9260TIP3    H151975   6.677   6.326   5.522  0.2853 -1.3450 -0.6185
 9260TIP3    H251976   6.829   6.327   5.516  0.2451 -1.9491 -2.3035
 9261TIP3   OH251977   6.439   6.053   7.507  0.1610  0.3718  0.4388
 9261TIP3    H151978   6.514   5.995   7.489  0.5420  0.8454  0.4964
 9261TIP3    H251979   6.363   5.995   7.501  0.7261 -1.2275  4.8578
 9262TIP3   OH251980   0.608   0.992   6.855 -0.2443  0.0424 -0.2022
 9262TIP3    H151981   0.575   1.027   6.938  0.3016 -1.3270  0.6259
 9262TIP3    H251982   0.616   0.898   6.870  3.1320  0.1230 -0.5874
 9263TIP3   OH251983   4.830   5.664   5.393 -0.2245  0.0340 -0.1346
 9263TIP3    H151984   4.922   5.659   5.368 -0.2491  1.9977 -0.7468
 9263TIP3    H251985   4.784   5.613   5.326  0.4802 -2.1675  0.9549
 9264TIP3   OH251986   5.573   1.600   5.357  0.2848  0.8892 -0.5457
 9264TIP3    H151987   5.661   1.596   5.395 -0.9416 -1.4021  2.4452
 9264TIP3    H251988   5.518   1.633   5.427 -1.6942 -0.5849 -1.3020
 9265TIP3   OH251989   1.351   1.748   4.972 -0.2094 -0.4928 -0.3913
 9265TIP3    H151990   1.421   1.740   4.907  0.3097  0.3472  0.0524
 9265TIP3    H251991   1.277   1.784   4.922  0.1633  0.0834 -0.5326
 9266TIP3   OH251992   2.515   6.981   6.367  0.8225  0.7276  0.0485
 9266TIP3    H151993   2.437   7.028   6.336  0.2930 -0.6106 -0.7526
 9266TIP3    H251994   2.573   7.049   6.400  0.7817  2.1478 -2.5495
 9267TIP3   OH251995   6.269   4.874   5.806 -0.6078  0.2948 -0.1223
 9267TIP3    H151996   6.290   4.935   5.877  1.8008 -1.0897  0.4537
 9267TIP3    H251997   6.211   4.810   5.846  0.2147 -0.1092  0.4499
 9268TIP3   OH251998   1.215   1.014   5.816 -0.4237 -0.3150  0.6899
 9268TIP3    H151999   1.180   1.068   5.745 -1.8983  0.4296  1.9226
 9268TIP3    H252000   1.309   1.006   5.796 -0.9377 -0.9062 -1.7886
 9269TIP3   OH252001   5.717   0.293   6.200 -0.1316  0.1787  0.5922
 9269TIP3    H152002   5.812   0.284   6.194 -0.3139 -1.0460 -1.4916
 9269TIP3    H252003   5.700   0.385   6.180  0.6590  0.7703  2.4486
 9270TIP3   OH252004   0.065   0.077   5.867  0.5333 -0.2231 -0.0008
 9270TIP3    H152005   0.005   0.088   5.794 -1.2001 -0.3358  1.3532
 9270TIP3    H252006   0.022   0.013   5.924  1.4588  0.4535  1.5012
 9271TIP3   OH252007   2.339   1.824   6.408 -0.1003  0.3166 -0.0443
 9271TIP3    H152008   2.365   1.767   6.481 -0.3274 -0.5552 -0.6278
 9271TIP3    H252009   2.339   1.766   6.332 -1.6313  0.8061 -0.4382
 9272TIP3   OH252010   1.808   4.143   5.021 -0.5572 -0.1198 -0.1478
 9272TIP3    H152011   1.747   4.209   5.053  0.5970  1.7470 -1.5362
 9272TIP3    H252012   1.867   4.192   4.963  1.5420 -2.0290  0.2472
 9273TIP3   OH252013   0.085   0.587   6.803  0.2501 -0.0311 -0.0349
 9273TIP3    H152014   0.103   0.509   6.853 -2.7098 -2.6502 -2.5980
 9273TIP3    H252015   0.021   0.636   6.855 -0.7170 -1.3194  0.0434
 9274TIP3   OH252016   3.345   2.752   7.009 -0.1469 -0.4856  0.1531
 9274TIP3    H152017   3.424   2.746   7.063 -0.2015 -0.4948  0.2327
 9274TIP3    H252018   3.283   2.800   7.064 -0.5340 -1.3482  0.4893
 9275TIP3   OH252019   4.471   5.811   6.159 -0.5429 -1.3147  0.5719
 9275TIP3    H152020   4.455   5.762   6.079 -2.0223 -1.0926  0.7087
 9275TIP3    H252021   4.438   5.754   6.229 -1.2863 -0.5937  0.8218
 9276TIP3   OH252022   3.449   1.932   5.810  0.0810 -0.0474  0.0767
 9276TIP3    H152023   3.443   1.993   5.884  3.2274  2.1389 -1.2435
 9276TIP3    H252024   3.455   1.989   5.734 -0.3988 -2.1960 -1.6431
 9277TIP3   OH252025   1.601   6.874   5.830  0.2712  0.0223 -0.2533
 9277TIP3    H152026   1.605   6.790   5.785 -1.1745 -0.0886 -0.2401
 9277TIP3    H252027   1.640   6.857   5.916 -1.7624 -1.2007  0.5009
 9278TIP3   OH252028   4.800   1.519   5.692 -0.1154 -0.5162 -0.5751
 9278TIP3    H152029   4.792   1.607   5.655 -1.0207 -1.0545 -1.7223
 9278TIP3    H252030   4.755   1.525   5.776  1.5319  0.5936  0.2860
 9279TIP3   OH252031   7.653   3.227   5.476  0.5034  0.4372  0.4152
 9279TIP3    H152032   7.646   3.320   5.457 -1.4644  0.5792  1.5533
 9279TIP3    H252033   7.628   3.183   5.394  1.4106  0.8806 -0.1129
 9280TIP3   OH252034   2.389   4.302   5.083 -0.1917  0.8711  0.1317
 9280TIP3    H152035   2.320   4.336   5.139  1.2446  1.2988  1.7316
 9280TIP3    H252036   2.364   4.211   5.067 -1.5936  1.2857 -0.1437
 9281TIP3   OH252037   3.889   2.310   6.410 -0.5363 -0.0891 -0.1918
 9281TIP3    H152038   3.983   2.296   6.402 -0.7530 -1.8028 -0.2066
 9281TIP3    H252039   3.858   2.315   6.320 -0.5884 -0.6621 -0.2112
 9282TIP3   OH252040   2.945   3.233   4.954 -0.0973 -0.3692 -0.1267
 9282TIP3    H152041   2.867   3.265   5.000  0.3590 -2.2580  2.1477
 9282TIP3    H252042   2.910   3.190   4.875 -1.2934 -0.4974  0.4525
 9283TIP3   OH252043   5.963   6.128   5.399  0.1652  0.1931 -0.1360
 9283TIP3    H152044   5.973   6.111   5.305  0.4000 -1.4617  0.1399
 9283TIP3    H252045   6.053   6.141   5.430  0.0901  0.7114 -0.1342
 9284TIP3   OH252046   5.592   7.267   5.276 -0.2264 -0.4842  0.3529
 9284TIP3    H152047   5.644   7.216   5.338  0.2992  0.2658  0.5529
 9284TIP3    H252048   5.509   7.281   5.321 -0.5823 -1.6242  0.0660
 9285TIP3   OH252049   5.760   2.445   6.096  0.3105  0.3012  0.6553
 9285TIP3    H152050   5.813   2.471   6.171 -0.1596 -0.2638  1.1889
 9285TIP3    H252051   5.824   2.412   6.032  0.6425  0.1001  1.0882
 9286TIP3   OH252052   6.665   5.530   7.238  0.1386  0.1071 -0.6183
 9286TIP3    H152053   6.760   5.531   7.228  0.4946 -1.1698  1.9057
 9286TIP3    H252054   6.644   5.440   7.263 -1.4696  0.7853  0.6716
 9287TIP3   OH252055   7.217   0.004   6.046  0.1299  0.0621  0.0429
 9287TIP3    H152056   7.275  -0.026   5.976  1.5778  2.3794  0.1323
 9287TIP3    H252057   7.245  -0.044   6.123  0.4445 -0.4497 -0.3885
 9288TIP3   OH252058   3.532   6.537   4.886  0.0767  0.1457  0.3016
 9288TIP3    H152059   3.566   6.626   4.879 -1.0958  0.7160  1.5202
 9288TIP3    H252060   3.540   6.515   4.978  0.1390 -0.9433  0.0551
 9289TIP3   OH252061   7.032   4.052   7.015  0.6044  0.8374  0.4724
 9289TIP3    H152062   7.086   4.003   7.078  1.2923  0.8188 -0.1246
 9289TIP3    H252063   6.969   3.987   6.983 -0.1568  0.9990  1.5861
 9290TIP3   OH252064   0.302   3.655   4.695  0.1925 -0.0272 -0.2818
 9290TIP3    H152065   0.337   3.598   4.625 -1.2294 -2.2143  0.6791
 9290TIP3    H252066   0.376   3.664   4.756  1.0785  0.9186 -1.4470
 9291TIP3   OH252067   0.355   4.004   6.320 -0.1873  0.2027 -0.4085
 9291TIP3    H152068   0.415   3.942   6.361 -0.9237  0.5962  1.3651
 9291TIP3    H252069   0.390   4.090   6.343 -2.4835  0.5012  2.5598
 9292TIP3   OH252070   4.491   0.628   4.559  0.6830  0.1731 -0.3552
 9292TIP3    H152071   4.554   0.555   4.561  0.0390 -0.3952 -0.5803
 9292TIP3    H252072   4.447   0.619   4.475  1.1507  1.3116 -0.7409
 9293TIP3   OH252073   3.571   3.166   5.465  0.1548 -0.4203  0.5327
 9293TIP3    H152074   3.609   3.253   5.481 -0.4912 -0.1305  0.5190
 9293TIP3    H252075   3.479   3.184   5.445  0.3462 -0.9795 -0.9308
 9294TIP3   OH252076   4.863   7.512   5.871 -0.2235  0.1195  0.0311
 9294TIP3    H152077   4.903   7.554   5.795  1.2384  1.9653  1.7049
 9294TIP3    H252078   4.936   7.480   5.923 -1.2199 -1.6877  0.4043
 9295TIP3   OH252079   6.080   6.169   6.623  0.1030  0.7953 -0.7467
 9295TIP3    H152080   6.059   6.147   6.713 -0.3855  0.4588 -0.9400
 9295TIP3    H252081   6.022   6.114   6.570 -0.9670  2.3525 -1.2534
 9296TIP3   OH252082   4.946   4.001   6.414  0.1928  0.2976  0.7746
 9296TIP3    H152083   4.944   3.994   6.319  0.0540 -2.3702  0.8859
 9296TIP3    H252084   4.853   4.000   6.440  0.2373  0.7270  0.9576
 9297TIP3   OH252085   0.457   3.513   6.934  0.0697 -0.0302 -0.7001
 9297TIP3    H152086   0.428   3.423   6.944 -2.0199  0.6720  0.1251
 9297TIP3    H252087   0.378   3.565   6.947  1.1725  1.9189 -1.3901
 9298TIP3   OH252088   4.364   4.961   4.867 -0.3131  0.1151  0.1062
 9298TIP3    H152089   4.396   4.879   4.904 -0.0050  0.3418  0.3553
 9298TIP3    H252090   4.271   4.946   4.852 -0.4573  0.0241  1.0188
 9299TIP3   OH252091   6.762   2.409   6.806  0.7133  0.0405  0.3049
 9299TIP3    H152092   6.846   2.388   6.848  0.6797  1.0597  0.8981
 9299TIP3    H252093   6.733   2.489   6.849 -1.2104 -0.9758  1.0507
 9300TIP3   OH252094   4.476   3.838   5.684  0.4213 -0.2761  0.1944
 9300TIP3    H152095   4.426   3.917   5.705  2.2147  0.8898  0.3159
 9300TIP3    H252096   4.458   3.822   5.591 -0.1477  0.1282  0.2291
 9301TIP3   OH252097   1.921   4.566   6.529 -0.1156 -0.5011  0.0126
 9301TIP3    H152098   2.008   4.566   6.491 -0.1974  2.3034 -0.3983
 9301TIP3    H252099   1.935   4.584   6.622 -0.2116 -1.4059  0.2111
 9302TIP3   OH252100   4.911   6.265   6.022  0.0998  0.3056  0.0631
 9302TIP3    H152101   4.991   6.278   5.971 -0.9210 -0.4565 -1.8301
 9302TIP3    H252102   4.840   6.286   5.962 -1.2196 -1.8749  0.7344
 9303TIP3   OH252103   0.451   6.752   5.800 -0.3001 -0.2703  0.4293
 9303TIP3    H152104   0.476   6.794   5.717 -1.4420  0.8335  0.6249
 9303TIP3    H252105   0.531   6.753   5.852 -0.0387  0.6989  0.0286
 9304TIP3   OH252106   3.082   5.919   5.965  0.0090  0.3342 -0.5688
 9304TIP3    H152107   3.165   5.926   5.917  0.8767  1.8738  1.0295
 9304TIP3    H252108   3.108   5.884   6.051 -1.3409 -1.3065 -0.7864
 9305TIP3   OH252109   3.153   2.219   6.111  0.0389 -0.4477  0.2532
 9305TIP3    H152110   3.059   2.220   6.091  0.2212  0.0041 -0.6339
 9305TIP3    H252111   3.163   2.283   6.182 -0.7078 -2.5259  2.3549
 9306TIP3   OH252112   1.966   5.677   5.506 -0.2976  0.2296 -0.3988
 9306TIP3    H152113   2.011   5.596   5.528 -2.9714 -0.9101  1.4090
 9306TIP3    H252114   1.982   5.735   5.581  0.3967  0.8392 -1.0094
 9307TIP3   OH252115   1.140   7.482   6.579  0.0322  0.1348  0.3331
 9307TIP3    H152116   1.232   7.458   6.593 -0.0562  0.9924  3.0347
 9307TIP3    H252117   1.141   7.577   6.570 -0.2901 -0.0751 -3.6513
 9308TIP3   OH252118   1.639   0.639   5.863 -0.5222  0.8102  0.9926
 9308TIP3    H152119   1.647   0.674   5.774 -0.2319  1.2138  1.1765
 9308TIP3    H252120   1.552   0.666   5.892 -1.7086 -1.4968 -0.1002
 9309TIP3   OH252121   6.855   0.297   6.025  0.2125  0.2087 -0.4870
 9309TIP3    H152122   6.828   0.259   5.941 -0.9865  2.5801 -1.2733
 9309TIP3    H252123   6.773   0.314   6.071  0.8700 -2.2700  1.8545
 9310TIP3   OH252124   2.031   1.563   6.650  0.0224  0.0584  0.2420
 9310TIP3    H152125   2.009   1.536   6.740 -0.8640  0.4943  0.1688
 9310TIP3    H252126   2.033   1.658   6.654 -0.5314  0.1037 -0.3005
 9311TIP3   OH252127   4.194   5.496   5.529  0.3301  0.0857  0.2601
 9311TIP3    H152128   4.158   5.488   5.617  1.9370 -1.9490  0.8260
 9311TIP3    H252129   4.282   5.460   5.536  2.0871  3.6391 -1.3190
 9312TIP3   OH252130   3.116   2.727   5.808 -0.4784  0.1271 -0.0041
 9312TIP3    H152131   3.172   2.714   5.731  0.0008  0.8143  0.2158
 9312TIP3    H252132   3.114   2.642   5.852  0.2906  0.0612 -0.0834
 9313TIP3   OH252133   4.388   3.704   5.936  0.1399 -0.6707 -0.0822
 9313TIP3    H152134   4.386   3.794   5.970 -2.4848 -0.9724  0.7248
 9313TIP3    H252135   4.390   3.715   5.841  0.4544  0.2200  0.0157
 9314TIP3   OH252136   6.378   4.667   6.291  0.0616 -0.0085  0.0442
 9314TIP3    H152137   6.299   4.719   6.278  1.1943  1.3262 -2.0488
 9314TIP3    H252138   6.371   4.595   6.228  0.0269 -0.5118  0.6151
 9315TIP3   OH252139   1.164   1.387   6.848  0.1585  0.3546 -0.1075
 9315TIP3    H152140   1.085   1.361   6.801 -1.2654 -1.8823  3.1147
 9315TIP3    H252141   1.207   1.304   6.869  0.3554  1.0777  2.8293
 9316TIP3   OH252142   4.678   4.040   6.467 -0.0946  0.0194 -0.2684
 9316TIP3    H152143   4.631   3.984   6.529 -0.6547  0.1947 -0.5243
 9316TIP3    H252144   4.618   4.112   6.451  0.1062  0.0490 -0.9023
 9317TIP3   OH252145   0.524   1.185   6.639  0.0105  0.4540  0.4408
 9317TIP3    H152146   0.574   1.111   6.605 -2.2303 -1.2688  0.6876
 9317TIP3    H252147   0.558   1.197   6.728  0.5428 -0.1198  0.3234
 9318TIP3   OH252148   1.932   3.668   7.017 -0.2684 -0.0811  0.1334
 9318TIP3    H152149   1.979   3.646   6.937  0.4701  0.4971  0.3990
 9318TIP3    H252150   1.850   3.707   6.987  0.7771  1.8331 -0.4028
 9319TIP3   OH252151   0.916   4.804   7.391 -0.0825 -0.4031 -0.2473
 9319TIP3    H152152   0.826   4.776   7.374 -0.3303 -0.0608  0.4596
 9319TIP3    H252153   0.926   4.795   7.486  0.4610  0.0607 -0.2545
 9320TIP3   OH252154   6.920   1.662   5.452 -0.5695  0.2503 -0.2629
 9320TIP3    H152155   6.924   1.757   5.467  0.4024  0.1459  0.1608
 9320TIP3    H252156   6.981   1.625   5.515  1.0363 -0.4578 -2.1263
 9321TIP3   OH252157   2.711   1.583   5.232  1.0461  0.0818  0.1464
 9321TIP3    H152158   2.741   1.502   5.191  0.8531  0.0763  0.0116
 9321TIP3    H252159   2.644   1.555   5.293  1.8619  0.0128  1.0263
 9322TIP3   OH252160   5.619   5.887   6.578  0.7287 -0.3006 -0.5010
 9322TIP3    H152161   5.527   5.867   6.562  0.6518 -0.1030 -0.3221
 9322TIP3    H252162   5.651   5.814   6.632  0.5206 -0.0812 -0.0710
 9323TIP3   OH252163   4.821   3.627   5.001 -0.3738  0.1331  0.1369
 9323TIP3    H152164   4.892   3.600   5.059  0.6746  1.1594 -0.6331
 9323TIP3    H252165   4.763   3.550   4.997  0.2568 -0.4339  1.4074
 9324TIP3   OH252166   5.945   5.471   6.055  0.0948 -0.0561 -0.0957
 9324TIP3    H152167   6.017   5.503   6.001  0.0053  0.0139 -0.1733
 9324TIP3    H252168   5.866   5.489   6.004  0.1075 -1.2581 -0.5743
 9325TIP3   OH252169   7.540   2.065   6.225 -0.0215  0.1484 -0.2316
 9325TIP3    H152170   7.585   1.983   6.244 -0.1255 -0.0803 -0.9433
 9325TIP3    H252171   7.494   2.086   6.306  0.0179 -0.4899 -0.0361
 9326TIP3   OH252172   4.500   3.309   5.462 -0.3545  0.5146  0.7373
 9326TIP3    H152173   4.527   3.327   5.372  1.2355 -0.0982  1.0661
 9326TIP3    H252174   4.482   3.395   5.500 -1.0981  0.7724 -0.1620
 9327TIP3   OH252175   0.220   5.029   6.705  0.4220  0.3125 -0.0215
 9327TIP3    H152176   0.207   5.046   6.798 -1.0180 -0.9758  0.0510
 9327TIP3    H252177   0.294   4.968   6.701 -0.2770 -0.5924  0.4022
 9328TIP3   OH252178   7.064   1.791   6.345  0.2375  0.2308  0.2773
 9328TIP3    H152179   7.089   1.763   6.433 -2.5228 -3.0071  0.2278
 9328TIP3    H252180   7.042   1.710   6.300 -1.9926  2.0736 -2.2246
 9329TIP3   OH252181   6.298   5.072   7.108 -1.4538  0.3284  0.2976
 9329TIP3    H152182   6.296   5.136   7.180 -0.5495  0.9347 -0.1964
 9329TIP3    H252183   6.391   5.062   7.088 -1.7172  0.6179 -1.1632
 9330TIP3   OH252184   4.206   5.039   6.634 -0.4094 -0.3504  0.5978
 9330TIP3    H152185   4.168   5.072   6.552  1.7017  1.1624  0.1267
 9330TIP3    H252186   4.179   4.948   6.638 -0.0572 -0.6638 -2.1769
 9331TIP3   OH252187   1.757   0.952   4.593 -0.4289  0.1214  0.6882
 9331TIP3    H152188   1.730   0.872   4.550  0.2031  0.0989  0.3282
 9331TIP3    H252189   1.843   0.932   4.630  0.2867  0.9973 -0.4553
 9332TIP3   OH252190   0.082   1.021   6.622 -0.0482  0.6246 -0.5867
 9332TIP3    H152191   0.176   1.037   6.634  0.4031  0.1611 -2.9987
 9332TIP3    H252192   0.075   0.927   6.610 -0.8466  0.6440 -0.3057
 9333TIP3   OH252193   2.173   0.855   5.128 -0.8255  0.0913 -0.1966
 9333TIP3    H152194   2.232   0.897   5.066 -0.7063 -1.3454 -1.0944
 9333TIP3    H252195   2.202   0.885   5.214  0.4049  0.3832 -0.7040
 9334TIP3   OH252196   1.337   7.626   6.913  0.5608  0.2485  0.6048
 9334TIP3    H152197   1.364   7.708   6.955 -0.7342  2.1164 -1.9438
 9334TIP3    H252198   1.415   7.597   6.865  1.2679 -0.5187  2.1523
 9335TIP3   OH252199   4.333   1.731   7.340  0.0958  0.0045 -0.4358
 9335TIP3    H152200   4.282   1.662   7.381 -0.1027 -0.0210 -0.7193
 9335TIP3    H252201   4.307   1.811   7.385  1.3870 -0.2723  0.8916
 9336TIP3   OH252202   5.677   2.966   5.992 -0.4791  0.2816 -0.7011
 9336TIP3    H152203   5.755   2.972   5.937 -1.0956  2.5883 -1.4122
 9336TIP3    H252204   5.608   2.933   5.934 -0.3361 -0.5816 -0.3910
 9337TIP3   OH252205   0.419   6.985   5.282 -0.2442 -0.3824  0.3096
 9337TIP3    H152206   0.470   7.061   5.311 -0.8222 -0.1442  0.7157
 9337TIP3    H252207   0.331   7.020   5.265 -0.2725 -0.7806 -0.4083
 9338TIP3   OH252208   2.082   1.440   6.415  0.2549  0.1336 -0.0676
 9338TIP3    H152209   2.052   1.454   6.504  0.2065  0.2423 -0.1014
 9338TIP3    H252210   2.174   1.467   6.415  0.6449 -1.1294  0.2845
 9339TIP3   OH252211   4.192   2.199   7.118  0.2283  0.0993  0.5900
 9339TIP3    H152212   4.245   2.188   7.197  2.0996 -1.1538 -0.7586
 9339TIP3    H252213   4.191   2.112   7.078 -0.7358  0.6934 -0.7415
 9340TIP3   OH252214   2.630   0.822   5.557 -0.3529  0.4802  0.1034
 9340TIP3    H152215   2.562   0.754   5.556 -0.2856  0.4119 -1.0960
 9340TIP3    H252216   2.582   0.905   5.557 -0.4586  0.5118  2.5437
 9341TIP3   OH252217   7.235   3.279   4.593  0.3903 -0.2465  0.0597
 9341TIP3    H152218   7.305   3.344   4.589  0.8842 -0.5786  2.1778
 9341TIP3    H252219   7.266   3.207   4.538  0.6453  0.5568 -0.8654
 9342TIP3   OH252220   5.937   0.784   5.937 -0.2518  0.8192 -0.8619
 9342TIP3    H152221   5.997   0.739   5.997 -0.2596 -1.4456 -2.4255
 9342TIP3    H252222   5.964   0.876   5.941 -0.0894  0.7503  2.3386
 9343TIP3   OH252223   7.287   5.278   4.473 -0.2283  0.3869 -0.1620
 9343TIP3    H152224   7.307   5.270   4.379  1.3988 -0.8575  0.2575
 9343TIP3    H252225   7.246   5.195   4.496 -1.1697  0.9192  0.1252
 9344TIP3   OH252226   7.155   7.481   6.667 -0.5489 -0.2796 -0.0300
 9344TIP3    H152227   7.124   7.491   6.757  1.1992  0.5803  0.5060
 9344TIP3    H252228   7.110   7.551   6.619  1.3360  1.7509  0.9837
 9345TIP3   OH252229   7.137   6.730   5.262  0.4838  0.1227  0.0818
 9345TIP3    H152230   7.218   6.744   5.213  0.8715 -1.5044  0.1951
 9345TIP3    H252231   7.165   6.684   5.342 -0.5247 -0.3096  0.2070
 9346TIP3   OH252232   0.630   5.241   6.751 -0.1803 -0.5125 -0.1302
 9346TIP3    H152233   0.558   5.303   6.764  0.5121  0.7470 -1.8873
 9346TIP3    H252234   0.606   5.165   6.804 -1.0970  1.1872  2.1001
 9347TIP3   OH252235   0.289   5.634   4.831 -0.1341 -0.4459 -0.7180
 9347TIP3    H152236   0.278   5.621   4.737  0.5483  0.3979 -0.9311
 9347TIP3    H252237   0.358   5.573   4.856 -1.0219 -1.4037 -0.5547
 9348TIP3   OH252238   7.167   4.775   5.711  0.0407 -0.5368 -0.0240
 9348TIP3    H152239   7.096   4.764   5.774  0.3237 -0.4288  0.3164
 9348TIP3    H252240   7.184   4.869   5.711  0.5462 -0.6237  0.2981
 9349TIP3   OH252241   1.024   4.556   7.214  1.0377 -0.2205 -0.6688
 9349TIP3    H152242   1.009   4.583   7.123 -1.3007  0.9189 -0.0076
 9349TIP3    H252243   0.945   4.507   7.238 -0.6957  3.4159  2.0861
 9350TIP3   OH252244   1.162   1.475   6.216  0.2536  0.8557  0.1457
 9350TIP3    H152245   1.149   1.424   6.295  0.9082  1.4323  0.6387
 9350TIP3    H252246   1.140   1.415   6.144 -0.7961  0.4791  0.7716
 9351TIP3   OH252247   2.785   1.704   4.503 -0.0903  0.2541 -0.1082
 9351TIP3    H152248   2.791   1.770   4.571 -0.3141  1.9228 -1.6218
 9351TIP3    H252249   2.874   1.673   4.490 -0.0191  0.0678  0.7664
 9352TIP3   OH252250   4.728   3.614   5.309 -0.4942  0.3587  0.2583
 9352TIP3    H152251   4.787   3.561   5.255 -1.6807  0.3724 -1.1313
 9352TIP3    H252252   4.762   3.703   5.301  1.4465 -0.0767  2.5202
 9353TIP3   OH252253   5.227   4.731   5.565 -0.5641  0.5257 -0.7386
 9353TIP3    H152254   5.253   4.745   5.474  2.9157 -1.0296 -0.1393
 9353TIP3    H252255   5.270   4.649   5.590 -0.9433  1.1793  2.4743
 9354TIP3   OH252256   0.811   7.039   5.681 -0.1092  0.5342  0.3619
 9354TIP3    H152257   0.739   7.089   5.719 -0.9207 -0.8224  0.6556
 9354TIP3    H252258   0.768   6.971   5.628  0.9665  1.3177 -1.6327
 9355TIP3   OH252259   4.102   5.876   5.894 -0.2528 -0.0007  0.0567
 9355TIP3    H152260   4.017   5.832   5.889  0.2674 -1.2722  1.3208
 9355TIP3    H252261   4.137   5.849   5.979  0.3698  2.4741  0.6527
 9356TIP3   OH252262   6.476   2.710   6.041  0.3848 -0.4140  0.1823
 9356TIP3    H152263   6.433   2.796   6.043 -0.1578 -0.6761  0.0253
 9356TIP3    H252264   6.430   2.662   5.972  0.2381 -1.0633  0.7222
 9357TIP3   OH252265   6.947   6.144   5.115 -0.2599  0.1399  0.9221
 9357TIP3    H152266   6.969   6.158   5.207 -1.0194  0.9357  0.9918
 9357TIP3    H252267   7.012   6.196   5.067  1.2020 -1.6081  0.9187
 9358TIP3   OH252268   5.952   6.773   6.200  0.1070 -0.0929  0.4526
 9358TIP3    H152269   5.864   6.764   6.164  0.5559 -1.9469 -0.2632
 9358TIP3    H252270   6.007   6.798   6.126  0.3863 -0.0750  0.6613
 9359TIP3   OH252271   0.904   6.743   5.847 -0.5938  0.0950 -0.2643
 9359TIP3    H152272   0.975   6.806   5.847 -0.3148 -0.2134  0.0320
 9359TIP3    H252273   0.831   6.789   5.888 -0.0078 -0.1799  1.1586
 9360TIP3   OH252274   5.518   5.802   7.047 -0.3590 -0.3320  0.5179
 9360TIP3    H152275   5.603   5.821   7.089  0.3466 -0.3834 -0.8389
 9360TIP3    H252276   5.540   5.782   6.956 -1.7915 -0.8509  0.2579
 9361TIP3   OH252277   4.831   4.879   5.401 -0.5744  0.2573 -0.3006
 9361TIP3    H152278   4.921   4.870   5.370  0.2174  1.3391  1.5656
 9361TIP3    H252279   4.828   4.964   5.443 -2.1641 -0.2538  0.7235
 9362TIP3   OH252280   1.388   3.094   6.513  0.0904  0.2588  0.2424
 9362TIP3    H152281   1.478   3.077   6.542  0.4262  0.0554 -0.8540
 9362TIP3    H252282   1.334   3.035   6.566  1.1054 -3.6323 -2.5624
 9363TIP3   OH252283   4.001   1.561   5.632 -0.1918  0.1610  0.1439
 9363TIP3    H152284   4.003   1.655   5.614  2.0495 -0.3505 -3.0958
 9363TIP3    H252285   4.092   1.538   5.649 -0.6446 -1.4926  0.5024
 9364TIP3   OH252286   1.232   2.870   6.630 -0.3828 -0.0650 -0.5508
 9364TIP3    H152287   1.233   2.839   6.539  0.3026 -0.4179 -0.4238
 9364TIP3    H252288   1.139   2.883   6.649 -0.6424 -1.4127 -0.8275
 9365TIP3   OH252289   3.191   4.595   7.295 -0.0070 -0.2948  0.0845
 9365TIP3    H152290   3.159   4.534   7.362  1.6166 -1.2934 -0.0179
 9365TIP3    H252291   3.281   4.614   7.320 -0.0316  0.9771 -0.6828
 9366TIP3   OH252292   3.080   7.551   4.913 -0.0254  0.5254 -0.0417
 9366TIP3    H152293   3.066   7.580   5.004  0.6226  0.7562 -0.0102
 9366TIP3    H252294   3.172   7.526   4.910 -0.3434 -0.6335 -0.3315
 9367TIP3   OH252295   2.869   1.198   6.500  0.0866 -0.3630 -0.2236
 9367TIP3    H152296   2.784   1.237   6.480 -0.1205 -0.0103  1.2570
 9367TIP3    H252297   2.923   1.218   6.424 -0.4167  1.6318 -0.1179
 9368TIP3   OH252298   0.063   1.254   6.052  0.0102  0.1636 -0.6877
 9368TIP3    H152299   0.116   1.313   5.998  0.2092  0.1115 -0.5482
 9368TIP3    H252300   0.052   1.300   6.134 -0.5447  0.3717 -0.8783
 9369TIP3   OH252301   0.150   5.898   5.757 -0.0802  0.7946  0.0243
 9369TIP3    H152302   0.131   5.817   5.709  1.3534  0.5061 -0.0984
 9369TIP3    H252303   0.154   5.965   5.688  1.4404  0.4715 -0.2537
 9370TIP3   OH252304   3.023   0.284   5.607  0.6830  0.5723  0.4249
 9370TIP3    H152305   2.962   0.353   5.583  1.2283  0.6973 -0.6543
 9370TIP3    H252306   2.975   0.203   5.590  0.9898  0.6616 -0.9634
 9371TIP3   OH252307   6.319   0.742   7.709  0.3634  0.3199 -0.0771
 9371TIP3    H152308   6.402   0.778   7.739  0.6934 -2.2267  2.5671
 9371TIP3    H252309   6.254   0.781   7.768 -0.3219  1.7337 -1.6657
 9372TIP3   OH252310   3.051   1.629   4.589  0.0203 -0.0155  0.3916
 9372TIP3    H152311   3.145   1.649   4.592 -0.1587  0.7271  2.8161
 9372TIP3    H252312   3.044   1.544   4.633 -0.3678 -0.5825 -0.7215
 9373TIP3   OH252313   2.836   4.457   6.326  0.0140  0.0196  0.1561
 9373TIP3    H152314   2.795   4.489   6.245 -0.7672 -2.0970 -0.3310
 9373TIP3    H252315   2.913   4.410   6.297  0.1560 -0.0890  0.7096
 9374TIP3   OH252316   0.323   7.094   6.926 -0.7024 -0.4946  0.1265
 9374TIP3    H152317   0.239   7.140   6.938 -1.6445 -1.9773 -0.5270
 9374TIP3    H252318   0.329   7.081   6.831 -0.0512 -0.9920  0.2370
 9375TIP3   OH252319   6.728   0.572   5.746 -0.6656 -0.0829  0.5583
 9375TIP3    H152320   6.760   0.619   5.822 -2.3220  0.9462  0.6683
 9375TIP3    H252321   6.795   0.506   5.728  1.3603  1.7834  0.8879
 9376TIP3   OH252322   5.902   5.786   5.590  0.1147 -0.3103  0.6437
 9376TIP3    H152323   5.974   5.848   5.605  0.5638 -1.1513  2.1039
 9376TIP3    H252324   5.909   5.765   5.497  0.1654  1.5448  0.1738
 9377TIP3   OH252325   6.150   6.791   5.725  0.0192  0.3981  0.4204
 9377TIP3    H152326   6.062   6.828   5.715 -0.3695 -0.3858  0.8794
 9377TIP3    H252327   6.207   6.868   5.735 -0.2380  1.0443 -2.3108
 9378TIP3   OH252328   3.867   2.654   6.247 -0.3788  0.0414  0.2047
 9378TIP3    H152329   3.784   2.675   6.291 -0.2695  1.9539 -0.4119
 9378TIP3    H252330   3.920   2.612   6.315 -0.5011  2.1967  1.7349
 9379TIP3   OH252331   5.580   4.152   5.609 -0.6457 -0.1325 -0.0408
 9379TIP3    H152332   5.507   4.171   5.551 -1.5077 -2.1843  0.2958
 9379TIP3    H252333   5.545   4.091   5.673  1.4514 -1.5593 -0.1541
 9380TIP3   OH252334   5.603   2.292   5.500 -0.2864 -0.0745  0.0987
 9380TIP3    H152335   5.522   2.247   5.525 -0.8014 -0.7974 -2.5834
 9380TIP3    H252336   5.601   2.295   5.404  2.3155  0.9481 -0.0140
 9381TIP3   OH252337   2.563   5.328   6.629 -0.3866  0.5083 -0.2475
 9381TIP3    H152338   2.617   5.300   6.703  1.7379 -0.4752 -2.0603
 9381TIP3    H252339   2.621   5.382   6.576 -1.4116  0.0801 -1.8821
 9382TIP3   OH252340   6.261   6.271   4.649 -0.2529  0.5250  0.4518
 9382TIP3    H152341   6.213   6.311   4.576 -0.2991  0.1601  0.2792
 9382TIP3    H252342   6.198   6.266   4.720 -0.4865  0.0046  0.2108
 9383TIP3   OH252343   3.612   0.491   6.634  0.1329  0.0904  0.1950
 9383TIP3    H152344   3.630   0.495   6.728  1.2047 -2.1051  0.1550
 9383TIP3    H252345   3.696   0.468   6.595 -0.1396  1.6428 -1.4045
 9384TIP3   OH252346   4.494   2.895   4.741 -0.4597  0.4855  0.6361
 9384TIP3    H152347   4.410   2.899   4.695 -1.3139 -2.2790  1.7704
 9384TIP3    H252348   4.503   2.981   4.782 -0.9634  2.0877 -2.3249
 9385TIP3   OH252349   5.191   2.925   4.863 -0.7913 -0.1798 -0.5230
 9385TIP3    H152350   5.148   2.857   4.812 -0.3037 -0.3414 -0.7206
 9385TIP3    H252351   5.216   2.882   4.945  0.5913 -0.5804 -1.1208
 9386TIP3   OH252352   3.196   7.517   5.844 -0.5074 -0.7763  0.2172
 9386TIP3    H152353   3.177   7.438   5.793  0.8678 -0.8708 -0.2044
 9386TIP3    H252354   3.286   7.539   5.820 -0.7133  0.6580  0.6869
 9387TIP3   OH252355   3.563   0.558   5.436 -0.4761 -0.1949 -0.1065
 9387TIP3    H152356   3.653   0.590   5.432 -0.3962 -0.3461  0.4088
 9387TIP3    H252357   3.534   0.555   5.345  1.1697 -3.3600 -0.6760
 9388TIP3   OH252358   6.299   4.835   5.217  0.3763  0.1851 -0.0264
 9388TIP3    H152359   6.316   4.909   5.160 -0.0652  0.4391  0.1626
 9388TIP3    H252360   6.214   4.854   5.257 -0.1547 -0.8304 -0.6263
 9389TIP3   OH252361   4.307   4.289   5.590 -0.2686 -0.6849  0.2889
 9389TIP3    H152362   4.347   4.260   5.507 -1.6682  0.0943 -0.7091
 9389TIP3    H252363   4.220   4.248   5.590 -0.1845 -0.8880  1.5223
 9390TIP3   OH252364   4.850   4.474   5.783  0.0386  0.3036 -0.1632
 9390TIP3    H152365   4.773   4.524   5.810 -0.7372  0.2586 -2.1066
 9390TIP3    H252366   4.831   4.384   5.810  0.3197  0.5929  1.0934
 9391TIP3   OH252367   4.698   3.120   5.635  0.3232 -0.2965  0.0907
 9391TIP3    H152368   4.656   3.196   5.676 -2.2253 -0.1554 -2.4448
 9391TIP3    H252369   4.643   3.046   5.660 -0.4144 -0.4204 -1.7714
 9392TIP3   OH252370   5.157   4.941   6.612  0.0215  0.0037  0.0904
 9392TIP3    H152371   5.216   4.945   6.688 -0.9918 -2.4456  1.1207
 9392TIP3    H252372   5.211   4.906   6.542  0.6679  1.1721 -0.0194
 9393TIP3   OH252373   3.802   7.617   6.855  0.5741  0.6115 -0.1158
 9393TIP3    H152374   3.719   7.571   6.860  0.7515  0.2073 -0.8011
 9393TIP3    H252375   3.786   7.700   6.901  0.1487  0.0412  0.7964
 9394TIP3   OH252376   4.178   2.286   6.333  0.3405  1.0039 -0.3638
 9394TIP3    H152377   4.220   2.288   6.247 -0.5293  0.0655 -0.8323
 9394TIP3    H252378   4.251   2.288   6.395  1.1763 -1.2820 -1.1572
 9395TIP3   OH252379   7.443   4.473   6.356 -0.2445  0.0224  1.0276
 9395TIP3    H152380   7.491   4.463   6.439  0.7775 -1.9396  0.2644
 9395TIP3    H252381   7.356   4.438   6.375 -0.7458  1.5909  1.8224
 9396TIP3   OH252382   3.333   1.101   5.116  0.0202  0.4710  0.1519
 9396TIP3    H152383   3.410   1.153   5.139  0.0845 -0.0350  1.1645
 9396TIP3    H252384   3.271   1.116   5.188  0.5277 -1.7869  1.1741
 9397TIP3   OH252385   1.486   3.580   7.345 -0.3254 -0.7521 -0.1084
 9397TIP3    H152386   1.404   3.547   7.308  0.0426  0.3923 -2.1144
 9397TIP3    H252387   1.486   3.674   7.324  0.7796 -0.4043  1.2756
 9398TIP3   OH252388   0.967   6.351   6.102 -1.0300  0.5896  0.2346
 9398TIP3    H152389   0.907   6.315   6.037 -1.1640 -1.1330  1.2257
 9398TIP3    H252390   1.025   6.409   6.053 -1.1908 -0.5638 -1.4105
 9399TIP3   OH252391   3.565   6.476   6.518 -0.2173  1.1416  0.4186
 9399TIP3    H152392   3.639   6.536   6.525 -0.5778  1.5303  1.0457
 9399TIP3    H252393   3.530   6.470   6.607  1.1733 -1.7826  0.8906
 9400TIP3   OH252394   2.602   7.340   7.011  0.1009  0.7373 -0.1738
 9400TIP3    H152395   2.510   7.320   7.024  0.4121 -2.2615 -1.6152
 9400TIP3    H252396   2.646   7.303   7.088  0.3603 -1.5030 -1.2952
 9401TIP3   OH252397   3.267   4.509   5.272 -0.2530  0.0104 -0.5974
 9401TIP3    H152398   3.174   4.488   5.261 -0.0413 -1.1111 -0.3783
 9401TIP3    H252399   3.271   4.557   5.355 -0.3952 -1.9454  0.6164
 9402TIP3   OH252400   7.564   2.794   6.832 -0.6077 -0.5133 -0.3720
 9402TIP3    H152401   7.495   2.850   6.867  0.4478  0.7740 -0.2993
 9402TIP3    H252402   7.547   2.708   6.871 -1.2787  0.1486  0.8562
 9403TIP3   OH252403   4.205   3.512   5.251  0.0788  0.2613 -0.1673
 9403TIP3    H152404   4.138   3.454   5.286  0.1573  0.1826 -0.1467
 9403TIP3    H252405   4.194   3.594   5.300  0.0532  0.2200 -0.1034
 9404TIP3   OH252406   6.179   7.501   6.053  0.0882  0.1683 -0.3443
 9404TIP3    H152407   6.210   7.584   6.090  1.4094 -0.8315  0.9178
 9404TIP3    H252408   6.167   7.444   6.129  1.1428 -1.4126 -1.2889
 9405TIP3   OH252409   6.874   4.437   6.405  0.7913 -0.0262 -0.8724
 9405TIP3    H152410   6.835   4.514   6.365 -2.2237 -1.5828 -1.2804
 9405TIP3    H252411   6.873   4.456   6.499 -0.7383  0.1488 -0.8986
 9406TIP3   OH252412   0.048   1.766   5.826  0.7088 -0.3383 -0.3159
 9406TIP3    H152413   0.018   1.791   5.913  0.6214  0.5388 -0.5898
 9406TIP3    H252414  -0.031   1.767   5.772  0.5976 -1.8292 -0.2062
 9407TIP3   OH252415   5.791   4.027   4.531 -0.1505 -0.3120 -0.5262
 9407TIP3    H152416   5.885   4.015   4.547 -0.1872 -1.4840 -1.1390
 9407TIP3    H252417   5.749   3.969   4.594 -0.4537 -0.2826 -0.7023
 9408TIP3   OH252418   0.867   2.738   5.642  0.3528  0.0401 -0.5404
 9408TIP3    H152419   0.905   2.779   5.565  1.9782  2.2699  1.3133
 9408TIP3    H252420   0.780   2.777   5.649  0.3072  0.0371 -1.0662
 9409TIP3   OH252421   4.053   7.318   7.044 -0.0119 -0.0197 -0.0487
 9409TIP3    H152422   4.048   7.224   7.058 -0.6070  0.0017 -0.0717
 9409TIP3    H252423   3.988   7.355   7.104  0.0437  0.3541 -0.2150
 9410TIP3   OH252424   4.547   4.344   6.714  0.4557 -0.2678  0.7690
 9410TIP3    H152425   4.512   4.428   6.741 -0.5658 -0.6643  0.7236
 9410TIP3    H252426   4.546   4.290   6.793 -0.8362 -0.8620  0.3817
 9411TIP3   OH252427   6.594   5.075   5.946 -0.2266  0.2839 -0.2588
 9411TIP3    H152428   6.521   5.137   5.952  0.5458  1.2807 -0.6940
 9411TIP3    H252429   6.671   5.127   5.969  0.4174 -0.5957 -0.3642
 9412TIP3   OH252430   6.159   5.658   5.501  0.0469 -0.7121 -0.2961
 9412TIP3    H152431   6.093   5.591   5.520 -0.0871 -1.1322 -2.0165
 9412TIP3    H252432   6.114   5.721   5.446  0.1073  0.9870  1.5070
 9413TIP3   OH252433   2.889   3.172   6.166  0.3714  0.0699  0.7735
 9413TIP3    H152434   2.959   3.233   6.142 -0.0129  0.6882  1.1887
 9413TIP3    H252435   2.932   3.087   6.172  0.9274  0.2998  0.2194
 9414TIP3   OH252436   6.508   6.607   7.141 -0.1682  0.2373 -0.3420
 9414TIP3    H152437   6.423   6.651   7.133 -1.1878 -1.9582 -2.9652
 9414TIP3    H252438   6.545   6.610   7.053  1.8536 -0.1345  0.4409
 9415TIP3   OH252439   6.126   5.368   6.691 -0.4362  0.0663 -0.3624
 9415TIP3    H152440   6.105   5.410   6.775  0.6278  1.3881 -0.7156
 9415TIP3    H252441   6.216   5.395   6.673  0.0421 -1.8289 -0.9930
 9416TIP3   OH252442   7.328   6.932   5.062 -0.4237  1.0691 -0.3792
 9416TIP3    H152443   7.305   6.841   5.040  0.0514  0.0719  2.6801
 9416TIP3    H252444   7.379   6.962   4.987 -0.7276 -1.1469 -1.5770
 9417TIP3   OH252445   5.467   6.742   7.526  0.1135  0.2189  0.0131
 9417TIP3    H152446   5.534   6.767   7.590 -0.8397 -0.8335  1.4932
 9417TIP3    H252447   5.514   6.690   7.462  0.9597  0.6201  0.2886
 9418TIP3   OH252448   7.586   6.385   4.937 -0.3073 -0.1555  0.3788
 9418TIP3    H152449   7.508   6.414   4.984 -0.3751  0.5380 -0.1523
 9418TIP3    H252450   7.554   6.356   4.852 -0.3004 -2.2449  1.0149
 9419TIP3   OH252451   4.228   6.522   5.228  0.1269 -0.1746 -0.3521
 9419TIP3    H152452   4.240   6.480   5.142  0.0084  0.6498 -0.7804
 9419TIP3    H252453   4.151   6.479   5.264 -0.1951 -0.1023 -0.9349
 9420TIP3   OH252454   2.239   3.203   4.924 -0.2359 -0.3167  0.7323
 9420TIP3    H152455   2.171   3.182   4.989  0.3099 -0.1060  1.3749
 9420TIP3    H252456   2.191   3.244   4.852 -0.8677 -0.6748  0.9388
 9421TIP3   OH252457   3.025   0.395   6.603  0.0963  0.8499 -0.4030
 9421TIP3    H152458   3.048   0.368   6.514  1.3609 -1.4182  0.5241
 9421TIP3    H252459   3.001   0.314   6.648  0.2942  1.7992  1.5506
 9422TIP3   OH252460   6.970   0.645   6.188 -0.6650  0.2433 -0.6552
 9422TIP3    H152461   6.986   0.735   6.217 -1.0520  0.0313  0.2631
 9422TIP3    H252462   6.949   0.598   6.269  1.0622 -1.0267 -0.8790
 9423TIP3   OH252463   5.560   3.525   5.748 -0.1394  0.1713  0.3289
 9423TIP3    H152464   5.628   3.581   5.784 -0.9460  1.8325 -0.6315
 9423TIP3    H252465   5.573   3.528   5.653  0.1299 -1.7420  0.2539
 9424TIP3   OH252466   7.357   3.434   6.685 -0.2423 -1.3110 -0.0917
 9424TIP3    H152467   7.285   3.498   6.688  1.2499  0.5143 -1.1457
 9424TIP3    H252468   7.356   3.393   6.771 -0.0757  1.5335  1.3844
 9425TIP3   OH252469   0.997   6.613   6.245  0.2041 -0.2583 -0.0170
 9425TIP3    H152470   1.048   6.692   6.262 -0.2680  0.0776 -0.1353
 9425TIP3    H252471   1.061   6.548   6.217  0.6362 -0.0088  0.3885
 9426TIP3   OH252472   1.539   0.591   6.178 -0.5173 -0.2270 -0.1306
 9426TIP3    H152473   1.499   0.649   6.113 -0.5962 -1.1540 -0.9362
 9426TIP3    H252474   1.587   0.527   6.126  1.4639  0.4395  0.7927
 9427TIP3   OH252475   7.372   4.879   4.944 -0.4019 -0.4432  0.2952
 9427TIP3    H152476   7.304   4.927   4.992  0.1589 -1.3329  2.0657
 9427TIP3    H252477   7.451   4.891   4.995  0.1183 -1.8496 -0.1220
 9428TIP3   OH252478   5.670   7.625   5.518  0.3990  0.4561 -0.0697
 9428TIP3    H152479   5.576   7.606   5.525  0.4705 -0.8926 -2.0771
 9428TIP3    H252480   5.688   7.683   5.593 -1.4317 -1.4635  2.0188
 9429TIP3   OH252481   5.421   6.562   6.319  0.0901  0.4713 -0.7831
 9429TIP3    H152482   5.337   6.580   6.277  0.1761  0.0985 -1.1211
 9429TIP3    H252483   5.424   6.466   6.324 -0.6527  0.5033  1.5471
 9430TIP3   OH252484   6.731   5.013   6.199 -0.1935  0.2824  0.0608
 9430TIP3    H152485   6.695   4.942   6.254  0.1780  0.6561  0.8016
 9430TIP3    H252486   6.692   4.998   6.113 -0.6133 -0.4558  0.3637
 9431TIP3   OH252487   1.662   1.663   5.528  0.1441  0.6559 -0.0094
 9431TIP3    H152488   1.687   1.666   5.435 -1.7892 -2.0411 -0.7424
 9431TIP3    H252489   1.634   1.573   5.542 -0.7287  1.2864  2.9254
 9432TIP3   OH252490   6.357   6.913   4.642 -0.0195  0.5456  0.2822
 9432TIP3    H152491   6.288   6.967   4.605  0.0143  1.3617  1.3674
 9432TIP3    H252492   6.316   6.827   4.654 -0.0665  0.2754 -1.4660
 9433TIP3   OH252493   4.444   7.157   5.229 -0.3078 -0.2614 -0.5219
 9433TIP3    H152494   4.378   7.223   5.249 -1.0790 -0.8711 -0.9885
 9433TIP3    H252495   4.457   7.109   5.311 -2.5701 -1.9758 -1.0496
 9434TIP3   OH252496   0.544   5.932   5.073  0.2629 -0.4997 -0.3887
 9434TIP3    H152497   0.625   5.976   5.101 -0.1805  0.4528 -0.5642
 9434TIP3    H252498   0.574   5.853   5.028  1.1674  0.5193 -1.6363
 9435TIP3   OH252499   1.461   5.053   6.509 -0.6550 -0.0564 -0.4333
 9435TIP3    H152500   1.529   4.989   6.531 -0.0770  0.9943  0.9987
 9435TIP3    H252501   1.456   5.110   6.586  0.9244  3.3903 -2.6386
 9436TIP3   OH252502   0.077   3.998   6.279  0.6554  0.0328 -0.3803
 9436TIP3    H152503   0.051   4.025   6.367  0.6222  0.0150 -0.3847
 9436TIP3    H252504   0.169   4.026   6.272  0.5319  0.4273 -0.4962
 9437TIP3   OH252505   0.800   6.797   6.196  0.0360 -0.4255 -0.1433
 9437TIP3    H152506   0.872   6.734   6.208 -1.0658 -1.8560 -0.8061
 9437TIP3    H252507   0.757   6.800   6.281 -0.1524 -0.8890 -0.2200
 9438TIP3   OH252508   4.069   0.559   4.712 -0.2393  0.1708  0.1220
 9438TIP3    H152509   3.989   0.508   4.702 -0.0531 -0.2268  0.6331
 9438TIP3    H252510   4.049   0.644   4.672 -1.0009  0.1601  0.4791
 9439TIP3   OH252511   1.392   6.744   6.420  0.3029 -0.0509  0.1407
 9439TIP3    H152512   1.313   6.775   6.376  0.5998 -0.3512 -0.6324
 9439TIP3    H252513   1.361   6.704   6.501 -0.4212 -0.9125 -0.5543
 9440TIP3   OH252514   7.663   7.009   6.934 -0.0350  0.4360 -0.8215
 9440TIP3    H152515   7.621   7.082   6.979  0.6702  0.1216  0.3855
 9440TIP3    H252516   7.677   6.943   7.002  1.5323  0.1521 -1.3736
 9441TIP3   OH252517   2.803   6.554   7.113  0.2483  0.7185  0.1192
 9441TIP3    H152518   2.782   6.618   7.181 -0.9412  0.4000  0.0729
 9441TIP3    H252519   2.899   6.553   7.111  0.3002  1.7098  0.8543
 9442TIP3   OH252520   6.918   0.083   6.589 -0.5179  0.4581  0.1262
 9442TIP3    H152521   6.913   0.173   6.623  3.1754  0.8997 -0.1505
 9442TIP3    H252522   6.950   0.093   6.500 -1.5810 -1.1122 -0.4689
 9443TIP3   OH252523   5.984   5.014   5.980  0.1280 -0.1295 -0.0807
 9443TIP3    H152524   6.010   5.096   5.938 -0.5352 -0.3948 -1.0485
 9443TIP3    H252525   5.904   5.036   6.028 -1.0973 -0.5761 -1.8239
 9444TIP3   OH252526   0.137   6.315   7.161  0.6450 -0.3800 -0.4229
 9444TIP3    H152527   0.111   6.224   7.160 -1.6769  0.1296  2.3117
 9444TIP3    H252528   0.055   6.364   7.160  1.7592  1.6215  0.0715
 9445TIP3   OH252529   4.930   3.470   6.027 -0.0203 -0.1352 -0.5490
 9445TIP3    H152530   4.915   3.376   6.029 -0.6890 -0.0335 -0.4979
 9445TIP3    H252531   4.994   3.486   6.097 -0.3086 -0.4860 -0.1996
 9446TIP3   OH252532   6.696   4.503   5.767 -0.9455  0.1884  0.0488
 9446TIP3    H152533   6.699   4.525   5.860  0.0842 -1.1547  0.3538
 9446TIP3    H252534   6.618   4.548   5.735 -0.2536  2.3002  1.1201
 9447TIP3   OH252535   0.796   0.293   7.764  0.1387  0.1939 -0.1643
 9447TIP3    H152536   0.808   0.366   7.704 -0.6066  0.0941 -0.4527
 9447TIP3    H252537   0.806   0.215   7.710  2.8182 -0.0101  0.4878
 9448TIP3   OH252538   5.984   0.688   5.182  0.6361 -0.1967  0.6109
 9448TIP3    H152539   5.943   0.603   5.198 -0.6002  0.4247  0.8537
 9448TIP3    H252540   6.057   0.669   5.123 -1.2541 -1.0633 -1.5818
 9449TIP3   OH252541   1.005   6.235   6.569 -0.4331  0.1402 -0.7146
 9449TIP3    H152542   1.067   6.275   6.629  0.9856 -2.2820 -0.4506
 9449TIP3    H252543   1.033   6.263   6.482  2.6665 -2.7234 -0.8236
 9450TIP3   OH252544   1.913   7.301   4.612  0.4613  0.3732 -0.5830
 9450TIP3    H152545   1.902   7.268   4.523  0.8933  0.5924 -0.7171
 9450TIP3    H252546   1.920   7.396   4.603  3.9175  0.2127 -0.6949
 9451TIP3   OH252547   3.690   7.663   5.143 -0.6414  0.3887  0.0330
 9451TIP3    H152548   3.638   7.633   5.217  0.2586  0.2344  0.6085
 9451TIP3    H252549   3.672   7.599   5.074  0.7191 -1.1438  1.0273
 9452TIP3   OH252550   7.194   5.127   4.818 -0.1153  0.1979  0.3082
 9452TIP3    H152551   7.131   5.199   4.821 -0.6571 -0.1857 -0.9645
 9452TIP3    H252552   7.141   5.048   4.829  0.4606 -0.0331  1.5796
 9453TIP3   OH252553   1.177   5.745   6.279 -0.5583  0.3755 -0.1323
 9453TIP3    H152554   1.231   5.686   6.227 -0.4906  1.3054 -1.1599
 9453TIP3    H252555   1.123   5.791   6.214 -2.1128 -0.0444  0.8043
 9454TIP3   OH252556   3.568   6.886   5.969  0.5486 -0.3904  0.2497
 9454TIP3    H152557   3.547   6.970   6.009  1.5178 -0.2823  0.5701
 9454TIP3    H252558   3.546   6.897   5.876  0.7188  0.2301  0.2795
 9455TIP3   OH252559   2.787   1.940   5.032 -0.1923 -0.0552  0.3102
 9455TIP3    H152560   2.707   1.894   5.057 -0.3803  0.1159  0.0316
 9455TIP3    H252561   2.759   2.030   5.017 -0.7401 -0.6747 -3.4865
 9456TIP3   OH252562   1.843   1.187   4.839  0.0978 -0.6324  0.5012
 9456TIP3    H152563   1.865   1.098   4.813 -0.7312 -0.0605 -2.5674
 9456TIP3    H252564   1.762   1.207   4.792  1.4359  2.4617 -0.8267
 9457TIP3   OH252565   3.651   0.277   5.568 -0.5443  0.0692  0.0924
 9457TIP3    H152566   3.617   0.366   5.573 -2.5091 -0.5421 -1.1450
 9457TIP3    H252567   3.706   0.277   5.489 -1.0653  0.0346 -0.2741
 9458TIP3   OH252568   0.716   1.686   7.457 -0.5769 -0.4486 -0.3453
 9458TIP3    H152569   0.689   1.778   7.447 -1.7356 -0.7614 -0.1857
 9458TIP3    H252570   0.811   1.691   7.473 -0.1919  0.5955 -2.5221
 9459TIP3   OH252571   2.034   2.304   6.298 -0.2366 -0.6374  0.2571
 9459TIP3    H152572   2.085   2.288   6.377  0.8064 -0.2297 -0.3025
 9459TIP3    H252573   1.950   2.261   6.313 -0.8398  1.1157  2.3987
 9460TIP3   OH252574   2.232   1.673   4.915 -0.4027  0.3081  0.1860
 9460TIP3    H152575   2.244   1.640   4.826  2.1939  1.0791  0.1840
 9460TIP3    H252576   2.232   1.768   4.906  0.8213  0.4040  1.0990
 9461TIP3   OH252577   4.175   7.673   6.226 -0.6159  0.0163  0.1945
 9461TIP3    H152578   4.236   7.671   6.153 -0.8812  0.2705 -0.0352
 9461TIP3    H252579   4.171   7.765   6.252  0.6860 -0.2711  1.5606
 9462TIP3   OH252580   1.028   7.274   6.416  0.3835  0.2106  0.0409
 9462TIP3    H152581   1.030   7.306   6.326 -0.8618  2.4776  0.7490
 9462TIP3    H252582   1.083   7.335   6.465  1.2389 -1.1216  0.8297
 9463TIP3   OH252583   5.968   3.454   5.259  0.2647  0.1195  0.3543
 9463TIP3    H152584   5.987   3.394   5.187  1.3528 -0.2911  0.9694
 9463TIP3    H252585   5.955   3.398   5.335  0.2641  0.6100  0.7209
 9464TIP3   OH252586   5.708   0.965   5.532  0.2175  0.2517 -0.0433
 9464TIP3    H152587   5.665   1.016   5.464 -0.5134 -1.4894 -0.9609
 9464TIP3    H252588   5.665   0.991   5.613 -2.2584 -0.9727 -0.8528
 9465TIP3   OH252589   3.471   6.829   4.925 -0.0901 -0.3970 -0.6979
 9465TIP3    H152590   3.403   6.885   4.887  0.0811  1.1441  1.1608
 9465TIP3    H252591   3.495   6.871   5.007 -1.0499 -3.9535  1.6498
 9466TIP3   OH252592   6.666   0.095   5.772 -0.2493 -0.7287  0.0934
 9466TIP3    H152593   6.713   0.122   5.693 -0.0016  0.3440  0.5853
 9466TIP3    H252594   6.588   0.150   5.773 -0.0167 -0.3962  0.8301
 9467TIP3   OH252595   6.393   2.249   5.984 -0.1835  0.2678 -0.4146
 9467TIP3    H152596   6.446   2.195   6.043 -1.0358 -0.8999 -0.6855
 9467TIP3    H252597   6.453   2.317   5.954  0.6105  0.1410  0.8128
 9468TIP3   OH252598   7.136   0.152   6.424  0.2297  0.0188 -0.6009
 9468TIP3    H152599   7.191   0.221   6.461  0.2878  0.2049 -1.0261
 9468TIP3    H252600   7.109   0.186   6.339 -1.2682  0.3013 -0.0471
 9469TIP3   OH252601   3.979   4.731   5.993  0.2857 -0.0149 -0.1370
 9469TIP3    H152602   3.965   4.651   5.943 -0.0474 -0.1800  0.2222
 9469TIP3    H252603   3.996   4.798   5.926  0.9727 -0.4588 -0.4156
 9470TIP3   OH252604   4.417   5.751   4.925 -1.0091  0.2773  0.2451
 9470TIP3    H152605   4.394   5.662   4.949 -3.5450  1.5274  3.1112
 9470TIP3    H252606   4.336   5.789   4.891 -0.1052  1.6775 -0.4590
 9471TIP3   OH252607   1.810   1.233   7.087 -0.3103  0.2313 -0.8933
 9471TIP3    H152608   1.809   1.188   7.171 -2.3950 -2.1136 -2.0434
 9471TIP3    H252609   1.785   1.323   7.107  4.7181  1.4024  1.5984
 9472TIP3   OH252610   1.077   7.243   5.346 -0.2729 -0.1426  0.4830
 9472TIP3    H152611   1.101   7.161   5.389 -0.7999 -0.1386  0.7988
 9472TIP3    H252612   1.120   7.311   5.398 -0.5304 -0.1691  0.7365
 9473TIP3   OH252613   6.556   2.959   5.653 -0.2178 -1.1126  0.8359
 9473TIP3    H152614   6.552   2.882   5.596  1.7881 -0.1524 -0.7656
 9473TIP3    H252615   6.465   2.987   5.664 -0.7173 -0.6257 -3.0438
 9474TIP3   OH252616   3.411   6.285   4.808  0.1660 -0.1890 -0.2129
 9474TIP3    H152617   3.323   6.310   4.837  1.3245 -0.2571  3.9557
 9474TIP3    H252618   3.448   6.366   4.772 -1.0593  0.1874 -0.6852
 9475TIP3   OH252619   5.725   6.046   6.754  0.1928  0.1436 -0.2847
 9475TIP3    H152620   5.686   5.975   6.704  0.7470 -1.5504  1.5582
 9475TIP3    H252621   5.777   6.003   6.821 -0.5714  2.2410  1.8205
 9476TIP3   OH252622   1.186   2.038   4.713 -0.1232 -0.3318 -0.0707
 9476TIP3    H152623   1.136   2.119   4.725 -1.3946 -1.1745  0.5405
 9476TIP3    H252624   1.276   2.062   4.736 -0.4713  0.9012  0.1024
 9477TIP3   OH252625   7.564   4.155   5.874  0.0333 -0.1675  0.3537
 9477TIP3    H152626   7.485   4.166   5.820  0.9999  0.2201 -1.0515
 9477TIP3    H252627   7.534   4.110   5.952 -1.9584  1.7189  0.7750
 9478TIP3   OH252628   1.488   0.261   6.633 -0.0995 -0.2362 -0.0286
 9478TIP3    H152629   1.434   0.323   6.683 -0.6687 -1.7762  1.3518
 9478TIP3    H252630   1.577   0.278   6.663  0.1398  1.6269 -1.5766
 9479TIP3   OH252631   1.870   5.557   4.753 -0.4570  0.0706 -0.2424
 9479TIP3    H152632   1.820   5.554   4.671 -0.4192 -1.7515 -0.2412
 9479TIP3    H252633   1.855   5.471   4.793  0.9231  0.2912  0.8147
 9480TIP3   OH252634   7.486   5.795   5.632  0.2753  0.1715  0.0958
 9480TIP3    H152635   7.482   5.891   5.641  0.1689  0.2297 -0.5675
 9480TIP3    H252636   7.483   5.779   5.538 -0.4774 -0.5179  0.2266
 9481TIP3   OH252637   0.710   0.667   6.606  0.4161 -0.6638 -0.1294
 9481TIP3    H152638   0.789   0.695   6.654  0.6729 -2.1089  0.3427
 9481TIP3    H252639   0.646   0.736   6.624  1.3981  0.2705 -0.0740
 9482TIP3   OH252640   3.533   1.789   6.458 -0.0838 -0.1866  0.2787
 9482TIP3    H152641   3.551   1.817   6.368  1.6877  0.3781  0.7700
 9482TIP3    H252642   3.472   1.716   6.448 -1.0835  0.7916 -1.2913
 9483TIP3   OH252643   1.672   3.305   5.449 -0.7613 -0.1531  0.3164
 9483TIP3    H152644   1.734   3.257   5.504 -0.6230  0.3488  0.5992
 9483TIP3    H252645   1.709   3.298   5.361  0.4172  1.2467  0.6644
 9484TIP3   OH252646   5.008   3.008   6.037 -0.3571  0.2465 -0.0044
 9484TIP3    H152647   4.989   3.069   6.109 -0.0556 -0.0474  0.3256
 9484TIP3    H252648   4.976   3.053   5.959 -0.2448  0.7783  0.2518
 9485TIP3   OH252649   5.330   3.512   6.766  0.3691  0.5470 -0.4095
 9485TIP3    H152650   5.297   3.588   6.814  0.1752 -0.4499  1.0931
 9485TIP3    H252651   5.274   3.440   6.793  1.4807 -0.4432 -0.6388
 9486TIP3   OH252652   7.448   6.039   4.766  0.3189 -0.0546 -0.2193
 9486TIP3    H152653   7.489   5.953   4.768  0.2415 -0.0866  0.8014
 9486TIP3    H252654   7.354   6.021   4.767  0.3038  0.0359  0.4893
 9487TIP3   OH252655   2.268   0.727   6.703 -0.1485 -0.1559 -0.2590
 9487TIP3    H152656   2.358   0.696   6.690  0.7248  1.2581  1.8626
 9487TIP3    H252657   2.251   0.786   6.629  0.9946  0.2189 -0.2347
 9488TIP3   OH252658   4.205   6.183   6.735  0.6890  0.2426  0.2182
 9488TIP3    H152659   4.217   6.160   6.643  1.8816 -1.2992  0.7103
 9488TIP3    H252660   4.263   6.257   6.749  1.1529 -0.0582 -0.0817
 9489TIP3   OH252661   1.629   3.051   6.603  0.4819  0.2064 -0.2309
 9489TIP3    H152662   1.718   3.054   6.569 -0.0119  1.0722 -1.5298
 9489TIP3    H252663   1.628   2.975   6.660  2.5756  1.2707  1.3654
 9490TIP3   OH252664   3.527   7.646   5.363  0.3869 -0.2763 -0.0942
 9490TIP3    H152665   3.462   7.710   5.390  0.4248  0.5052 -1.7386
 9490TIP3    H252666   3.604   7.665   5.417  0.1609  0.6094 -0.0729
 9491TIP3   OH252667   3.775   1.901   7.421  0.2649  0.5901  0.3723
 9491TIP3    H152668   3.762   1.905   7.516 -0.9241  1.7386  0.1801
 9491TIP3    H252669   3.708   1.840   7.390  0.5968  0.2828  0.2506
 9492TIP3   OH252670   1.878   1.227   5.725  0.0064 -0.0334 -0.1219
 9492TIP3    H152671   1.893   1.303   5.781  0.9327 -0.8851  0.8451
 9492TIP3    H252672   1.788   1.201   5.743 -0.4078  0.9852 -0.6713
 9493TIP3   OH252673   0.054   5.668   6.654 -0.5850 -0.2728  0.1502
 9493TIP3    H152674   0.080   5.615   6.579 -0.7295  1.0304 -0.8555
 9493TIP3    H252675  -0.026   5.712   6.625 -0.5085  0.4273  0.9705
 9494TIP3   OH252676   1.587   2.971   5.591  0.1462  0.2549 -0.5266
 9494TIP3    H152677   1.571   2.905   5.658  0.9360  0.6976  0.1151
 9494TIP3    H252678   1.672   3.010   5.614 -0.8736  2.4065 -0.1219
 9495TIP3   OH252679   4.119   5.825   6.564 -0.1067 -0.0802  0.2627
 9495TIP3    H152680   4.133   5.778   6.646  0.2278  0.6897  0.6639
 9495TIP3    H252681   4.077   5.761   6.506 -0.6382 -0.5463  1.1318
 9496TIP3   OH252682   7.616   7.021   5.136 -0.4448 -0.6288 -0.3088
 9496TIP3    H152683   7.526   7.029   5.167 -0.2128  0.4112  0.1269
 9496TIP3    H252684   7.624   7.088   5.068  0.7810  1.2758  1.5749
 9497TIP3   OH252685   5.792   6.710   7.053 -0.0559  0.4101 -0.0046
 9497TIP3    H152686   5.726   6.654   7.011 -0.7301  0.9815  0.2600
 9497TIP3    H252687   5.844   6.650   7.107 -0.5547 -0.0090  0.0175
 9498TIP3   OH252688   2.029   0.937   6.711  0.2869  0.0285  0.1277
 9498TIP3    H152689   2.012   0.861   6.656  1.0454 -0.8113  1.0380
 9498TIP3    H252690   1.943   0.961   6.746  0.0775 -0.5411  0.0101
 9499TIP3   OH252691   2.139   3.406   5.192  0.3418 -0.3408 -0.1699
 9499TIP3    H152692   2.158   3.446   5.107 -1.0179 -0.8311 -0.7362
 9499TIP3    H252693   2.048   3.377   5.185  0.9061 -2.4792  0.6231
 9500TIP3   OH252694   7.166   3.168   5.262 -0.1385  0.3540 -0.2351
 9500TIP3    H152695   7.143   3.222   5.186  1.0176  1.9811  0.4941
 9500TIP3    H252696   7.087   3.118   5.281 -0.6179  0.3063 -2.1761
 9501TIP3   OH252697   0.823   1.196   7.700 -0.7447  0.1199 -0.6656
 9501TIP3    H152698   0.791   1.153   7.779  1.0325 -0.5902 -0.2842
 9501TIP3    H252699   0.906   1.237   7.727 -1.2553  1.8830 -1.5939
 9502TIP3   OH252700   5.484   6.162   5.123 -0.1626 -0.1763 -0.3785
 9502TIP3    H152701   5.552   6.098   5.099 -0.2909 -0.9927  1.2396
 9502TIP3    H252702   5.492   6.168   5.219  0.1756  2.6417 -0.5221
 9503TIP3   OH252703   1.725   6.371   5.482  0.3212  0.0572 -0.0047
 9503TIP3    H152704   1.778   6.292   5.467  0.9498 -0.0887  2.5974
 9503TIP3    H252705   1.774   6.441   5.438  0.4520 -0.7578 -1.2100
 9504TIP3   OH252706   6.405   5.427   6.695  0.6293 -0.1877  0.2270
 9504TIP3    H152707   6.429   5.462   6.780 -0.3717 -1.2532  0.9868
 9504TIP3    H252708   6.448   5.485   6.631 -0.3742  1.9424  1.4008
 9505TIP3   OH252709   6.929   6.653   5.646  0.3232 -0.1884 -0.1844
 9505TIP3    H152710   6.897   6.679   5.559  0.6836  1.7848  0.2480
 9505TIP3    H252711   6.970   6.731   5.681 -1.8993 -0.1905  2.7751
 9506TIP3   OH252712   1.884   2.987   6.588 -0.7833  0.0443  0.5089
 9506TIP3    H152713   1.870   2.893   6.599 -2.2621  0.4197  2.1422
 9506TIP3    H252714   1.936   3.013   6.665 -1.6407  0.8073  0.8452
 9507TIP3   OH252715   6.116   3.140   7.396 -1.0651  0.1557  0.0069
 9507TIP3    H152716   6.109   3.083   7.473  0.6759  0.3116  0.3247
 9507TIP3    H252717   6.118   3.080   7.322 -1.7419 -0.0501  0.1501
 9508TIP3   OH252718   7.346   2.467   5.646  0.2313 -0.5200 -0.1331
 9508TIP3    H152719   7.265   2.506   5.680  0.8347  0.6279  0.0387
 9508TIP3    H252720   7.334   2.464   5.551  0.5305  0.9638 -0.2339
 9509TIP3   OH252721   0.821   2.779   5.933 -0.0367  0.0086  0.1555
 9509TIP3    H152722   0.846   2.800   5.843 -1.2318 -0.2341 -0.2473
 9509TIP3    H252723   0.903   2.755   5.975  0.5512  0.1851 -0.8563
 9510TIP3   OH252724   4.354   0.947   4.929  0.0263 -0.7807 -0.4685
 9510TIP3    H152725   4.285   0.889   4.962 -2.3413  2.1346  0.1153
 9510TIP3    H252726   4.363   0.922   4.837 -0.7522 -2.1538 -0.2087
 9511TIP3   OH252727   1.858   6.301   6.689 -0.1254  0.1894  0.6857
 9511TIP3    H152728   1.893   6.277   6.603 -0.1115  1.1184  0.4169
 9511TIP3    H252729   1.930   6.289   6.750  0.1802  0.5196  0.3936
 9512TIP3   OH252730   3.412   4.962   7.641 -0.2383  0.5784 -0.0397
 9512TIP3    H152731   3.352   4.894   7.612 -2.9188  2.5214  0.5840
 9512TIP3    H252732   3.377   4.991   7.725  0.7436  2.7265 -0.2987
 9513TIP3   OH252733   4.128   3.253   5.823  0.3463 -0.2044 -0.0504
 9513TIP3    H152734   4.182   3.264   5.901  0.0096  0.5528  0.0776
 9513TIP3    H252735   4.186   3.209   5.760  1.6403  1.9425 -0.4431
 9514TIP3   OH252736   1.521   6.734   5.431 -0.0037 -0.1788 -0.1418
 9514TIP3    H152737   1.443   6.710   5.381 -0.6844  0.9082  0.3445
 9514TIP3    H252738   1.488   6.793   5.500  1.4377  1.6262 -0.8995
 9515TIP3   OH252739   1.100   0.063   7.038 -0.6642 -0.9734 -0.0108
 9515TIP3    H152740   1.040  -0.005   7.070 -0.1621 -1.7005 -0.5783
 9515TIP3    H252741   1.170   0.014   6.994 -0.5905 -0.0602 -0.9361
 9516TIP3   OH252742   6.162   6.953   7.428 -0.7047 -0.4054 -0.1527
 9516TIP3    H152743   6.207   6.875   7.460  0.5015  0.8264  1.3756
 9516TIP3    H252744   6.086   6.920   7.381  0.6720 -2.5341 -1.0254
 9517TIP3   OH252745   7.229   5.653   6.084  0.0853  0.1777  0.3758
 9517TIP3    H152746   7.176   5.732   6.078  0.2496  0.3588  1.2373
 9517TIP3    H252747   7.303   5.669   6.025 -0.8173 -0.1040 -0.8883
 9518TIP3   OH252748   0.143   2.612   4.914 -0.0806 -0.1727  0.1796
 9518TIP3    H152749   0.198   2.676   4.960  0.9537 -0.2962 -0.8548
 9518TIP3    H252750   0.054   2.631   4.944  0.2633  1.4404  0.2584
 9519TIP3   OH252751   2.226   0.880   5.635  0.3591 -0.0082  0.3760
 9519TIP3    H152752   2.273   0.798   5.621  0.8025  0.5109 -1.4433
 9519TIP3    H252753   2.289   0.937   5.680  0.1461 -0.5575  1.3861
 9520TIP3   OH252754   3.354   5.984   6.177 -0.1009 -0.1535  0.0760
 9520TIP3    H152755   3.448   5.982   6.194  0.0487  2.0175 -0.1679
 9520TIP3    H252756   3.347   6.007   6.084 -0.8165  2.1658  0.6479
 9521TIP3   OH252757   6.478   2.098   5.439  0.7542  0.0620 -0.1640
 9521TIP3    H152758   6.448   2.031   5.501  2.6462 -0.7450 -0.0351
 9521TIP3    H252759   6.569   2.116   5.466  0.8793  1.3438 -1.3358
 9522TIP3   OH252760   4.910   0.619   5.650  0.1292  0.5058 -0.6747
 9522TIP3    H152761   4.919   0.661   5.565 -0.1765 -0.7590 -1.3586
 9522TIP3    H252762   4.832   0.564   5.642  1.3266 -1.3201 -0.3327
 9523TIP3   OH252763   2.455   1.797   6.952  0.1419  0.3060 -0.2338
 9523TIP3    H152764   2.491   1.782   7.039 -1.2962 -0.8597  0.1982
 9523TIP3    H252765   2.424   1.888   6.954 -1.2444 -0.1524  1.0303
 9524TIP3   OH252766   6.821   3.881   5.621  0.1283  0.1605 -0.1480
 9524TIP3    H152767   6.815   3.787   5.634 -0.7890 -0.3171 -3.1771
 9524TIP3    H252768   6.733   3.908   5.593  1.2371  1.0564 -3.2905
 9525TIP3   OH252769   0.916   2.112   7.127 -0.4243  0.7138  0.2933
 9525TIP3    H152770   0.987   2.049   7.117  0.2064  1.5596 -0.7034
 9525TIP3    H252771   0.836   2.062   7.108 -0.0876 -0.1451  1.0407
 9526TIP3   OH252772   1.778   5.094   6.571 -0.5630 -0.6468  0.3560
 9526TIP3    H152773   1.765   5.189   6.573 -0.6166 -0.5837 -1.4730
 9526TIP3    H252774   1.704   5.059   6.622 -1.6759  0.2194 -0.5964
 9527TIP3   OH252775   5.387   2.819   6.479 -0.1845  0.1852 -0.5522
 9527TIP3    H152776   5.454   2.786   6.420 -1.0632 -0.5059 -1.1877
 9527TIP3    H252777   5.322   2.749   6.484 -0.8116  0.7952  0.1378
 9528TIP3   OH252778   7.343   1.716   7.306 -0.3475 -0.0475 -0.2903
 9528TIP3    H152779   7.396   1.787   7.343 -1.8111  0.4890  0.9002
 9528TIP3    H252780   7.383   1.636   7.338  1.8527  0.1149 -2.3483
 9529TIP3   OH252781   2.566   1.328   5.821  0.3470 -0.3353 -0.1632
 9529TIP3    H152782   2.546   1.271   5.895  1.7835 -1.5310 -0.6403
 9529TIP3    H252783   2.574   1.415   5.859 -1.2435 -0.5231  0.6904
 9530TIP3   OH252784   0.261   1.366   7.426 -0.3424 -0.3632 -0.9731
 9530TIP3    H152785   0.220   1.446   7.394 -1.4815 -1.3406 -2.0225
 9530TIP3    H252786   0.218   1.350   7.510  0.1670  0.3178 -0.5712
 9531TIP3   OH252787   1.323   1.568   6.984  0.3767 -0.6958 -0.1404
 9531TIP3    H152788   1.288   1.537   6.900  3.1722 -2.1213 -0.8811
 9531TIP3    H252789   1.329   1.663   6.974 -0.4874 -0.7103 -1.0419
 9532TIP3   OH252790   1.762   4.148   6.693 -0.0369  0.1350 -0.1170
 9532TIP3    H152791   1.675   4.135   6.656 -0.5066  1.5169  0.4255
 9532TIP3    H252792   1.774   4.074   6.752 -0.6611 -0.2923 -0.5054
 9533TIP3   OH252793   3.506   6.504   5.171  0.7157 -0.1406 -0.2008
 9533TIP3    H152794   3.539   6.565   5.237  0.7246 -0.2430 -0.1094
 9533TIP3    H252795   3.555   6.423   5.188  0.1861 -0.3916  0.1424
 9534TIP3   OH252796   4.402   4.065   6.391 -0.4170  0.1562 -0.1344
 9534TIP3    H152797   4.461   4.140   6.394 -1.0299  0.6300  0.5331
 9534TIP3    H252798   4.316   4.103   6.372 -0.5956 -0.4666 -0.5980
 9535TIP3   OH252799   6.049   6.500   5.620  0.6226  0.0306 -0.2720
 9535TIP3    H152800   6.104   6.549   5.680 -0.3174  0.4061  0.3046
 9535TIP3    H252801   6.022   6.423   5.669 -0.2831  0.4206 -0.1382
 9536TIP3   OH252802   1.223   3.377   4.999  0.0609 -0.1261 -0.5425
 9536TIP3    H152803   1.152   3.361   4.937 -0.7169  2.1916 -0.3493
 9536TIP3    H252804   1.192   3.343   5.082 -0.1362 -0.5900 -0.8087
 9537TIP3   OH252805   5.529   1.719   5.969  0.7034  0.0352 -0.2535
 9537TIP3    H152806   5.463   1.737   6.036  0.0277 -0.0195 -0.8888
 9537TIP3    H252807   5.609   1.700   6.019 -0.4853 -3.0591  0.6959
 9538TIP3   OH252808   5.593   2.010   5.081  0.3881 -0.4467  0.0968
 9538TIP3    H152809   5.606   2.029   4.988 -1.9424 -3.5269 -1.0537
 9538TIP3    H252810   5.670   1.959   5.106  1.1714  0.6516 -0.0037
 9539TIP3   OH252811   0.315   3.268   4.999 -0.6933 -0.3468  0.5478
 9539TIP3    H152812   0.292   3.338   4.938  0.9336 -0.4223 -0.2115
 9539TIP3    H252813   0.356   3.312   5.073  0.6854 -0.4655 -0.1020
 9540TIP3   OH252814   5.961   2.696   5.522  0.6382 -0.3611 -0.2853
 9540TIP3    H152815   5.985   2.617   5.475 -0.7417 -1.4493  0.7469
 9540TIP3    H252816   5.924   2.665   5.605  3.2006  1.4691  1.7260
 9541TIP3   OH252817   6.287   3.849   4.910 -0.0849 -0.6903 -0.0463
 9541TIP3    H152818   6.371   3.885   4.935 -0.8316  1.5612 -0.5550
 9541TIP3    H252819   6.228   3.870   4.983 -0.7332 -0.0258 -0.7321
 9542TIP3   OH252820   0.108   7.408   5.279 -0.0005 -0.3970 -0.5933
 9542TIP3    H152821   0.020   7.441   5.298 -0.4480 -1.4791 -0.7229
 9542TIP3    H252822   0.167   7.475   5.314 -0.8723  0.4677 -0.7375
 9543TIP3   OH252823   0.182   0.783   5.714 -0.1303 -0.2910 -0.3578
 9543TIP3    H152824   0.239   0.775   5.638  1.2656  0.7431  0.5300
 9543TIP3    H252825   0.198   0.871   5.747 -1.2049 -0.4791  0.7490
 9544TIP3   OH252826   6.587   5.858   5.618 -0.3349 -0.3267 -0.6605
 9544TIP3    H152827   6.538   5.890   5.693  0.2029  1.1846 -0.9308
 9544TIP3    H252828   6.601   5.935   5.563  2.1181 -0.7042 -0.7159
 9545TIP3   OH252829   1.144   0.118   6.347  0.3175 -0.1198  0.3220
 9545TIP3    H152830   1.232   0.082   6.357  0.5125  0.0211 -0.7489
 9545TIP3    H252831   1.111   0.077   6.267  0.6052  2.1069 -1.0307
 9546TIP3   OH252832   6.258   2.504   6.741 -1.2319  0.0236  0.4664
 9546TIP3    H152833   6.178   2.490   6.792  0.1663 -1.2029  2.5104
 9546TIP3    H252834   6.329   2.492   6.805  0.6275 -0.1939 -1.5218
 9547TIP3   OH252835   4.910   5.734   6.333 -0.1203 -0.2158  0.5624
 9547TIP3    H152836   4.996   5.759   6.300 -0.0426 -1.6804 -0.4513
 9547TIP3    H252837   4.851   5.801   6.298  0.2443 -0.6632 -0.9651
 9548TIP3   OH252838   7.261   4.694   6.520  0.0315 -0.4475  0.2975
 9548TIP3    H152839   7.225   4.706   6.432  1.0417 -1.0179 -0.2099
 9548TIP3    H252840   7.353   4.718   6.512  0.3170 -1.2316  1.0226
 9549TIP3   OH252841   2.442   3.917   5.587 -0.2207  0.0376 -0.3720
 9549TIP3    H152842   2.443   3.888   5.678 -1.0745 -1.0666 -0.6907
 9549TIP3    H252843   2.365   3.875   5.550  0.9056 -0.7062 -1.9734
 9550TIP3   OH252844   1.460   3.558   6.294  0.0683 -0.0779 -0.3587
 9550TIP3    H152845   1.427   3.513   6.372  0.1371  1.0775  0.3582
 9550TIP3    H252846   1.389   3.616   6.267  0.5287  0.5006 -0.3538
 9551TIP3   OH252847   4.411   7.340   4.830 -0.5443 -0.4376  0.0570
 9551TIP3    H152848   4.409   7.253   4.789 -0.5439 -0.4969  0.1819
 9551TIP3    H252849   4.474   7.331   4.901  1.0789  0.2584 -1.2410
 9552TIP3   OH252850   3.610   3.300   6.711 -0.0242 -0.1391  0.4933
 9552TIP3    H152851   3.531   3.354   6.706  1.5715  2.4286  1.2816
 9552TIP3    H252852   3.582   3.222   6.759 -2.0420  0.7546  0.8811
 9553TIP3   OH252853   0.603   5.699   4.686  0.0704  0.0450  0.6211
 9553TIP3    H152854   0.554   5.629   4.644  0.2612 -0.0075  0.4882
 9553TIP3    H252855   0.587   5.776   4.631 -0.6665  0.2609  1.1218
 9554TIP3   OH252856   5.183   3.700   6.037  0.6109  0.0631 -0.2203
 9554TIP3    H152857   5.212   3.636   5.972 -2.3562  0.1475 -1.8078
 9554TIP3    H252858   5.156   3.647   6.112 -0.2946 -0.4784 -0.8999
 9555TIP3   OH252859   7.120   2.203   5.019 -0.1930  0.0297 -0.4064
 9555TIP3    H152860   7.121   2.110   4.995 -1.0236  0.2960 -1.5828
 9555TIP3    H252861   7.199   2.239   4.978 -0.6074  0.1078 -1.1473
 9556TIP3   OH252862   2.326   5.912   5.704  0.2433 -0.4425  0.7108
 9556TIP3    H152863   2.413   5.949   5.692  0.6388 -1.3158  0.7863
 9556TIP3    H252864   2.341   5.831   5.753 -0.4980 -1.0852 -0.0752
 9557TIP3   OH252865   3.314   5.365   5.405 -0.2110 -0.4169  0.0693
 9557TIP3    H152866   3.312   5.342   5.498 -2.2734  1.1029  0.4792
 9557TIP3    H252867   3.248   5.307   5.365 -0.4418 -0.0093 -0.1458
 9558TIP3   OH252868   6.506   1.779   7.217  0.4825  0.5158 -0.2951
 9558TIP3    H152869   6.488   1.720   7.290 -0.0891  1.2400  0.1604
 9558TIP3    H252870   6.599   1.802   7.226  0.6056  0.0135 -0.2450
 9559TIP3   OH252871   2.176   0.318   4.567 -0.3325 -0.4228  0.2721
 9559TIP3    H152872   2.237   0.290   4.635 -1.2709 -0.9466  0.9220
 9559TIP3    H252873   2.229   0.371   4.508  0.8917 -1.3781  0.4685
 9560TIP3   OH252874   6.310   0.698   6.601 -0.1066  0.0398  0.8283
 9560TIP3    H152875   6.392   0.680   6.555 -0.2268  0.0809  0.5985
 9560TIP3    H252876   6.297   0.792   6.591 -0.9044 -0.1780 -0.3448
 9561TIP3   OH252877   3.830   1.775   6.336  0.2588 -0.5390  0.0747
 9561TIP3    H152878   3.908   1.771   6.392  0.6486 -0.0209 -0.4207
 9561TIP3    H252879   3.834   1.861   6.295 -0.3637 -0.6661 -0.2671
 9562TIP3   OH252880   6.830   5.243   6.260  0.3902 -0.2674 -0.3322
 9562TIP3    H152881   6.920   5.214   6.275  0.3831  0.5021  1.4808
 9562TIP3    H252882   6.781   5.162   6.246  0.9207 -0.9430  1.4488
 9563TIP3   OH252883   3.825   3.026   6.858  0.6065 -0.1247 -0.1509
 9563TIP3    H152884   3.847   2.934   6.841  0.3045 -0.3694  0.7036
 9563TIP3    H252885   3.733   3.034   6.833  0.9802  0.2880 -1.4555
 9564TIP3   OH252886   7.680   4.475   6.958 -0.6904  0.1503  0.3988
 9564TIP3    H152887   7.691   4.567   6.935 -1.0440 -0.1304 -1.0158
 9564TIP3    H252888   7.607   4.474   7.020  1.5300  1.1443  3.2407
 9565TIP3   OH252889   6.251   4.180   5.898  0.1141 -0.3523 -0.2800
 9565TIP3    H152890   6.190   4.254   5.892 -0.1070 -0.3910  1.1460
 9565TIP3    H252891   6.240   4.133   5.815 -0.9065  0.3274 -0.5500
 9566TIP3   OH252892   7.564   1.445   5.804 -0.3023  0.0221 -0.2251
 9566TIP3    H152893   7.641   1.389   5.789  0.9689  1.3986  0.7677
 9566TIP3    H252894   7.539   1.475   5.717  0.8494  0.2255 -0.5102
 9567TIP3   OH252895   3.166   7.653   6.074 -0.0160  0.3054 -0.5254
 9567TIP3    H152896   3.194   7.608   5.994  0.5676  1.4609 -0.9933
 9567TIP3    H252897   3.083   7.611   6.098  0.7439 -1.3516 -0.6513
 9568TIP3   OH252898   5.307   6.747   5.936  0.0427 -0.1741 -0.5992
 9568TIP3    H152899   5.264   6.709   6.013 -1.6971  0.6137 -1.1356
 9568TIP3    H252900   5.328   6.836   5.961 -0.9657  0.2386 -1.1622
 9569TIP3   OH252901   1.784   4.738   6.356 -0.0094 -0.5392 -0.5453
 9569TIP3    H152902   1.797   4.679   6.282 -1.1714 -1.1497 -0.2846
 9569TIP3    H252903   1.862   4.724   6.411  0.6312 -0.4245 -1.4038
 9570TIP3   OH252904   7.514   1.116   6.631  0.3576 -0.7668 -0.7081
 9570TIP3    H152905   7.592   1.063   6.646  0.1971 -0.5821  0.9443
 9570TIP3    H252906   7.465   1.110   6.713 -0.0648  1.2610 -0.7682
 9571TIP3   OH252907   2.053   5.678   7.254 -0.2020  0.6115  0.6786
 9571TIP3    H152908   2.146   5.698   7.268 -0.0652 -0.5222  1.5751
 9571TIP3    H252909   2.053   5.589   7.217 -0.9333  0.3428  1.2831
 9572TIP3   OH252910   3.637   7.413   6.221  0.3971  0.0536 -0.8377
 9572TIP3    H152911   3.624   7.502   6.188 -0.3783  0.3447  0.2050
 9572TIP3    H252912   3.560   7.396   6.275 -0.1373 -1.7592 -2.0746
 9573TIP3   OH252913   3.394   0.717   6.113 -0.5633  0.1213  0.4283
 9573TIP3    H152914   3.471   0.680   6.069 -0.6843  0.7025 -0.3127
 9573TIP3    H252915   3.401   0.811   6.096 -1.4816  0.1694  0.2796
 9574TIP3   OH252916   7.167   5.955   5.832  0.5596 -0.1084 -0.0469
 9574TIP3    H152917   7.173   5.869   5.791  0.3018 -1.2301  2.1342
 9574TIP3    H252918   7.088   5.994   5.795 -0.2191 -1.4803  0.1119
 9575TIP3   OH252919   1.151   1.337   6.537  0.6378 -0.1606 -0.5915
 9575TIP3    H152920   1.104   1.319   6.618  4.0262 -0.9793  1.3917
 9575TIP3    H252921   1.197   1.420   6.553 -0.5150  1.0013 -2.7165
 9576TIP3   OH252922   5.596   5.240   6.349 -0.4528  0.0971 -0.0308
 9576TIP3    H152923   5.557   5.167   6.396 -1.9390  0.7905 -0.1492
 9576TIP3    H252924   5.541   5.315   6.370 -0.5636  0.6331 -2.0503
 9577TIP3   OH252925   5.497   1.271   6.884 -0.3323  0.7842  0.1246
 9577TIP3    H152926   5.441   1.347   6.900  1.0628  1.8822 -0.0287
 9577TIP3    H252927   5.545   1.292   6.804  2.0176  0.9593  1.5045
 9578TIP3   OH252928   1.827   0.111   4.827  0.4265  0.2347 -0.2724
 9578TIP3    H152929   1.796   0.026   4.858  0.8687  0.2426  0.2094
 9578TIP3    H252930   1.859   0.155   4.906  0.2701  0.8184 -0.5287
 9579TIP3   OH252931   4.350   3.208   4.831  0.2387 -0.2034  0.0158
 9579TIP3    H152932   4.282   3.271   4.855  0.7821  0.2855  0.2912
 9579TIP3    H252933   4.308   3.123   4.840 -0.2208  0.0738  0.5688
 9580TIP3   OH252934   6.042   0.147   6.418 -0.0586 -0.3379  0.4607
 9580TIP3    H152935   6.043   0.173   6.326  1.4329 -0.4286  0.4156
 9580TIP3    H252936   6.135   0.143   6.442 -0.4157 -0.6829  1.8651
 9581TIP3   OH252937   2.534   1.584   6.158  0.1651 -0.4188  0.2127
 9581TIP3    H152938   2.507   1.674   6.136 -0.8971 -0.5597  0.8512
 9581TIP3    H252939   2.629   1.586   6.156  0.1528  0.6920  0.0886
 9582TIP3   OH252940   7.249   0.388   7.161  0.2183  0.3674  0.2087
 9582TIP3    H152941   7.332   0.345   7.181 -0.9383 -1.7639  0.7182
 9582TIP3    H252942   7.244   0.390   7.066  0.7244  0.2367  0.1798
 9583TIP3   OH252943   4.832   0.193   6.294  0.5722 -0.2785 -0.7120
 9583TIP3    H152944   4.873   0.112   6.263  0.4383 -0.2624 -0.9348
 9583TIP3    H252945   4.892   0.262   6.263  1.1036 -0.3336  0.1578
 9584TIP3   OH252946   1.469   5.041   5.186  0.0053 -0.3364 -0.5989
 9584TIP3    H152947   1.512   5.037   5.271  2.2460 -1.3594 -1.7084
 9584TIP3    H252948   1.388   5.089   5.203 -0.2579 -1.5981  2.3351
 9585TIP3   OH252949   1.587   7.313   4.931 -0.2064 -0.0349 -0.9137
 9585TIP3    H152950   1.601   7.288   5.022  0.2644 -1.5240 -1.3671
 9585TIP3    H252951   1.608   7.234   4.881  0.7666  1.1248 -2.4075
 9586TIP3   OH252952   6.298   2.994   6.493 -0.0212  0.4221 -0.0616
 9586TIP3    H152953   6.254   2.909   6.499  1.4682 -0.4361 -0.7803
 9586TIP3    H252954   6.334   2.997   6.405  1.1488  1.1762  0.4082
 9587TIP3   OH252955   3.071   1.493   5.693  0.3208  0.3048  0.1995
 9587TIP3    H152956   3.100   1.403   5.704  1.3815  0.5004 -0.7982
 9587TIP3    H252957   3.151   1.545   5.700  0.2967  0.8672 -2.4906
 9588TIP3   OH252958   1.842   0.198   6.368  0.1002 -0.3034 -0.5273
 9588TIP3    H152959   1.774   0.264   6.383  0.4555 -0.5042  2.6315
 9588TIP3    H252960   1.921   0.249   6.353  0.4209  0.1661  2.1290
 9589TIP3   OH252961   4.097   4.928   4.888 -0.1063 -0.1896 -0.7714
 9589TIP3    H152962   4.014   4.934   4.840  0.7603 -0.5181 -2.3916
 9589TIP3    H252963   4.090   4.847   4.938 -1.3342  0.5433  0.2875
 9590TIP3   OH252964   5.994   6.819   7.693 -0.1414 -0.0730  0.2013
 9590TIP3    H152965   6.068   6.849   7.640 -0.0072 -0.0523  0.4012
 9590TIP3    H252966   5.985   6.885   7.762 -0.4671  0.0246  0.0646
 9591TIP3   OH252967   5.088   0.142   7.665  0.6584 -0.2311 -0.3644
 9591TIP3    H152968   5.162   0.082   7.675  2.0263  1.3450 -0.6953
 9591TIP3    H252969   5.105   0.188   7.583  0.5556  1.8100  0.7067
 9592TIP3   OH252970   2.951   4.545   6.694  0.0762 -0.3980 -0.4380
 9592TIP3    H152971   2.935   4.466   6.643 -0.9308 -1.7920  1.8600
 9592TIP3    H252972   2.867   4.565   6.735  0.9214  0.3042  1.0480
 9593TIP3   OH252973   6.232   6.703   7.150 -0.2192 -0.5608 -0.4801
 9593TIP3    H152974   6.189   6.618   7.153 -2.2736  0.4395  0.9692
 9593TIP3    H252975   6.165   6.763   7.117  0.6714  0.7522  0.0131
 9594TIP3   OH252976   4.791   2.922   4.672 -0.6728  0.2626 -0.0140
 9594TIP3    H152977   4.718   2.912   4.733 -0.1406  0.5876  0.6893
 9594TIP3    H252978   4.756   2.976   4.601 -0.7499  1.6065  1.0003
 9595TIP3   OH252979   1.767   5.875   6.306 -0.0498 -0.1563  0.3258
 9595TIP3    H152980   1.757   5.847   6.215 -1.5803  0.2302  0.3436
 9595TIP3    H252981   1.745   5.968   6.304 -1.2116 -0.3904  1.2472
 9596TIP3   OH252982   0.605   5.761   6.118  0.5061 -0.3129  0.0356
 9596TIP3    H152983   0.612   5.734   6.210 -1.2538 -2.3615 -0.3661
 9596TIP3    H252984   0.627   5.854   6.120  3.1714 -0.8210  2.0997
 9597TIP3   OH252985   4.649   2.170   6.414 -0.1571  0.5652  0.2109
 9597TIP3    H152986   4.692   2.121   6.343  0.5968  1.5204 -0.0146
 9597TIP3    H252987   4.715   2.174   6.483 -1.0346 -0.7106  1.1516
 9598TIP3   OH252988   2.296   3.234   6.249  0.0200 -0.3687 -0.2987
 9598TIP3    H152989   2.214   3.209   6.291  1.4224 -3.7823  0.8127
 9598TIP3    H252990   2.283   3.325   6.221 -3.2197  0.0256  1.9747
 9599TIP3   OH252991   5.044   4.798   7.460  0.4102  0.1834  0.3566
 9599TIP3    H152992   5.129   4.817   7.421 -0.2669  1.3477 -0.6167
 9599TIP3    H252993   5.048   4.705   7.482  1.7763  0.1224 -0.0568
 9600TIP3   OH252994   6.918   4.187   5.475  0.2601  0.0743 -0.0946
 9600TIP3    H152995   6.889   4.269   5.436  0.5491  0.6489  0.8630
 9600TIP3    H252996   6.946   4.211   5.564  1.3391 -0.8720 -0.1561
 9601TIP3   OH252997   3.740   2.349   6.192 -0.1918  0.2202  0.4201
 9601TIP3    H152998   3.716   2.436   6.225  0.0959  0.3498  0.2830
 9601TIP3    H252999   3.667   2.324   6.135 -0.0723  0.5544  0.1188
 9602TIP3   OH253000   5.900   1.236   6.834  0.4680  0.3366  0.5094
 9602TIP3    H153001   5.947   1.319   6.840  0.0630  0.5237  1.1622
 9602TIP3    H253002   5.851   1.242   6.752 -0.0154  0.9860  0.8356
 9603TIP3   OH253003   6.955   5.623   5.970 -0.2153 -0.5582 -0.9328
 9603TIP3    H153004   7.047   5.628   5.998  0.0889  1.1460 -2.0703
 9603TIP3    H253005   6.919   5.549   6.018  1.0792  0.2850  1.4731
 9604TIP3   OH253006   5.131   6.308   5.830  0.5240 -0.5977 -0.2580
 9604TIP3    H153007   5.200   6.266   5.779 -0.7477  0.2187 -2.8192
 9604TIP3    H253008   5.115   6.391   5.786 -1.9477 -0.6605  0.3294
 9605TIP3   OH253009   5.897   2.154   5.259 -0.3577 -0.0346  0.0653
 9605TIP3    H153010   5.897   2.089   5.329  1.3552 -0.1109  0.0518
 9605TIP3    H253011   5.886   2.238   5.304 -1.9083 -0.2589  0.1450
 9606TIP3   OH253012   1.562   4.270   6.224  0.2626  0.4062 -0.1236
 9606TIP3    H153013   1.587   4.337   6.287 -1.6748  0.5982  0.5218
 9606TIP3    H253014   1.565   4.314   6.139  0.4363  0.8713  0.1183
 9607TIP3   OH253015   3.542   6.912   5.680  0.2478  0.0447  0.2148
 9607TIP3    H153016   3.455   6.941   5.655 -0.3660 -1.5451  0.3596
 9607TIP3    H253017   3.595   6.991   5.679 -0.7828  0.7834 -1.6115
 9608TIP3   OH253018   1.533   1.358   6.524  0.1781 -0.3613  0.1181
 9608TIP3    H153019   1.602   1.313   6.476 -0.8161 -0.3521 -1.3826
 9608TIP3    H253020   1.491   1.289   6.576  0.4701 -0.6125  0.0233
 9609TIP3   OH253021   0.902   2.213   6.702  0.2203  0.9372 -0.1532
 9609TIP3    H153022   0.976   2.226   6.642  2.0586 -0.5552  1.6493
 9609TIP3    H253023   0.846   2.151   6.656  1.0818  0.5902 -0.7786
 9610TIP3   OH253024   6.384   0.695   6.106  0.0542  0.6453  0.0811
 9610TIP3    H153025   6.292   0.669   6.110  0.2684 -0.3173 -0.8678
 9610TIP3    H253026   6.427   0.625   6.057  0.8799  2.1938 -1.5267
 9611TIP3   OH253027   1.131   6.128   6.047 -0.4093  0.4122  1.0749
 9611TIP3    H153028   1.196   6.112   6.116  1.0254  0.9865 -0.1106
 9611TIP3    H253029   1.086   6.207   6.075  1.2960  1.6030  0.5642
 9612TIP3   OH253030   7.568   6.051   5.496 -0.4516  0.4560  1.0426
 9612TIP3    H153031   7.657   6.027   5.472 -0.5017 -0.3663  1.6244
 9612TIP3    H253032   7.578   6.109   5.572 -0.4196 -0.1484  1.5109
 9613TIP3   OH253033   7.303   4.124   5.352 -0.0248 -0.3772 -0.1675
 9613TIP3    H153034   7.384   4.085   5.321 -0.0697 -0.8293  0.2733
 9613TIP3    H253035   7.327   4.213   5.379  0.3601 -0.5658  0.1192
 9614TIP3   OH253036   2.740   6.473   6.198 -0.3019  0.0384  0.4467
 9614TIP3    H153037   2.736   6.457   6.104 -0.6916  0.1953  0.4332
 9614TIP3    H253038   2.712   6.564   6.208  2.7931  1.1126  0.4208
 9615TIP3   OH253039   0.383   0.537   6.371 -0.6313 -0.5499  0.3011
 9615TIP3    H153040   0.329   0.474   6.323 -0.1497 -1.2436  0.6701
 9615TIP3    H253041   0.356   0.527   6.462 -0.6888 -0.0785  0.3394
 9616TIP3   OH253042   4.189   3.379   4.973  0.3821  0.4924 -0.8068
 9616TIP3    H153043   4.202   3.363   5.067  2.0288  1.0100 -0.9108
 9616TIP3    H253044   4.096   3.361   4.958 -0.1039  1.1855  1.0816
 9617TIP3   OH253045   1.088   7.582   6.185  0.6561  0.1593  0.0856
 9617TIP3    H153046   1.025   7.512   6.202  0.7494  0.1723  0.4947
 9617TIP3    H253047   1.145   7.547   6.117  1.3865 -0.5944  1.0672
 9618TIP3   OH253048   5.738   4.252   7.383 -0.3982  0.0254  0.2423
 9618TIP3    H153049   5.799   4.322   7.361  0.9735  0.0103  3.5153
 9618TIP3    H253050   5.707   4.273   7.470 -1.6472 -2.3172  0.4490
 9619TIP3   OH253051   4.862   0.540   7.357 -0.3703 -0.1720  0.1020
 9619TIP3    H153052   4.824   0.519   7.272  0.1080 -1.5292  0.1920
 9619TIP3    H253053   4.862   0.456   7.405 -0.1977  0.4653  1.2610
 9620TIP3   OH253054   5.522   2.493   6.559  0.0476  0.4292  0.2490
 9620TIP3    H153055   5.516   2.457   6.470 -0.3253 -0.7793  0.7428
 9620TIP3    H253056   5.439   2.538   6.572 -0.0116  0.3673  0.0961
 9621TIP3   OH253057   0.228   5.082   5.784 -0.4465  0.0206 -0.1658
 9621TIP3    H153058   0.223   4.997   5.740 -1.8783 -0.1184  0.2172
 9621TIP3    H253059   0.151   5.085   5.840 -0.6665  1.7624 -0.4939
 9622TIP3   OH253060   5.558   1.003   5.775  0.2542 -0.4237  0.1953
 9622TIP3    H153061   5.546   1.013   5.870 -1.3155 -0.5853  0.0305
 9622TIP3    H253062   5.504   1.072   5.737  2.2668  0.8252 -0.5873
 9623TIP3   OH253063   5.688   1.185   6.131  0.1630  0.2578  0.2567
 9623TIP3    H153064   5.715   1.228   6.049 -2.3616 -0.0014 -0.8043
 9623TIP3    H253065   5.688   1.255   6.196 -0.4178  1.0946 -0.6162
 9624TIP3   OH253066   0.464   7.498   4.803 -0.8915  0.1211 -0.9009
 9624TIP3    H153067   0.429   7.431   4.862 -1.2821  1.1277  0.0663
 9624TIP3    H253068   0.553   7.469   4.783 -0.6134 -0.0837  0.5136
 9625TIP3   OH253069   7.659   0.543   5.501  0.1631  0.2576  0.3578
 9625TIP3    H153070   7.588   0.594   5.540  0.7574  1.1533  0.2950
 9625TIP3    H253071   7.620   0.502   5.423 -0.1638  1.0951  0.0786
 9626TIP3   OH253072   0.291   3.905   5.217 -0.2911 -0.4824  0.0037
 9626TIP3    H153073   0.376   3.942   5.242 -0.8852  1.2900 -0.4643
 9626TIP3    H253074   0.310   3.813   5.202  1.4782 -0.2177  0.2752
 9627TIP3   OH253075   2.833   5.186   7.140  0.1868 -0.2226 -0.3184
 9627TIP3    H153076   2.832   5.279   7.162  1.2289 -0.3318  0.2818
 9627TIP3    H253077   2.921   5.156   7.165  0.6654 -0.8811 -2.5069
 9628TIP3   OH253078   7.047   0.079   6.950 -0.0560  0.5833 -0.1928
 9628TIP3    H153079   7.135   0.082   6.986 -0.1254 -0.9484  0.1566
 9628TIP3    H253080   6.991   0.116   7.019 -0.1750 -2.1967  1.3471
 9629TIP3   OH253081   5.832   2.048   5.771 -0.5335  0.0696  0.0894
 9629TIP3    H153082   5.779   1.969   5.780  0.2881 -0.6823 -1.4532
 9629TIP3    H253083   5.840   2.062   5.677 -0.1363  1.6483  0.3200
 9630TIP3   OH253084   2.677   2.188   5.021  0.7114  0.0752  0.2167
 9630TIP3    H153085   2.635   2.182   4.935  0.0284  0.6481  0.5024
 9630TIP3    H253086   2.607   2.216   5.080  1.2717  0.0879  0.8881
 9631TIP3   OH253087   1.018   5.626   5.039 -1.2250  0.4484  0.2427
 9631TIP3    H153088   0.987   5.691   5.102 -2.2690  0.1938  0.0013
 9631TIP3    H253089   1.067   5.563   5.093 -1.4240  0.6673  0.6867
 9632TIP3   OH253090   7.652   5.722   4.428 -0.5358  0.4281 -0.0542
 9632TIP3    H153091   7.567   5.750   4.395 -0.9556 -0.7547 -0.0288
 9632TIP3    H253092   7.637   5.633   4.459  0.4428  0.6170  1.0202
 9633TIP3   OH253093   1.114   3.897   6.754  0.2528  0.2081  0.1157
 9633TIP3    H153094   1.085   3.809   6.774  0.0234  0.4111  0.7002
 9633TIP3    H253095   1.190   3.885   6.696 -1.1845 -0.3282 -1.7716
 9634TIP3   OH253096   5.455   0.696   6.638 -0.2788 -0.1501  0.5579
 9634TIP3    H153097   5.507   0.698   6.719  0.5810 -1.6809  0.0730
 9634TIP3    H253098   5.497   0.759   6.581  0.7153 -0.9593  0.3821
 9635TIP3   OH253099   4.439   5.960   5.133  0.4157  0.3104 -0.4552
 9635TIP3    H153100   4.359   6.001   5.100 -1.1193 -1.8374  0.3802
 9635TIP3    H253101   4.493   5.945   5.055  0.4611  2.5668 -0.9367
 9636TIP3   OH253102   5.755   5.738   6.764  0.5562 -0.0272  0.6622
 9636TIP3    H153103   5.818   5.696   6.705 -0.7727 -2.4748  0.8561
 9636TIP3    H253104   5.808   5.773   6.835  1.9606  0.7613 -0.7286
 9637TIP3   OH253105   7.411   1.308   4.802 -0.1169 -0.0371 -0.1405
 9637TIP3    H153106   7.384   1.359   4.726 -0.1504 -0.4968 -0.4458
 9637TIP3    H253107   7.506   1.300   4.793 -0.1199 -0.0837 -0.1304
 9638TIP3   OH253108   2.045   3.567   7.246  0.3537 -0.3702  0.0288
 9638TIP3    H153109   1.956   3.557   7.278  0.7886 -0.7414  1.1699
 9638TIP3    H253110   2.035   3.599   7.156 -0.9125  0.6100  0.4819
 9639TIP3   OH253111   7.374   5.528   6.279  0.4019 -0.3880 -0.3179
 9639TIP3    H153112   7.304   5.570   6.229  0.9282  0.8245 -0.0771
 9639TIP3    H253113   7.437   5.499   6.213 -0.0601 -0.9988 -0.4996
 9640TIP3   OH253114   2.563   5.869   5.021 -0.5505 -0.6550  0.1157
 9640TIP3    H153115   2.490   5.806   5.027 -0.2637 -1.0274 -0.2348
 9640TIP3    H253116   2.523   5.954   5.040 -1.1801 -0.7865 -0.5691
 9641TIP3   OH253117   5.150   1.346   6.774 -0.2856  0.0383 -0.2540
 9641TIP3    H153118   5.095   1.405   6.722  0.7135  0.5648 -0.7417
 9641TIP3    H253119   5.180   1.400   6.847  1.3211  0.4152 -1.1575
 9642TIP3   OH253120   3.941   6.255   6.242 -0.1679  0.3161 -0.1654
 9642TIP3    H153121   3.970   6.234   6.153 -1.3325  0.4615 -0.6021
 9642TIP3    H253122   3.865   6.312   6.230 -1.5047 -1.1462  0.8555
 9643TIP3   OH253123   3.391   5.013   5.920  0.6773 -0.6424 -0.3880
 9643TIP3    H153124   3.417   5.014   5.828  2.3352  0.3973  0.0579
 9643TIP3    H253125   3.433   4.935   5.956 -0.4292 -1.3683 -0.5875
 9644TIP3   OH253126   6.794   7.154   5.981 -0.0902 -0.3234 -0.2367
 9644TIP3    H153127   6.828   7.236   5.946 -1.9187  0.7973  0.4442
 9644TIP3    H253128   6.712   7.141   5.933 -0.8446 -0.6368  1.0978
 9645TIP3   OH253129   3.843   2.464   7.504  0.2033  0.2159  0.3480
 9645TIP3    H153130   3.885   2.459   7.418 -2.8515 -0.8451 -1.2516
 9645TIP3    H253131   3.855   2.377   7.542 -2.7033 -1.1394 -1.4094
 9646TIP3   OH253132   5.400   4.126   6.533 -0.0875  0.4266 -0.0110
 9646TIP3    H153133   5.441   4.155   6.451 -0.4276 -1.7018 -0.9852
 9646TIP3    H253134   5.363   4.206   6.570 -0.3298  1.3858 -2.1574
 9647TIP3   OH253135   3.420   3.900   6.423 -0.6748 -0.0411  0.3809
 9647TIP3    H153136   3.374   3.907   6.506 -0.0559  0.0793  0.7234
 9647TIP3    H253137   3.507   3.867   6.446 -0.7242 -0.6809 -0.2986
 9648TIP3   OH253138   4.235   4.778   5.776  0.3677  0.2182 -0.1885
 9648TIP3    H153139   4.259   4.696   5.734 -0.9200 -0.8928  1.1493
 9648TIP3    H253140   4.315   4.806   5.822  0.6275 -0.6444 -0.1006
 9649TIP3   OH253141   2.761   0.233   5.350 -0.2996 -0.4032 -0.1351
 9649TIP3    H153142   2.699   0.252   5.421 -0.5703  2.0239 -0.8994
 9649TIP3    H253143   2.835   0.292   5.367  0.3376 -0.9252 -1.0173
 9650TIP3   OH253144   3.798   0.210   6.922  0.9550 -0.0594 -0.4014
 9650TIP3    H153145   3.867   0.235   6.983  0.0327 -2.6207  1.9231
 9650TIP3    H253146   3.735   0.282   6.926  1.4208  0.2952  0.9197
 9651TIP3   OH253147   4.707   5.121   7.290 -0.1010 -0.5278  0.1717
 9651TIP3    H153148   4.653   5.106   7.212 -0.1008  0.0407  0.0568
 9651TIP3    H253149   4.705   5.216   7.302  0.2993 -0.5698  0.5807
 9652TIP3   OH253150   5.104   5.873   5.715 -0.1887 -0.3339  0.1171
 9652TIP3    H153151   5.089   5.935   5.643  1.4553  0.7193  0.6359
 9652TIP3    H253152   5.047   5.904   5.785  0.9769  0.9420  0.5453
 9653TIP3   OH253153   0.929   3.589   7.057  0.2217  0.1513 -0.2529
 9653TIP3    H153154   0.882   3.539   7.124  0.0880 -1.0086 -1.1811
 9653TIP3    H253155   0.928   3.679   7.090 -3.2584  0.3549 -0.5014
 9654TIP3   OH253156   1.746   3.239   7.375 -0.1193  0.0521 -0.6982
 9654TIP3    H153157   1.818   3.190   7.414 -0.8506 -0.4021  0.1184
 9654TIP3    H253158   1.768   3.331   7.390  0.2791 -0.0819 -0.4557
 9655TIP3   OH253159   5.390   3.800   5.631  0.1793 -0.1573  0.0647
 9655TIP3    H153160   5.368   3.738   5.700  1.2031  0.1915  0.7313
 9655TIP3    H253161   5.353   3.883   5.661 -0.1367 -0.1888 -0.2365
 9656TIP3   OH253162   2.148   3.533   4.953  0.3776  0.3879 -0.2440
 9656TIP3    H153163   2.230   3.548   4.905  1.6781  0.3690  1.8247
 9656TIP3    H253164   2.108   3.619   4.958  0.5765  0.5167 -0.7321
 9657TIP3   OH253165   5.183   5.605   6.911 -0.3048 -0.1144 -0.3357
 9657TIP3    H153166   5.273   5.630   6.932 -0.0676  0.0407 -1.4571
 9657TIP3    H253167   5.191   5.526   6.858 -0.9092 -0.8937  0.6991
 9658TIP3   OH253168   0.615   0.662   7.816  0.3136 -0.2069 -0.2373
 9658TIP3    H153169   0.549   0.621   7.761 -0.6627  1.8419 -0.7017
 9658TIP3    H253170   0.635   0.597   7.883 -0.5401 -1.6945 -1.3665
 9659TIP3   OH253171   0.528   1.448   6.501 -0.1849 -0.5559  0.4367
 9659TIP3    H153172   0.485   1.393   6.436 -0.9053 -0.5661  0.9097
 9659TIP3    H253173   0.522   1.397   6.583 -2.0928  0.7680  1.1912
 9660TIP3   OH253174   1.302   6.991   4.701 -0.2336 -0.0676  0.2421
 9660TIP3    H153175   1.318   7.075   4.744 -1.5758 -0.0730  0.8037
 9660TIP3    H253176   1.207   6.984   4.697 -0.2708  0.4815 -3.8413
 9661TIP3   OH253177   0.858   0.972   5.234 -0.0036  0.3763 -0.4367
 9661TIP3    H153178   0.829   1.059   5.206 -1.3054  0.9504  2.3055
 9661TIP3    H253179   0.792   0.912   5.200 -0.1123  0.6917 -0.7895
 9662TIP3   OH253180   3.854   3.220   5.911  0.4264  0.3281  0.1471
 9662TIP3    H153181   3.947   3.233   5.891  0.4109 -0.1048 -0.2151
 9662TIP3    H253182   3.838   3.275   5.987  1.0723  0.1139  0.4416
 9663TIP3   OH253183   6.583   7.041   6.529  0.5322 -0.0195  0.0071
 9663TIP3    H153184   6.672   7.008   6.538  0.6032  0.2878  0.4521
 9663TIP3    H253185   6.589   7.135   6.547  0.4955  0.4663 -2.2715
 9664TIP3   OH253186   5.419   1.379   6.066 -0.0972  0.2956 -0.4293
 9664TIP3    H153187   5.426   1.469   6.035 -1.8427  0.7933  0.4622
 9664TIP3    H253188   5.404   1.327   5.987 -1.7356  1.1594 -0.7264
 9665TIP3   OH253189   1.691   7.344   7.141 -0.2833 -0.2110  0.1029
 9665TIP3    H153190   1.657   7.399   7.071 -1.7981 -1.1872  0.0348
 9665TIP3    H253191   1.650   7.378   7.221 -2.7294 -2.2802 -0.1446
 9666TIP3   OH253192   5.386   3.645   7.049 -0.2580 -0.2897 -0.3922
 9666TIP3    H153193   5.307   3.629   6.996  0.2768  1.5336 -1.8438
 9666TIP3    H253194   5.362   3.718   7.105  0.0793 -0.4226 -0.0754
 9667TIP3   OH253195   6.609   5.618   5.514 -0.2330 -0.1660  0.3666
 9667TIP3    H153196   6.619   5.696   5.568  0.7967  0.4624 -0.6765
 9667TIP3    H253197   6.517   5.619   5.487 -0.2240  0.6977  0.3500
 9668TIP3   OH253198   3.460   6.162   5.173  0.3781 -0.5419 -0.2090
 9668TIP3    H153199   3.525   6.168   5.103 -0.9841  1.2025 -1.4375
 9668TIP3    H253200   3.456   6.068   5.194  0.5971 -1.2276 -2.7815
 9669TIP3   OH253201   2.988   6.784   4.824 -0.2764 -0.0270  0.1273
 9669TIP3    H153202   2.959   6.781   4.733  0.9698  0.6423 -0.3138
 9669TIP3    H253203   2.951   6.866   4.859  0.2873  0.3491 -0.1522
 9670TIP3   OH253204   3.549   4.287   5.817  0.1633  0.1503  0.0496
 9670TIP3    H153205   3.633   4.294   5.771 -0.3136 -1.4936 -1.1731
 9670TIP3    H253206   3.571   4.302   5.909  1.7016  0.3019 -0.3100
 9671TIP3   OH253207   3.673   3.241   6.445  0.1179  0.3918 -0.6228
 9671TIP3    H153208   3.659   3.255   6.539  0.4503 -0.3656 -0.4529
 9671TIP3    H253209   3.592   3.198   6.416  0.5691 -0.6814 -0.3746
 9672TIP3   OH253210   2.035   7.614   7.351 -0.8798 -0.4380  0.6548
 9672TIP3    H153211   2.097   7.687   7.358  1.2650 -2.1598  0.5636
 9672TIP3    H253212   2.001   7.602   7.439  1.5559 -1.5991  1.5091
 9673TIP3   OH253213   3.159   5.301   4.978 -0.7800  0.1715  0.2562
 9673TIP3    H153214   3.198   5.222   5.016  1.7980  0.6328 -1.1610
 9673TIP3    H253215   3.182   5.297   4.885 -1.8484  1.8787 -0.1272
 9674TIP3   OH253216   7.238   1.723   4.859 -0.2580  0.5131  0.1549
 9674TIP3    H153217   7.304   1.784   4.891 -0.4528  0.3648  0.8555
 9674TIP3    H253218   7.226   1.746   4.767  1.6007 -0.1877 -0.3183
 9675TIP3   OH253219   0.359   2.392   6.574 -0.3591 -0.1913  0.3108
 9675TIP3    H153220   0.387   2.324   6.512 -0.5818 -0.0956  0.1053
 9675TIP3    H253221   0.300   2.448   6.524  2.2976  2.1094 -0.5245
 9676TIP3   OH253222   0.813   4.054   5.444 -0.3919  0.0000 -0.3890
 9676TIP3    H153223   0.828   4.102   5.363  0.6162  0.2261 -0.0790
 9676TIP3    H253224   0.846   4.112   5.513 -1.0861 -0.2560  0.1805
 9677TIP3   OH253225   5.556   4.408   5.747  0.2436 -0.3639 -0.0363
 9677TIP3    H153226   5.613   4.333   5.728 -0.1159  0.0839 -3.6404
 9677TIP3    H253227   5.467   4.373   5.738  0.0320 -0.0269  0.7108
 9678TIP3   OH253228   2.245   7.543   6.568  0.5228  0.0422  0.2139
 9678TIP3    H153229   2.319   7.555   6.509 -0.5256  0.1826 -1.1297
 9678TIP3    H253230   2.267   7.594   6.645  1.5630  0.5586 -0.3986
 9679TIP3   OH253231   1.892   1.474   5.858 -0.0829  0.7424  0.1904
 9679TIP3    H153232   1.830   1.538   5.821 -1.7079 -0.6838  0.3401
 9679TIP3    H253233   1.889   1.490   5.952 -1.1508 -0.0857  0.3128
 9680TIP3   OH253234   5.687   3.821   5.626 -0.1185  0.0025  0.2814
 9680TIP3    H153235   5.605   3.839   5.672 -0.9696  2.0260 -1.8605
 9680TIP3    H253236   5.679   3.867   5.543  2.6484 -0.9020 -0.5951
 9681TIP3   OH253237   4.520   0.759   6.264  0.0237 -0.3268  0.0371
 9681TIP3    H153238   4.554   0.789   6.180 -1.8409  1.0856 -0.2813
 9681TIP3    H253239   4.440   0.711   6.242 -0.6787  0.3648  1.0108
 9682TIP3   OH253240   6.535   4.795   4.719  0.1745 -1.0964 -0.0231
 9682TIP3    H153241   6.446   4.785   4.753  0.2789  0.1950  0.6995
 9682TIP3    H253242   6.591   4.756   4.785  0.2080 -0.8925  0.0714
 9683TIP3   OH253243   3.944   2.210   6.044  0.6285  0.3355 -0.6777
 9683TIP3    H153244   3.896   2.250   6.116  0.2283 -0.2824 -0.5895
 9683TIP3    H253245   4.007   2.277   6.016  0.4147  0.7757 -0.1177
 9684TIP3   OH253246   1.582   7.088   6.116 -0.5945 -0.6897 -0.0820
 9684TIP3    H153247   1.570   7.095   6.211  0.3214  0.5800 -0.0452
 9684TIP3    H253248   1.599   6.995   6.101 -1.3495 -1.0073  0.9080
 9685TIP3   OH253249   2.048   1.366   4.870 -1.0362  0.1367 -0.0032
 9685TIP3    H153250   1.971   1.310   4.864 -1.4048  0.4798  1.2671
 9685TIP3    H253251   2.019   1.452   4.840 -1.1383  0.2441  0.3924
 9686TIP3   OH253252   7.302   6.965   6.608  0.0686  0.3983  0.2554
 9686TIP3    H153253   7.263   7.046   6.575  0.6392  0.6670  0.2125
 9686TIP3    H253254   7.267   6.955   6.696 -1.5686 -0.3906 -0.4539
 9687TIP3   OH253255   2.666   3.576   5.650 -0.3573 -0.1711 -0.5436
 9687TIP3    H153256   2.691   3.483   5.649 -0.0569 -0.1436  1.3237
 9687TIP3    H253257   2.575   3.577   5.679  0.1968  0.1829  1.2855
 9688TIP3   OH253258   5.215   6.646   5.014 -0.2012  0.1946 -0.5025
 9688TIP3    H153259   5.243   6.701   5.087  0.0279  0.2112 -0.6011
 9688TIP3    H253260   5.296   6.629   4.965 -0.1424 -0.8373 -0.0669
 9689TIP3   OH253261   0.894   5.745   5.929  0.0104 -0.0324 -0.2323
 9689TIP3    H153262   0.819   5.718   5.876  0.5111 -1.5426 -0.2309
 9689TIP3    H253263   0.958   5.676   5.916  0.5938  0.1550  1.4242
 9690TIP3   OH253264   4.676   0.939   6.622 -0.9663 -0.0721  0.8526
 9690TIP3    H153265   4.717   0.853   6.613 -1.5004 -0.3057  0.5911
 9690TIP3    H253266   4.645   0.941   6.712 -0.9633 -0.1621  0.8561
 9691TIP3   OH253267   1.604   2.384   7.087 -0.0533 -0.3808  0.2510
 9691TIP3    H153268   1.608   2.443   7.162  1.3868  1.0910 -0.8952
 9691TIP3    H253269   1.690   2.341   7.086  0.7753  1.1557 -1.6495
 9692TIP3   OH253270   6.827   5.967   5.914  0.6111  0.5874 -0.1562
 9692TIP3    H153271   6.834   6.010   5.999  1.5184 -0.3213  0.2455
 9692TIP3    H253272   6.849   6.036   5.851 -1.1267  1.5643  0.2382
 9693TIP3   OH253273   4.112   3.291   5.380 -0.3756 -0.5044  0.3230
 9693TIP3    H153274   4.045   3.293   5.449  0.0257  4.0162  0.8724
 9693TIP3    H253275   4.072   3.242   5.309 -2.4606 -1.7438  2.2105
 9694TIP3   OH253276   1.984   2.677   4.938 -0.0125  0.3731  0.1351
 9694TIP3    H153277   1.982   2.701   5.030 -2.2770 -0.0853  0.2491
 9694TIP3    H253278   1.989   2.760   4.891  0.8339  0.6207  0.6339
 9695TIP3   OH253279   3.998   6.700   4.926  0.0428 -0.4991 -0.8728
 9695TIP3    H153280   4.092   6.682   4.919 -0.2158 -2.0237 -0.8177
 9695TIP3    H253281   3.982   6.768   4.862  1.4842  1.0851  0.3567
 9696TIP3   OH253282   0.922   3.016   5.781  0.4381 -0.0805  0.0026
 9696TIP3    H153283   0.881   3.047   5.700  1.1760  1.0971  0.0653
 9696TIP3    H253284   1.014   3.003   5.758  0.5412 -0.2786  0.5108
 9697TIP3   OH253285   3.660   2.801   5.003 -0.6435 -0.3734 -0.1706
 9697TIP3    H153286   3.626   2.856   4.933 -0.3099 -1.0526 -0.8827
 9697TIP3    H253287   3.604   2.821   5.078 -0.8361  0.5582 -0.5466
 9698TIP3   OH253288   6.882   1.835   5.687 -0.1530 -0.0714  0.2524
 9698TIP3    H153289   6.926   1.750   5.691  0.8099  0.4479  1.4971
 9698TIP3    H253290   6.939   1.894   5.736 -0.0590  1.6537 -1.8144
 9699TIP3   OH253291   3.710   3.501   4.861  0.2190 -0.1673 -0.7742
 9699TIP3    H153292   3.647   3.494   4.789 -1.5179  1.5591  0.4842
 9699TIP3    H253293   3.662   3.544   4.931  1.6399 -2.3929  1.7491
 9700TIP3   OH253294   1.300   0.726   4.950 -0.1402  0.6639 -0.1398
 9700TIP3    H153295   1.339   0.809   4.921  0.6425  0.4835  0.3667
 9700TIP3    H253296   1.304   0.730   5.045  0.4719 -0.2059 -0.1115
 9701TIP3   OH253297   5.834   5.881   6.011 -0.1766  0.0990 -0.2340
 9701TIP3    H153298   5.916   5.875   6.058 -0.0506  2.3726 -0.0524
 9701TIP3    H253299   5.837   5.967   5.968 -3.2190  1.1286  1.3300
 9702TIP3   OH253300   0.147   0.911   6.965  0.1614  0.2680  0.4404
 9702TIP3    H153301   0.214   0.873   7.021  0.1636 -0.4752 -0.0476
 9702TIP3    H253302   0.191   0.923   6.880 -0.6523 -1.4900 -0.2867
 9703TIP3   OH253303   6.977   3.790   6.469  0.2304 -0.7259 -0.4219
 9703TIP3    H153304   6.997   3.884   6.474  0.5999 -0.7571 -1.2660
 9703TIP3    H253305   6.906   3.778   6.533 -1.1744  0.4988 -1.6654
 9704TIP3   OH253306   1.066   1.727   6.598 -0.0593 -0.4439  0.5210
 9704TIP3    H153307   1.043   1.813   6.562 -0.3722 -0.1935  1.2912
 9704TIP3    H253308   1.025   1.664   6.539  0.3818 -0.0754 -0.1921
 9705TIP3   OH253309   2.537   5.083   4.753 -0.1197  0.3385 -0.5673
 9705TIP3    H153310   2.462   5.056   4.805 -0.2572  0.8014 -0.5173
 9705TIP3    H253311   2.500   5.116   4.671 -0.2548  3.3660  0.5800
 9706TIP3   OH253312   0.502   0.782   7.543  0.7818 -0.1913  0.1720
 9706TIP3    H153313   0.589   0.817   7.561  0.8472  0.3376 -1.0805
 9706TIP3    H253314   0.445   0.830   7.602  1.1234  0.7367 -0.2251
 9707TIP3   OH253315   6.232   7.186   7.264  0.1186  0.3652 -0.2384
 9707TIP3    H153316   6.149   7.233   7.271  0.0090  0.0450  0.8028
 9707TIP3    H253317   6.217   7.104   7.312  0.5913 -0.3316 -1.2552
 9708TIP3   OH253318   6.140   4.203   5.442 -0.1072 -0.2690  0.4602
 9708TIP3    H153319   6.151   4.125   5.496  0.6615 -1.2892 -1.1127
 9708TIP3    H253320   6.188   4.272   5.489 -0.7923 -0.7071  1.8589
 9709TIP3   OH253321   7.152   5.513   4.860  0.2939  0.3617 -0.4086
 9709TIP3    H153322   7.168   5.487   4.951  0.5568  0.4271 -0.4357
 9709TIP3    H253323   7.193   5.599   4.852  0.4766  0.2518 -0.6545
 9710TIP3   OH253324   6.238   4.495   5.390 -0.1753  0.1979 -0.0682
 9710TIP3    H153325   6.308   4.463   5.334 -0.1550  0.0048  0.0662
 9710TIP3    H253326   6.258   4.459   5.477 -0.7909 -0.4070 -0.1667
 9711TIP3   OH253327   2.976   5.758   6.462  0.7213 -0.2841  0.7492
 9711TIP3    H153328   2.942   5.669   6.452  0.4787 -0.1126  0.0612
 9711TIP3    H253329   3.071   5.746   6.469  0.8742 -0.4589 -1.2528
 9712TIP3   OH253330   6.286   4.353   4.807 -0.5104  0.0798  0.5127
 9712TIP3    H153331   6.245   4.280   4.853 -1.4476  0.3475  0.1447
 9712TIP3    H253332   6.217   4.421   4.805  0.1996  0.8126  0.4907
 9713TIP3   OH253333   1.658   0.273   5.082  0.2588 -0.1334  0.0469
 9713TIP3    H153334   1.655   0.368   5.090 -0.9525 -0.3031  2.7402
 9713TIP3    H253335   1.750   0.251   5.099  0.6659  0.5396 -1.1319
 9714TIP3   OH253336   2.244   1.955   5.677 -0.4211 -0.1081  0.7172
 9714TIP3    H153337   2.297   1.882   5.708  0.0517 -0.0461  0.0764
 9714TIP3    H253338   2.162   1.948   5.726  0.3018  0.0077  1.9927
 9715TIP3   OH253339   0.992   4.651   5.812  0.0675  0.1102 -0.4525
 9715TIP3    H153340   1.033   4.727   5.769  1.4532  0.0633  0.7056
 9715TIP3    H253341   1.027   4.652   5.901 -2.7452  0.2351  0.7697
 9716TIP3   OH253342   2.882   6.942   5.548  0.3802 -0.0912  0.1819
 9716TIP3    H153343   2.891   6.862   5.598 -2.2245  0.0308  0.9986
 9716TIP3    H253344   2.839   7.004   5.608  1.1182  1.4855 -0.8390
 9717TIP3   OH253345   4.202   0.118   5.589  0.3616  0.1924  0.0032
 9717TIP3    H153346   4.203   0.024   5.605 -1.1815 -0.0081 -0.9572
 9717TIP3    H253347   4.225   0.157   5.673 -1.8198 -0.9806  1.2248
 9718TIP3   OH253348   4.746   0.566   6.264 -0.1514  0.0548 -0.1932
 9718TIP3    H153349   4.821   0.625   6.274  0.1251 -0.0469 -1.4803
 9718TIP3    H253350   4.675   0.623   6.233 -0.0358 -0.1751 -0.9078
 9719TIP3   OH253351   1.350   2.272   6.380  0.1615  0.1471  0.7996
 9719TIP3    H153352   1.414   2.218   6.333  0.4281  0.4292  0.8348
 9719TIP3    H253353   1.403   2.325   6.440 -0.0900  0.5035  0.7101
 9720TIP3   OH253354   4.046   0.424   6.781 -0.4424 -0.6677 -0.2848
 9720TIP3    H153355   4.094   0.443   6.862  0.2312  0.8091 -0.9849
 9720TIP3    H253356   3.967   0.477   6.787 -1.1307 -1.7105  0.0558
 9721TIP3   OH253357   7.493   6.755   7.096 -0.6674 -0.5247  0.3561
 9721TIP3    H153358   7.424   6.764   7.162  1.3768 -0.3800  2.5603
 9721TIP3    H253359   7.569   6.798   7.134  0.5516 -0.1644 -2.2518
 9722TIP3   OH253360   1.786   2.198   6.381  0.6385 -0.3058  0.5412
 9722TIP3    H153361   1.778   2.269   6.445 -2.6401 -0.8495  0.9309
 9722TIP3    H253362   1.764   2.119   6.431 -0.9046 -0.8879 -0.9707
 9723TIP3   OH253363   0.100   4.740   6.093 -0.2512  0.2304  0.4469
 9723TIP3    H153364   0.169   4.785   6.142  0.9444  0.3656 -1.2616
 9723TIP3    H253365   0.026   4.799   6.096 -0.6460 -0.2782  3.0290
 9724TIP3   OH253366   5.430   1.841   7.066 -0.9548 -0.3018  0.6635
 9724TIP3    H153367   5.511   1.890   7.051 -1.0846 -0.3581 -0.2937
 9724TIP3    H253368   5.366   1.908   7.092 -0.8054 -0.1427  0.6255
 9725TIP3   OH253369   3.166   2.742   5.308 -0.0589  0.2684  0.2104
 9725TIP3    H153370   3.160   2.744   5.213 -0.1125  0.8796  0.2189
 9725TIP3    H253371   3.079   2.769   5.338 -0.0330  0.1125  0.4335
 9726TIP3   OH253372   1.208   1.084   5.372  0.3978 -0.6309 -0.3793
 9726TIP3    H153373   1.212   1.158   5.433  1.1533 -0.8133 -0.1974
 9726TIP3    H253374   1.258   1.113   5.296  0.4194 -0.8341 -0.4426
 9727TIP3   OH253375   0.635   0.636   4.827  0.3130 -0.1849  0.1913
 9727TIP3    H153376   0.652   0.687   4.907  1.1098 -1.2049  0.6957
 9727TIP3    H253377   0.580   0.563   4.856 -0.2988  0.0260 -0.4086
 9728TIP3   OH253378   1.530   5.634   5.450  0.6364  0.2623  0.6095
 9728TIP3    H153379   1.593   5.570   5.481  0.2992 -0.2119  0.3273
 9728TIP3    H253380   1.530   5.703   5.517  1.6648  0.4142  0.4646
 9729TIP3   OH253381   0.461   6.756   5.483  0.1326  0.1822 -0.0522
 9729TIP3    H153382   0.507   6.701   5.419  0.2552  0.4971 -0.2379
 9729TIP3    H253383   0.420   6.824   5.431 -0.1824  0.1579  0.1600
 9730TIP3   OH253384   4.585   7.194   6.062  0.2628 -0.4065 -0.3310
 9730TIP3    H153385   4.672   7.219   6.095 -0.6903  3.6507 -0.2696
 9730TIP3    H253386   4.529   7.268   6.087 -3.3278 -2.9522 -0.1384
 9731TIP3   OH253387   5.114   0.834   6.586 -0.6141 -0.5930  0.0443
 9731TIP3    H153388   5.150   0.920   6.604 -2.1391 -0.0878  0.8825
 9731TIP3    H253389   5.051   0.849   6.515 -0.7539 -1.0403  0.0706
 9732TIP3   OH253390   6.369   0.414   5.366  0.0638  0.2848  0.1178
 9732TIP3    H153391   6.439   0.398   5.429 -2.1425 -2.3703  2.1670
 9732TIP3    H253392   6.369   0.509   5.353  2.5596  0.6058  1.7201
 9733TIP3   OH253393   2.420   6.785   5.650  0.3965  0.2763 -0.5357
 9733TIP3    H153394   2.356   6.810   5.583  0.7718 -0.3832 -1.1490
 9733TIP3    H253395   2.428   6.690   5.642  0.9567  0.2733 -0.0114
 9734TIP3   OH253396   3.000   0.539   7.567 -0.1794  0.2525  0.7280
 9734TIP3    H153397   2.955   0.517   7.648 -0.1301  1.8909  1.2349
 9734TIP3    H253398   2.941   0.601   7.523  0.6173  0.7739  0.3810
 9735TIP3   OH253399   7.442   5.810   6.344  0.5950 -0.2224  0.0902
 9735TIP3    H153400   7.351   5.826   6.319  0.6211 -2.3274 -1.7044
 9735TIP3    H253401   7.436   5.754   6.421  0.4058  0.7937  0.8237
 9736TIP3   OH253402   3.547   6.331   6.017 -0.0209  0.2186 -0.1700
 9736TIP3    H153403   3.529   6.385   6.095  1.1605 -0.2605  0.4555
 9736TIP3    H253404   3.546   6.241   6.050 -0.7044 -0.0703 -0.9623
 9737TIP3   OH253405   0.404   1.025   4.932  0.2320  0.0649 -0.4365
 9737TIP3    H153406   0.490   1.001   4.968 -1.0453 -1.8211  1.6438
 9737TIP3    H253407   0.421   1.042   4.840  3.0827  1.2344  0.1919
 9738TIP3   OH253408   3.508   1.506   5.728  0.3660 -0.0545  0.0015
 9738TIP3    H153409   3.597   1.473   5.738  0.6498  0.1768 -1.5003
 9738TIP3    H253410   3.517   1.582   5.670 -0.8157 -0.1030 -0.2792
 9739TIP3   OH253411   4.370   4.838   5.345 -0.5952  0.4113  0.5429
 9739TIP3    H153412   4.427   4.862   5.418 -0.6100 -0.0897  0.7221
 9739TIP3    H253413   4.422   4.856   5.266 -0.7771  1.4734  0.6495
 9740TIP3   OH253414   6.187   1.180   6.414 -0.3212  0.2807 -0.4192
 9740TIP3    H153415   6.243   1.245   6.456  0.9263 -0.6827 -0.5326
 9740TIP3    H253416   6.107   1.228   6.391  0.0144  1.4295  0.7110
 9741TIP3   OH253417   4.399   5.346   6.581 -0.4287  0.5970  0.6670
 9741TIP3    H153418   4.393   5.334   6.487 -1.3748  2.9871  0.3362
 9741TIP3    H253419   4.310   5.332   6.613 -0.3184  0.7698  1.0615
 9742TIP3   OH253420   0.083   4.220   5.283  0.3895 -0.0506  0.0020
 9742TIP3    H153421   0.166   4.213   5.330  0.6457 -1.5867 -0.6273
 9742TIP3    H253422   0.103   4.194   5.193 -0.7119 -0.2047 -0.2176
 9743TIP3   OH253423   5.820   1.398   5.381 -0.0457 -0.2268  0.4982
 9743TIP3    H153424   5.750   1.336   5.399 -0.9309  0.2993 -0.9610
 9743TIP3    H253425   5.807   1.468   5.444 -1.4841  0.3441 -0.3832
 9744TIP3   OH253426   1.270   3.317   6.772  0.4354  0.1337  0.5006
 9744TIP3    H153427   1.328   3.249   6.806 -1.8415 -3.6087 -2.3587
 9744TIP3    H253428   1.187   3.303   6.817 -0.0157  1.2885  0.0731
 9745TIP3   OH253429   2.551   1.095   5.543  0.3415 -0.4783 -0.7869
 9745TIP3    H153430   2.468   1.113   5.586  1.7123 -0.0305  1.8847
 9745TIP3    H253431   2.536   1.117   5.451 -2.7587 -1.4246 -0.6256
 9746TIP3   OH253432   1.415   7.438   6.503 -0.0252 -0.0232  0.0315
 9746TIP3    H153433   1.450   7.514   6.548  0.2205  0.0766 -0.3200
 9746TIP3    H253434   1.392   7.470   6.415  1.0372 -0.5750 -0.4656
 9747TIP3   OH253435   7.308   0.338   6.190 -0.3621  0.4091  0.0680
 9747TIP3    H153436   7.222   0.300   6.212  0.2178 -1.0452 -0.0317
 9747TIP3    H253437   7.322   0.314   6.098 -0.8786  2.7237 -0.6571
 9748TIP3   OH253438   7.348   1.510   5.544  0.6164  0.0268  0.0763
 9748TIP3    H153439   7.360   1.417   5.561 -0.4543  0.0416  1.0295
 9748TIP3    H253440   7.437   1.547   5.550  0.9514 -0.8213  0.4303
 9749TIP3   OH253441   5.521   4.818   6.914 -0.2359 -0.2695 -0.0629
 9749TIP3    H153442   5.573   4.746   6.949 -0.5886 -0.2844  0.4374
 9749TIP3    H253443   5.488   4.864   6.992 -1.4771 -0.6270 -0.3559
 9750TIP3   OH253444   5.128   1.756   5.493 -0.7741  1.0786  0.1627
 9750TIP3    H153445   5.071   1.758   5.570 -0.0642  1.5116  0.7018
 9750TIP3    H253446   5.129   1.846   5.462  0.1017  1.2150  0.5474
 9751TIP3   OH253447   0.534   4.644   5.287  0.2218  0.0908  0.3335
 9751TIP3    H153448   0.544   4.708   5.357  0.0384 -1.6824  2.0693
 9751TIP3    H253449   0.614   4.591   5.291 -0.0760 -0.4361 -0.3590
 9752TIP3   OH253450   3.499   3.541   4.673 -0.0100 -0.6547  0.3825
 9752TIP3    H153451   3.411   3.542   4.712 -0.3796 -3.3545 -0.1959
 9752TIP3    H253452   3.490   3.592   4.593 -0.8399 -0.2041  0.7445
 9753TIP3   OH253453   3.167   3.327   5.060 -0.0113  0.1566  0.0110
 9753TIP3    H153454   3.097   3.299   5.000 -0.3748  0.8665  0.0904
 9753TIP3    H253455   3.151   3.420   5.073  0.4261  0.1367  0.7412
 9754TIP3   OH253456   3.418   5.981   7.063 -0.2024 -0.1508  0.0512
 9754TIP3    H153457   3.504   5.961   7.026 -1.2825 -0.7400 -2.3596
 9754TIP3    H253458   3.430   5.970   7.157  1.9448 -1.9231 -0.3178
 9755TIP3   OH253459   6.407   3.815   5.294 -0.5003  0.1568  0.0472
 9755TIP3    H153460   6.372   3.903   5.279 -1.3677 -0.1710  0.0652
 9755TIP3    H253461   6.356   3.759   5.236  1.5907 -0.0715 -1.6940
 9756TIP3   OH253462   0.997   3.748   5.757 -0.1867 -0.6275  0.0417
 9756TIP3    H153463   1.066   3.706   5.706 -0.2706 -0.6582 -0.0457
 9756TIP3    H253464   1.013   3.718   5.847  0.1316 -0.3475  0.0821
 9757TIP3   OH253465   0.829   1.164   7.067 -0.3007 -0.1969 -0.5611
 9757TIP3    H153466   0.868   1.089   7.022 -0.3771  0.3827 -1.6238
 9757TIP3    H253467   0.887   1.180   7.142 -0.1490 -1.1547 -0.4658
 9758TIP3   OH253468   0.387   4.198   5.744 -0.0598  0.2225 -0.2344
 9758TIP3    H153469   0.347   4.269   5.795  0.0786 -1.3597  2.2536
 9758TIP3    H253470   0.454   4.162   5.803  1.3576 -0.6191 -2.2514
 9759TIP3   OH253471   6.526   2.487   6.219  0.0356 -0.0798  1.0458
 9759TIP3    H153472   6.531   2.509   6.126  2.2143 -2.4637  0.4776
 9759TIP3    H253473   6.442   2.523   6.248 -0.4285  1.2862 -1.6524
 9760TIP3   OH253474   1.244   0.321   5.044 -0.5581 -0.1417  0.0447
 9760TIP3    H153475   1.312   0.354   5.101  0.8036  0.1496 -1.6585
 9760TIP3    H253476   1.246   0.378   4.967 -1.6161 -1.1207 -0.7585
 9761TIP3   OH253477   6.092   0.649   6.138  0.2397  0.3623 -0.4198
 9761TIP3    H153478   6.066   0.657   6.230 -1.5559  1.2770 -0.9529
 9761TIP3    H253479   6.080   0.557   6.117 -0.3040  0.3345  0.0105
 9762TIP3   OH253480   2.091   3.467   5.959  0.0201  0.7841 -0.0513
 9762TIP3    H153481   2.150   3.540   5.942  0.3446  0.5234 -0.0360
 9762TIP3    H253482   2.109   3.441   6.050  1.8839 -1.1071 -0.8913
 9763TIP3   OH253483   1.201   5.628   6.764  0.0428 -0.4032 -0.2437
 9763TIP3    H153484   1.203   5.704   6.822  0.7466 -1.1919  0.8071
 9763TIP3    H253485   1.178   5.664   6.678 -1.3555  0.7598  0.5553
 9764TIP3   OH253486   3.734   2.228   6.700 -0.2247  0.4209  0.1515
 9764TIP3    H153487   3.745   2.312   6.655  0.4833  0.1490 -0.1995
 9764TIP3    H253488   3.820   2.211   6.739 -0.9779  0.9733  2.2145
 9765TIP3   OH253489   6.124   7.536   5.502 -0.5501 -0.7483 -0.4121
 9765TIP3    H153490   6.047   7.560   5.451 -1.3930  0.0292  1.1719
 9765TIP3    H253491   6.188   7.604   5.481 -1.6654  0.8818  1.2255
 9766TIP3   OH253492   4.980   1.006   6.205 -0.4396  0.4597 -0.3859
 9766TIP3    H153493   4.904   1.050   6.243 -0.6530 -0.7940  0.7548
 9766TIP3    H253494   5.054   1.062   6.227 -0.3577 -0.7721  3.2088
 9767TIP3   OH253495   5.039   4.359   5.187  0.2009 -0.0564 -0.2300
 9767TIP3    H153496   5.133   4.372   5.201  0.5930 -2.8019  0.3299
 9767TIP3    H253497   5.023   4.398   5.101  1.2261  2.7150  0.7102
 9768TIP3   OH253498   3.522   7.222   6.561 -0.5179 -0.2640  0.2020
 9768TIP3    H153499   3.436   7.239   6.521 -0.2178 -2.1066 -1.3562
 9768TIP3    H253500   3.508   7.143   6.613  0.4344 -1.1657 -0.8690
 9769TIP3   OH253501   2.919   2.914   6.301  0.0106  0.2602  0.3736
 9769TIP3    H153502   2.914   2.934   6.395  0.6430  0.5860  0.3385
 9769TIP3    H253503   2.956   2.826   6.298 -0.9750 -0.1789  0.4554
 9770TIP3   OH253504   1.053   6.573   4.313  0.1429  0.0613 -0.1008
 9770TIP3    H153505   1.075   6.485   4.343  0.6887  0.0285 -0.5645
 9770TIP3    H253506   1.116   6.590   4.242  0.6422  1.1766  0.5871
 9771TIP3   OH253507   1.301   5.821   5.155  0.5401  1.0122  0.1452
 9771TIP3    H153508   1.395   5.835   5.149  0.7898 -0.7831 -2.0715
 9771TIP3    H253509   1.267   5.856   5.072 -0.5337  0.4605  0.3389
 9772TIP3   OH253510   1.368   3.264   5.357  0.1504  0.3260 -0.5017
 9772TIP3    H153511   1.379   3.206   5.282 -1.3127  1.4975 -1.6806
 9772TIP3    H253512   1.457   3.285   5.385  0.7156 -0.4259 -1.6889
 9773TIP3   OH253513   5.291   6.096   6.442 -0.5721 -0.1184  0.6048
 9773TIP3    H153514   5.229   6.033   6.405  0.8500 -2.4472  1.9617
 9773TIP3    H253515   5.332   6.050   6.515  1.4607  1.9706  0.9018
 9774TIP3   OH253516   4.445   2.796   6.965 -0.1631  0.6447  0.0505
 9774TIP3    H153517   4.413   2.885   6.951  0.4241  0.8652  0.0561
 9774TIP3    H253518   4.469   2.765   6.877 -0.0443  0.6200  0.0912
 9775TIP3   OH253519   0.912   2.022   5.151 -0.2345  0.4670  0.0526
 9775TIP3    H153520   0.876   2.108   5.132 -0.9584  0.5590  1.6717
 9775TIP3    H253521   0.873   1.964   5.086 -1.8229  0.9151  0.5582
 9776TIP3   OH253522   6.798   7.522   6.819 -0.2915 -0.0893  0.1629
 9776TIP3    H153523   6.832   7.503   6.732 -0.2701 -1.5519  0.4680
 9776TIP3    H253524   6.872   7.505   6.877 -0.7806 -0.7523  0.6039
 9777TIP3   OH253525   1.360   1.802   6.388 -0.6546 -0.1833 -0.1906
 9777TIP3    H153526   1.347   1.721   6.437 -2.1680 -0.4909 -1.0345
 9777TIP3    H253527   1.286   1.857   6.411  1.1953  1.6953  1.6397
 9778TIP3   OH253528   4.337   2.013   6.008  0.1622 -0.1469  0.5166
 9778TIP3    H153529   4.426   1.992   6.036  0.0982  0.4050  1.1520
 9778TIP3    H253530   4.290   2.034   6.088 -0.9508 -1.8509  0.3603
 9779TIP3   OH253531   1.371   2.763   7.140 -0.2578  0.2344 -0.0165
 9779TIP3    H153532   1.437   2.717   7.193  1.2716  0.8756 -1.2725
 9779TIP3    H253533   1.300   2.782   7.201  1.3214  0.7325  1.7572
 9780TIP3   OH253534   6.805   3.909   6.885  0.3262 -0.2508  0.6097
 9780TIP3    H153535   6.838   3.857   6.959 -0.0716  0.1455  1.0686
 9780TIP3    H253536   6.710   3.894   6.886  0.3846 -0.7368 -0.2034
 9781TIP3   OH253537   1.180   2.064   5.021 -0.1985 -0.1974 -0.1617
 9781TIP3    H153538   1.151   2.096   4.936  0.3267 -2.2908 -1.1925
 9781TIP3    H253539   1.106   2.012   5.054 -1.2837  2.3142  1.7654
 9782TIP3   OH253540   2.371   6.345   4.967 -0.9262  0.0234 -0.4600
 9782TIP3    H153541   2.351   6.283   5.037  2.7507 -0.3961  0.4088
 9782TIP3    H253542   2.329   6.308   4.889  0.0984 -2.9557  0.2729
 9783TIP3   OH253543   2.289   0.122   7.133  0.5147 -0.1354 -0.2746
 9783TIP3    H153544   2.255   0.106   7.221 -0.6189  0.5055 -0.5840
 9783TIP3    H253545   2.357   0.054   7.121 -0.4619 -1.2854  0.4559
 9784TIP3   OH253546   0.935   7.639   5.201 -0.1484 -0.1831  0.0282
 9784TIP3    H153547   0.893   7.693   5.268 -1.1199  0.3089 -0.9591
 9784TIP3    H253548   1.017   7.685   5.183 -0.8787  0.8996 -0.6673
 9785TIP3   OH253549   6.303   5.796   5.754  0.8447 -0.5038 -0.0596
 9785TIP3    H153550   6.282   5.889   5.741 -2.2173 -0.9897  0.8103
 9785TIP3    H253551   6.346   5.793   5.839  0.8899  0.0831 -0.0526
 9786TIP3   OH253552   6.963   7.445   5.203 -0.3319  0.3597  0.0600
 9786TIP3    H153553   6.909   7.477   5.131 -1.6778 -1.0085  0.3948
 9786TIP3    H253554   6.947   7.350   5.204  2.6542 -0.2523 -0.2575
 9787TIP3   OH253555   4.065   3.338   6.157  0.4673 -0.1564  0.2326
 9787TIP3    H153556   4.066   3.425   6.117 -0.2466 -0.5031 -0.5633
 9787TIP3    H253557   4.142   3.295   6.121 -0.0597 -0.3966 -0.6498
 9788TIP3   OH253558   7.043   6.581   6.180 -0.0066 -0.1240 -0.2455
 9788TIP3    H153559   7.083   6.657   6.138 -0.0544  0.2272  0.3247
 9788TIP3    H253560   7.099   6.562   6.255 -0.7342  0.1938  0.3977
 9789TIP3   OH253561   1.151   6.287   7.066  0.2111  0.4039  0.3285
 9789TIP3    H153562   1.229   6.244   7.102  1.5293  2.1538 -0.3135
 9789TIP3    H253563   1.148   6.260   6.975  1.8067  2.5426 -0.4449
 9790TIP3   OH253564   3.153   4.000   6.296 -0.1777 -0.2702  0.0311
 9790TIP3    H153565   3.191   4.087   6.306 -0.0264 -0.3178 -0.1346
 9790TIP3    H253566   3.218   3.941   6.334  1.2463 -0.6432 -2.7883
 9791TIP3   OH253567   0.398   6.450   5.121 -0.1439 -0.0673  0.7317
 9791TIP3    H153568   0.339   6.491   5.058 -1.0103 -1.4589  0.6149
 9791TIP3    H253569   0.377   6.493   5.204 -0.4130  0.3476  0.4547
 9792TIP3   OH253570   3.982   2.177   4.963  0.1867  0.1809  0.0988
 9792TIP3    H153571   4.062   2.136   4.930  1.0848  0.7656  1.4708
 9792TIP3    H253572   3.962   2.129   5.043 -1.7120 -0.9215 -0.9500
 9793TIP3   OH253573   3.583   0.760   5.672 -0.6541  0.1343  0.1154
 9793TIP3    H153574   3.502   0.804   5.700  0.3550  1.3359  1.3325
 9793TIP3    H253575   3.563   0.725   5.586 -1.6186  2.9387 -0.9251
 9794TIP3   OH253576   7.303   2.760   5.100  0.5912  0.0579  0.0925
 9794TIP3    H153577   7.305   2.732   5.192  1.1455 -2.9510 -0.7313
 9794TIP3    H253578   7.246   2.698   5.057  0.9223  0.9736 -1.7610
 9795TIP3   OH253579   4.372   6.698   6.662  0.3534  0.1549  1.0416
 9795TIP3    H153580   4.406   6.681   6.749 -1.1543  0.2714  1.6938
 9795TIP3    H253581   4.279   6.719   6.676  0.0567  0.1089 -0.5909
 9796TIP3   OH253582   4.312   4.473   6.393 -0.5487 -0.5783 -0.2600
 9796TIP3    H153583   4.231   4.512   6.360 -0.8563 -0.1333  0.9756
 9796TIP3    H253584   4.286   4.427   6.473  0.9341  2.8852  2.5094
 9797TIP3   OH253585   7.404   0.642   5.216  0.0192  0.0681 -0.4805
 9797TIP3    H153586   7.343   0.656   5.144  0.6643  1.1692 -0.8344
 9797TIP3    H253587   7.399   0.722   5.268  2.4571  1.0287 -1.5408
 9798TIP3   OH253588   2.534   3.234   6.781  0.3279  0.3130 -0.0335
 9798TIP3    H153589   2.615   3.232   6.833  0.5043 -1.4415 -0.3187
 9798TIP3    H253590   2.481   3.163   6.817 -0.6233  0.7123 -0.6077
 9799TIP3   OH253591   2.614   7.576   7.700  0.6086 -0.1256  0.1456
 9799TIP3    H153592   2.689   7.628   7.729  1.6792 -2.7443  2.5678
 9799TIP3    H253593   2.651   7.516   7.635  1.2553 -2.6380  2.6091
 9800TIP3   OH253594   0.713   1.283   4.727 -0.2148 -0.1765 -0.2178
 9800TIP3    H153595   0.656   1.234   4.668 -0.6990  0.1001  0.0156
 9800TIP3    H253596   0.657   1.306   4.801  0.2478 -0.0514  0.0945
 9801TIP3   OH253597   4.452   4.730   4.996  0.1130  0.2214 -0.1641
 9801TIP3    H153598   4.521   4.668   5.021  0.2557 -1.4799 -4.0282
 9801TIP3    H253599   4.372   4.677   4.995 -0.5313  1.1568  0.3174
 9802TIP3   OH253600   6.283   6.084   6.903  0.2687  0.3491  0.0755
 9802TIP3    H153601   6.212   6.071   6.965 -0.1067  1.3028 -0.1396
 9802TIP3    H253602   6.362   6.087   6.957  0.0423  0.2798  0.4120
 9803TIP3   OH253603   5.863   4.298   4.938  0.0122 -0.5421  0.1615
 9803TIP3    H153604   5.903   4.218   4.902  0.3706 -1.7779  3.0547
 9803TIP3    H253605   5.936   4.347   4.975 -0.5033 -0.1348  0.6523
 9804TIP3   OH253606   0.855   1.454   5.912  0.2776  0.1060  0.1154
 9804TIP3    H153607   0.779   1.419   5.865  0.9748 -1.4052  0.0707
 9804TIP3    H253608   0.922   1.465   5.844  1.8626 -3.6598  0.8444
 9805TIP3   OH253609   5.151   0.430   5.278 -1.3336 -0.2908 -0.2943
 9805TIP3    H153610   5.056   0.424   5.266 -1.1521 -0.0388 -2.0379
 9805TIP3    H253611   5.164   0.516   5.318 -1.7726  0.1007 -0.9744
 9806TIP3   OH253612   1.293   4.563   5.342  0.7625 -0.3658 -0.6862
 9806TIP3    H153613   1.225   4.519   5.393 -1.1312  0.9951 -1.9087
 9806TIP3    H253614   1.375   4.528   5.376 -0.5518 -3.2661 -0.1944
 9807TIP3   OH253615   0.631   4.121   5.896 -0.1739  0.2438  0.7594
 9807TIP3    H153616   0.674   4.075   5.824 -1.0641 -1.6139  1.3504
 9807TIP3    H253617   0.651   4.214   5.881  2.2909 -0.3371 -0.1164
 9808TIP3   OH253618   0.014   2.298   6.323  0.3449 -0.1055  0.1741
 9808TIP3    H153619   0.035   2.237   6.251  0.7684  1.3134 -0.9554
 9808TIP3    H253620  -0.029   2.243   6.388 -0.0760 -1.4632 -1.1650
 9809TIP3   OH253621   1.051   0.432   6.359  0.1617  0.2342  0.3200
 9809TIP3    H153622   1.077   0.388   6.278 -1.5370 -0.4533  0.1114
 9809TIP3    H253623   1.133   0.466   6.395  1.5282 -2.7099  0.2959
 9810TIP3   OH253624   5.018   1.317   5.609 -0.2626  0.4530 -0.2765
 9810TIP3    H153625   4.965   1.387   5.647 -0.2699  0.6627 -0.6680
 9810TIP3    H253626   5.104   1.327   5.651 -0.2438  0.7380 -0.3817
 9811TIP3   OH253627   5.300   5.934   7.133 -0.3213 -0.4122 -0.1834
 9811TIP3    H153628   5.359   5.862   7.107 -0.1477  0.0191 -1.0440
 9811TIP3    H253629   5.241   5.944   7.058 -1.0847 -0.4189  0.4162
 9812TIP3   OH253630   1.453   5.294   4.843  0.6397  0.1899 -0.1847
 9812TIP3    H153631   1.513   5.339   4.903  2.9378 -0.5778 -1.7717
 9812TIP3    H253632   1.389   5.362   4.818 -0.0175  0.6938  2.5232
 9813TIP3   OH253633   0.946   7.336   6.147  0.2336  0.2292 -0.0042
 9813TIP3    H153634   0.893   7.308   6.072  1.7231  1.5368 -1.6557
 9813TIP3    H253635   0.883   7.362   6.214 -1.1565 -0.7334 -0.9004
 9814TIP3   OH253636   2.767   2.098   5.734 -0.2297 -0.3979 -0.3562
 9814TIP3    H153637   2.724   2.177   5.702 -0.0716 -0.8329 -1.7220
 9814TIP3    H253638   2.795   2.052   5.654 -0.2554 -1.7882  0.4011
 9815TIP3   OH253639   2.695   7.201   6.789  0.1261 -0.4074  0.4827
 9815TIP3    H153640   2.680   7.254   6.866 -0.1056  0.1996  0.0274
 9815TIP3    H253641   2.726   7.117   6.823  1.0728  0.2125  1.1734
 9816TIP3   OH253642   5.565   1.356   7.138  0.4878 -0.1441 -0.0699
 9816TIP3    H153643   5.509   1.354   7.215  2.6355 -1.7423  1.5704
 9816TIP3    H253644   5.528   1.290   7.079 -0.5438  0.3092  0.0676
 9817TIP3   OH253645   5.306   4.837   6.411 -0.3085 -0.1687 -0.7166
 9817TIP3    H153646   5.313   4.881   6.325 -0.4768 -1.1472 -1.2405
 9817TIP3    H253647   5.283   4.747   6.390  4.5293 -1.8621 -0.0007
 9818TIP3   OH253648   5.979   0.180   6.136  0.7011 -0.0678  0.2200
 9818TIP3    H153649   6.014   0.240   6.071  1.4217 -0.5908  0.1095
 9818TIP3    H253650   5.950   0.104   6.086 -0.0127  0.0893  0.3774
 9819TIP3   OH253651   6.023   4.325   5.885 -0.0140  0.3951 -0.5775
 9819TIP3    H153652   5.965   4.298   5.956  0.3330  1.6970  0.2200
 9819TIP3    H253653   5.982   4.288   5.806 -0.2943 -1.2393  0.2851
 9820TIP3   OH253654   0.307   4.201   6.636  0.2987  0.3392 -0.3376
 9820TIP3    H153655   0.378   4.139   6.648  0.2073  0.1172 -0.9161
 9820TIP3    H253656   0.335   4.258   6.564 -0.7490 -0.7254 -1.6391
 9821TIP3   OH253657   1.547   3.812   5.566 -0.0922  0.7207 -0.1968
 9821TIP3    H153658   1.555   3.717   5.557 -0.5783  0.6214  0.3540
 9821TIP3    H253659   1.461   3.832   5.529 -0.3780  0.8286  0.5292
 9822TIP3   OH253660   6.501   3.873   6.523 -0.4386  0.0595 -0.4129
 9822TIP3    H153661   6.434   3.806   6.529 -0.0471 -0.2140  1.3801
 9822TIP3    H253662   6.456   3.949   6.486 -1.7651 -0.1012  0.8084
 9823TIP3   OH253663   2.467   1.073   6.574 -0.9612 -0.5874 -0.2059
 9823TIP3    H153664   2.532   1.137   6.602  0.3461 -1.5707 -0.9072
 9823TIP3    H253665   2.383   1.115   6.593 -0.2663 -0.6121  3.9459
 9824TIP3   OH253666   4.312   5.022   7.356 -0.1011 -0.2232  0.1578
 9824TIP3    H153667   4.382   4.960   7.334  1.3211  1.3224  0.0878
 9824TIP3    H253668   4.352   5.080   7.421 -1.5784  0.2706  0.6537
 9825TIP3   OH253669   0.822   3.449   6.397 -0.1938  1.1010  0.4472
 9825TIP3    H153670   0.770   3.401   6.461 -0.8335  0.4272 -0.5558
 9825TIP3    H253671   0.780   3.535   6.391 -0.9372  0.7078 -0.0407
 9826TIP3   OH253672   3.043   6.721   6.145 -1.1738  0.1427  0.1494
 9826TIP3    H153673   3.126   6.767   6.135 -1.7743  0.7570 -3.5491
 9826TIP3    H253674   2.976   6.788   6.129 -2.2659 -0.9329  0.0355
 9827TIP3   OH253675   1.051   4.017   6.338  0.2611  0.3096 -0.3603
 9827TIP3    H153676   0.987   3.978   6.397 -0.6270  0.6584 -1.0781
 9827TIP3    H253677   1.010   4.014   6.251  0.7798  1.4704 -0.6715
 9828TIP3   OH253678   3.150   0.809   4.720 -0.1991  0.1538 -0.1592
 9828TIP3    H153679   3.225   0.861   4.749  0.7996 -0.5902 -1.3100
 9828TIP3    H253680   3.083   0.875   4.697  1.7555  1.1738 -3.5968
 9829TIP3   OH253681   6.831   4.513   6.669 -0.0541 -0.1281 -0.5469
 9829TIP3    H153682   6.800   4.475   6.751  2.0158 -0.9767 -0.0852
 9829TIP3    H253683   6.919   4.543   6.689 -0.3690  1.8305 -1.8627
 9830TIP3   OH253684   2.909   6.515   6.418  0.1841  0.1757 -0.1385
 9830TIP3    H153685   2.848   6.496   6.347  0.3755 -0.2432 -0.1906
 9830TIP3    H253686   2.986   6.461   6.400  0.7170  0.9585 -0.2602
 9831TIP3   OH253687   0.010   4.786   5.525  0.2778 -0.2224  0.2545
 9831TIP3    H153688   0.001   4.879   5.505  0.7815 -0.0537  0.7752
 9831TIP3    H253689   0.095   4.762   5.489  0.0189 -0.5590 -0.1428
 9832TIP3   OH253690   0.784   5.444   6.478 -0.4479  0.1656  0.1221
 9832TIP3    H153691   0.702   5.487   6.503 -0.2091  0.0906  1.0876
 9832TIP3    H253692   0.830   5.431   6.561  0.6471  0.4157 -0.4232
 9833TIP3   OH253693   2.666   1.162   7.271  0.1127  0.3415  0.1501
 9833TIP3    H153694   2.684   1.213   7.350  0.5486  0.1341  0.1869
 9833TIP3    H253695   2.709   1.078   7.287 -0.5977 -0.0394  0.0889
 9834TIP3   OH253696   7.618   4.074   5.552 -0.4474  0.6150  0.1113
 9834TIP3    H153697   7.669   4.047   5.629 -0.0298  0.7584 -0.1110
 9834TIP3    H253698   7.679   4.066   5.479 -0.9207  0.2381 -0.2451
 9835TIP3   OH253699   5.229   0.251   6.998  0.5691 -0.0525 -0.2960
 9835TIP3    H153700   5.298   0.184   7.007  0.8575  0.1393 -1.0120
 9835TIP3    H253701   5.208   0.251   6.904  0.1679  0.4651 -0.2091
 9836TIP3   OH253702   4.086   5.173   6.399  0.2343  0.2540  0.0411
 9836TIP3    H153703   4.077   5.105   6.332  0.3563  1.3450 -1.1027
 9836TIP3    H253704   4.032   5.246   6.368  2.5890  1.9112 -0.3861
 9837TIP3   OH253705   0.340   0.457   7.266 -0.3402 -0.5069  0.2202
 9837TIP3    H153706   0.391   0.376   7.271 -0.6573 -0.6924  0.4911
 9837TIP3    H253707   0.405   0.526   7.275 -0.2558 -0.7543  1.7109
 9838TIP3   OH253708   6.011   3.018   5.553  0.6331 -0.3918 -0.1818
 9838TIP3    H153709   5.977   2.955   5.490 -1.8917  0.4159  0.2884
 9838TIP3    H253710   6.054   2.963   5.619 -0.1990 -1.5262 -0.5464
 9839TIP3   OH253711   6.528   1.754   6.537  0.3303 -0.3190 -0.1759
 9839TIP3    H153712   6.570   1.671   6.560 -2.1379 -1.9904 -1.2755
 9839TIP3    H253713   6.512   1.796   6.622  3.3246  0.0757  0.3300
 9840TIP3   OH253714   3.804   4.972   5.088  0.2398  0.5278  0.3324
 9840TIP3    H153715   3.888   4.984   5.132  0.7315  2.4320 -1.0446
 9840TIP3    H253716   3.795   4.877   5.080  3.1036  0.2840 -1.0289
 9841TIP3   OH253717   2.500   1.267   4.689 -0.0911  0.5035 -0.0020
 9841TIP3    H153718   2.563   1.322   4.642  1.4851 -2.5175 -1.6669
 9841TIP3    H253719   2.543   1.246   4.771  0.6773 -0.6501 -0.6686
 9842TIP3   OH253720   5.080   7.176   5.438  0.2332  0.1151  0.1014
 9842TIP3    H153721   5.108   7.151   5.350 -0.7346  0.2760 -0.2719
 9842TIP3    H253722   5.072   7.093   5.485 -0.8191 -0.1306 -0.4677
 9843TIP3   OH253723   4.052   7.354   5.605 -0.3563 -0.0297  0.4142
 9843TIP3    H153724   4.129   7.329   5.656 -0.5594  1.2704  1.4112
 9843TIP3    H253725   4.088   7.404   5.532 -0.2549  0.9166  1.0937
 9844TIP3   OH253726   0.276   4.456   5.551  0.2351 -0.2493 -0.2795
 9844TIP3    H153727   0.302   4.370   5.519  1.8677  0.4457 -0.9695
 9844TIP3    H253728   0.286   4.451   5.646  0.5981 -0.7455 -0.3431
 9845TIP3   OH253729   2.651   2.152   5.984  0.2558 -0.0260  0.4630
 9845TIP3    H153730   2.558   2.142   5.964  0.2148 -0.5654  0.9303
 9845TIP3    H253731   2.696   2.128   5.903 -0.0081  0.3217  0.2086
 9846TIP3   OH253732   5.905   6.853   6.749 -0.2031 -0.6535 -0.5468
 9846TIP3    H153733   5.963   6.884   6.818  1.7445 -2.0660 -1.4322
 9846TIP3    H253734   5.937   6.896   6.670 -1.6999  0.0906 -0.7873
 9847TIP3   OH253735   3.340   0.089   5.564 -0.2064 -0.7935  0.1350
 9847TIP3    H153736   3.361  -0.001   5.591 -0.4538 -0.7348  0.5150
 9847TIP3    H253737   3.268   0.116   5.621 -0.2577 -0.4177 -0.1034
 9848TIP3   OH253738   5.109   4.827   6.053 -0.6618 -0.5284 -0.7498
 9848TIP3    H153739   5.053   4.824   6.131 -0.5942 -0.1372 -0.6860
 9848TIP3    H253740   5.198   4.829   6.088 -0.6147 -0.8391 -0.8476
 9849TIP3   OH253741   5.975   2.636   5.830 -0.0052 -0.5223 -0.0041
 9849TIP3    H153742   5.942   2.719   5.794  3.9231  1.0742 -0.5181
 9849TIP3    H253743   5.974   2.649   5.924  1.6969  0.7174 -0.1088
 9850TIP3   OH253744   2.638   2.732   5.954  0.4415  0.0221 -0.1850
 9850TIP3    H153745   2.543   2.723   5.947  0.3482  0.8720 -0.1607
 9850TIP3    H253746   2.651   2.821   5.988  1.2628  0.1761 -0.8535
 9851TIP3   OH253747   6.340   5.981   6.647 -0.2413 -0.2442  0.4378
 9851TIP3    H153748   6.310   6.025   6.727 -0.4355 -1.0597  0.8280
 9851TIP3    H253749   6.427   5.948   6.669 -0.3273 -0.5367  0.3377
 9852TIP3   OH253750   7.361   2.076   6.885  0.2010  0.3890  0.3822
 9852TIP3    H153751   7.339   2.107   6.798  0.2941  0.8600  0.5245
 9852TIP3    H253752   7.285   2.100   6.939  0.6945  1.2816  0.7021
 9853TIP3   OH253753   1.445   7.659   4.712 -0.4043 -0.7990  0.7201
 9853TIP3    H153754   1.374   7.678   4.773  0.3475  1.8931  0.8797
 9853TIP3    H253755   1.402   7.617   4.637 -2.6317  2.4395 -0.0649
 9854TIP3   OH253756   0.457   0.519   7.614 -0.0460 -0.6766 -0.0046
 9854TIP3    H153757   0.480   0.599   7.568  0.3886 -0.4972  0.5133
 9854TIP3    H253758   0.366   0.532   7.641 -0.0686 -0.4818 -0.1746
 9855TIP3   OH253759   4.865   4.446   7.441 -0.1257  0.3252  0.1275
 9855TIP3    H153760   4.879   4.439   7.346 -0.8674  1.2396 -0.0646
 9855TIP3    H253761   4.953   4.458   7.477  0.0323  1.8152 -0.6452
 9856TIP3   OH253762   2.144   1.078   6.958 -0.4233 -0.0072 -0.1003
 9856TIP3    H153763   2.176   1.166   6.938 -0.9024  0.7901  2.3516
 9856TIP3    H253764   2.051   1.080   6.933 -0.8219  0.7213  1.3361
 9857TIP3   OH253765   5.535   7.520   5.937  0.7300  0.3600  0.3824
 9857TIP3    H153766   5.590   7.594   5.966  1.5920  0.2782 -0.9903
 9857TIP3    H253767   5.513   7.541   5.847  0.7082 -0.9208  0.0843
 9858TIP3   OH253768   6.135   2.491   6.104 -0.1427  0.0604  0.3398
 9858TIP3    H153769   6.165   2.401   6.090  2.1281  0.5589  1.4112
 9858TIP3    H253770   6.188   2.544   6.045 -1.9324  0.6817 -0.7758
 9859TIP3   OH253771   2.224   5.541   5.174 -0.3037  0.5726  0.4661
 9859TIP3    H153772   2.295   5.586   5.219 -0.3744  0.0158  1.1696
 9859TIP3    H253773   2.159   5.609   5.156  0.7614  1.2517 -0.9693
 9860TIP3   OH253774   3.239   7.475   6.582 -0.1764  0.3748  0.5710
 9860TIP3    H153775   3.328   7.483   6.547  0.9209 -1.5103  2.7112
 9860TIP3    H253776   3.190   7.430   6.513  1.6544 -2.3309  0.8892
 9861TIP3   OH253777   3.374   7.298   6.343  0.0757  0.0259 -0.4028
 9861TIP3    H153778   3.280   7.316   6.335 -0.1633 -1.0186 -0.0697
 9861TIP3    H253779   3.382   7.205   6.324  0.8090 -0.2719  1.2437
 9862TIP3   OH253780   3.764   6.620   6.719  0.5638 -0.1096  0.3400
 9862TIP3    H153781   3.718   6.671   6.786  0.0729  0.2541 -0.2615
 9862TIP3    H253782   3.847   6.595   6.760 -0.5340 -1.5885  1.8136
 9863TIP3   OH253783   5.996   0.574   6.899 -0.0877  0.2997  0.1489
 9863TIP3    H153784   5.956   0.621   6.972  1.5628  0.9235  0.7210
 9863TIP3    H253785   5.991   0.482   6.923 -2.5456  0.1895 -0.5529
 9864TIP3   OH253786   7.080   2.049   6.201  0.2218 -0.0286  0.0646
 9864TIP3    H153787   7.008   1.987   6.187 -0.4676  0.9768 -1.0142
 9864TIP3    H253788   7.122   2.019   6.282 -1.5179 -0.5613  0.8227
 9865TIP3   OH253789   5.614   3.399   5.155 -0.0913 -0.3266 -0.1007
 9865TIP3    H153790   5.661   3.345   5.219 -0.8851 -0.3898  0.4376
 9865TIP3    H253791   5.635   3.489   5.180  1.1770 -0.3567 -0.9561
 9866TIP3   OH253792   4.295   2.378   4.761  0.3907 -0.1214  0.1913
 9866TIP3    H153793   4.377   2.412   4.796 -0.1070 -0.4715  1.7937
 9866TIP3    H253794   4.283   2.423   4.677  2.8060 -0.9411 -0.6762
 9867TIP3   OH253795   2.407   6.746   5.947  0.1344 -0.2338 -0.0476
 9867TIP3    H153796   2.388   6.716   5.858  0.7765  0.9031 -0.5886
 9867TIP3    H253797   2.368   6.833   5.952 -0.9096 -0.7488  1.1861
 9868TIP3   OH253798   1.438   6.630   7.991 -0.4894 -0.0013 -0.5764
 9868TIP3    H153799   1.426   6.535   7.991 -0.5820 -0.0199 -2.1804
 9868TIP3    H253800   1.529   6.643   8.016  0.5181 -0.7406 -3.4814
 9869TIP3   OH253801   1.351   2.193   5.970 -0.3683 -0.1555  0.0558
 9869TIP3    H153802   1.288   2.132   5.932  0.5553 -0.9402 -0.2430
 9869TIP3    H253803   1.424   2.138   5.997  0.6000  0.8490 -0.4489
 9870TIP3   OH253804   7.265   1.231   5.021 -0.5622  0.4037 -0.4345
 9870TIP3    H153805   7.317   1.270   4.952  1.2118 -0.7339  0.1920
 9870TIP3    H253806   7.222   1.156   4.980 -2.0007  1.5248 -1.0291
 9871TIP3   OH253807   5.609   6.081   6.254 -0.0784 -0.1642  0.3247
 9871TIP3    H153808   5.549   6.149   6.285 -0.0710 -0.6472  1.4594
 9871TIP3    H253809   5.696   6.117   6.270 -0.0555  0.3741 -0.9530
 9872TIP3   OH253810   2.858   2.154   7.241  0.3629 -0.2744  0.1422
 9872TIP3    H153811   2.763   2.148   7.251  0.4623  0.2699  1.8028
 9872TIP3    H253812   2.884   2.066   7.212 -0.4876 -0.9608  1.3489
 9873TIP3   OH253813   0.331   5.308   6.571  0.5627 -0.3753 -0.6330
 9873TIP3    H153814   0.370   5.304   6.483 -1.9182  0.3619 -1.8410
 9873TIP3    H253815   0.238   5.291   6.557  0.1018 -0.2638  1.8847
 9874TIP3   OH253816   4.587   6.183   6.420 -0.3196  0.1827  0.2157
 9874TIP3    H153817   4.507   6.213   6.461 -1.1144 -0.6526 -0.6570
 9874TIP3    H253818   4.560   6.157   6.331  0.9956  0.3089 -0.2427
 9875TIP3   OH253819   0.195   7.273   5.999  0.3511 -0.0447 -0.5023
 9875TIP3    H153820   0.241   7.345   6.042  0.6209 -1.1656  1.1997
 9875TIP3    H253821   0.263   7.226   5.951  0.5807 -0.3544  0.1084
 9876TIP3   OH253822   1.802   5.771   7.042 -0.7677  0.3293 -0.1998
 9876TIP3    H153823   1.883   5.820   7.050 -0.0073 -0.7026 -1.2012
 9876TIP3    H253824   1.740   5.833   7.002  0.3184  0.3638 -1.9387
 9877TIP3   OH253825   0.134   5.128   5.033 -0.1003 -0.0049  0.5980
 9877TIP3    H153826   0.157   5.217   5.061  0.4091 -0.2506  0.9675
 9877TIP3    H253827   0.214   5.091   4.997 -0.1960 -0.4615  0.8353
 9878TIP3   OH253828   4.720   2.703   7.008  0.4930 -0.0459 -0.2410
 9878TIP3    H153829   4.734   2.697   7.103 -0.5000  0.7651 -0.0155
 9878TIP3    H253830   4.629   2.733   7.000  1.1677  1.8800 -1.3835
 9879TIP3   OH253831   2.326   2.713   4.805  0.2984 -0.4279  0.2129
 9879TIP3    H153832   2.316   2.706   4.710 -0.0241 -2.2566  0.3323
 9879TIP3    H253833   2.259   2.776   4.831  0.2183 -0.0932 -0.7528
 9880TIP3   OH253834   4.448   4.268   6.169  0.5279  0.1866 -0.2717
 9880TIP3    H153835   4.377   4.310   6.218 -1.6204 -1.9084 -1.3665
 9880TIP3    H253836   4.464   4.327   6.096 -0.8210  0.2567 -0.5449
 9881TIP3   OH253837   5.028   1.496   7.536  0.3667 -0.0989  0.1822
 9881TIP3    H153838   5.086   1.561   7.498 -0.1038  0.0498 -0.2898
 9881TIP3    H253839   5.079   1.415   7.535  0.5904  0.0421 -0.1708
 9882TIP3   OH253840   5.809   5.875   6.340  0.0730 -0.1194 -0.1275
 9882TIP3    H153841   5.756   5.924   6.277 -0.2926  1.5250  1.3865
 9882TIP3    H253842   5.767   5.891   6.425  0.6192 -2.1661  0.5889
 9883TIP3   OH253843   3.494   2.502   6.324 -0.3749  0.6411  0.2581
 9883TIP3    H153844   3.531   2.581   6.285 -0.8928 -0.0626 -1.7628
 9883TIP3    H253845   3.521   2.506   6.416  0.4906  2.6188 -0.0330
 9884TIP3   OH253846   6.842   0.449   7.325  0.3666 -0.6051 -0.0024
 9884TIP3    H153847   6.813   0.519   7.383 -2.3140 -2.9748  1.7458
 9884TIP3    H253848   6.782   0.451   7.251 -0.3556 -1.6203  0.5371
 9885TIP3   OH253849   0.725   6.851   7.709  0.9575 -0.2296 -0.1735
 9885TIP3    H153850   0.737   6.776   7.767  0.1576  1.3108  2.1205
 9885TIP3    H253851   0.697   6.922   7.767  1.9025  1.9242 -2.1960
 9886TIP3   OH253852   0.206   0.228   7.836  0.4264 -1.0168  0.1600
 9886TIP3    H153853   0.300   0.240   7.845  0.3404 -1.1859  1.6125
 9886TIP3    H253854   0.168   0.308   7.875 -0.0304 -1.6128  0.9779
 9887TIP3   OH253855   4.280   3.549   6.649 -0.1195 -0.2993 -0.5777
 9887TIP3    H153856   4.277   3.596   6.566 -0.2103  0.0528 -0.3749
 9887TIP3    H253857   4.300   3.616   6.715  1.2011 -0.7763 -0.4623
 9888TIP3   OH253858   0.115   5.504   5.175  0.2599  0.3788  0.3303
 9888TIP3    H153859   0.162   5.557   5.239 -0.1271 -0.4644  1.3398
 9888TIP3    H253860   0.181   5.445   5.139  0.1857 -0.1168  1.0037
 9889TIP3   OH253861   7.352   7.368   7.340 -0.6354 -0.5246  0.5581
 9889TIP3    H153862   7.303   7.373   7.258  0.9063  1.4232 -0.3373
 9889TIP3    H253863   7.440   7.397   7.316  0.6119 -2.5588  2.3721
 9890TIP3   OH253864   7.366   5.826   7.239  0.4050  0.1195 -0.5956
 9890TIP3    H153865   7.356   5.920   7.222  0.1600  0.2989  0.4650
 9890TIP3    H253866   7.352   5.817   7.334  0.4675 -0.9821 -0.6774
 9891TIP3   OH253867   0.762   4.915   5.506 -0.5521  0.2184 -0.3509
 9891TIP3    H153868   0.747   5.009   5.499  0.4956  0.4805  0.5908
 9891TIP3    H253869   0.832   4.897   5.443 -2.4691 -0.4305 -2.4187
 9892TIP3   OH253870   3.372   2.302   6.608  0.3272 -0.2725  0.4880
 9892TIP3    H153871   3.385   2.387   6.566  0.3564 -0.7406 -0.4953
 9892TIP3    H253872   3.457   2.258   6.598 -0.1330 -0.9938 -0.4145
 9893TIP3   OH253873   6.888   7.121   6.679  0.3826 -0.3479  0.2053
 9893TIP3    H153874   6.855   7.190   6.621  0.6218 -0.1910  0.2522
 9893TIP3    H253875   6.979   7.109   6.652  0.8199  0.4656  1.2289
 9894TIP3   OH253876   1.591   7.423   6.220  0.4018 -0.1908  0.2558
 9894TIP3    H153877   1.645   7.402   6.144  0.2840 -2.1639  0.6466
 9894TIP3    H253878   1.623   7.508   6.251  0.7159  0.4584 -1.7312
 9895TIP3   OH253879   4.560   2.195   6.990  0.0869  0.3484  0.3168
 9895TIP3    H153880   4.527   2.283   7.011  1.3664  0.5718  1.5649
 9895TIP3    H253881   4.502   2.164   6.921 -0.6646  2.0106  0.1342
 9896TIP3   OH253882   3.674   1.092   5.125 -0.1709  0.4454  0.3184
 9896TIP3    H153883   3.627   1.054   5.199 -0.0429 -1.2488 -0.4024
 9896TIP3    H253884   3.664   1.186   5.135 -2.2449  0.1823  1.1302
 9897TIP3   OH253885   5.950   1.516   6.897 -0.4343  0.1084  0.3102
 9897TIP3    H153886   6.032   1.532   6.945 -0.8040  1.7145  0.4849
 9897TIP3    H253887   5.884   1.505   6.965 -0.3162 -1.7103  0.1758
 9898TIP3   OH253888   6.310   5.682   6.087 -0.2871  0.1453 -0.2101
 9898TIP3    H153889   6.257   5.758   6.111 -1.7971 -0.9894  0.1978
 9898TIP3    H253890   6.285   5.614   6.149 -1.7546 -1.8263 -2.7452
 9899TIP3   OH253891   0.747   3.410   6.935 -0.1741  0.3295 -0.2983
 9899TIP3    H153892   0.788   3.496   6.932 -0.2873  0.5450  2.2036
 9899TIP3    H253893   0.661   3.425   6.974  0.2504 -1.0000  1.2760
 9900TIP3   OH253894   3.898   7.161   4.994  0.1853 -0.0244  0.0635
 9900TIP3    H153895   3.906   7.068   4.977  0.8668  0.2290 -1.0728
 9900TIP3    H253896   3.820   7.188   4.945 -0.5217 -0.1480  1.0951
 9901TIP3   OH253897   7.279   6.671   4.998 -0.8393  0.9817 -0.0886
 9901TIP3    H153898   7.255   6.642   4.910 -1.3767 -0.7074  0.5745
 9901TIP3    H253899   7.302   6.590   5.044  0.5867  1.9501  0.9983
 9902TIP3   OH253900   3.863   6.762   6.483  0.2083  0.0046 -0.2976
 9902TIP3    H153901   3.781   6.735   6.524 -0.8123  1.5975 -1.1886
 9902TIP3    H253902   3.855   6.732   6.393  1.1498 -0.8738 -0.1043
 9903TIP3   OH253903   2.717   2.564   7.018 -0.2264 -0.3997 -0.1655
 9903TIP3    H153904   2.674   2.589   6.936 -0.3676  0.8694  0.2803
 9903TIP3    H253905   2.738   2.647   7.061  1.2477 -1.0168  0.3748
 9904TIP3   OH253906   3.806   6.414   7.139 -0.6929 -0.7724  0.4247
 9904TIP3    H153907   3.806   6.500   7.096  2.9431 -0.9874 -0.2945
 9904TIP3    H253908   3.746   6.361   7.086 -0.9079  0.5857 -0.7532
 9905TIP3   OH253909   1.534   2.206   5.049 -0.3133 -0.6056 -0.2556
 9905TIP3    H153910   1.553   2.172   5.136  1.0337 -0.4509 -0.4648
 9905TIP3    H253911   1.457   2.262   5.061  2.8940  3.9009  2.0530
 9906TIP3   OH253912   6.342   6.921   5.242  0.1329 -0.3136  0.0485
 9906TIP3    H153913   6.402   6.978   5.193  1.0525  0.8901  2.4292
 9906TIP3    H253914   6.397   6.850   5.274 -0.2860 -0.6502  0.0240
 9907TIP3   OH253915   7.078   6.834   7.013 -0.1254 -0.0556 -0.5724
 9907TIP3    H153916   7.037   6.792   6.937 -0.4275 -0.8689  0.0286
 9907TIP3    H253917   7.013   6.826   7.083  0.6952 -0.5555  0.1536
 9908TIP3   OH253918   5.429   1.109   6.036 -0.0878  0.3114 -0.4587
 9908TIP3    H153919   5.497   1.160   6.080 -0.7499  0.2871  0.6364
 9908TIP3    H253920   5.357   1.106   6.099 -0.9919  0.0804 -1.4719
 9909TIP3   OH253921   0.055   4.079   6.552 -0.0370  0.5070 -0.4219
 9909TIP3    H153922  -0.009   4.118   6.611  0.7242  0.7348  0.2553
 9909TIP3    H253923   0.137   4.080   6.600  0.4104 -0.1218 -1.1459
 9910TIP3   OH253924   0.704   2.372   6.512 -0.0576  0.5115 -0.3200
 9910TIP3    H153925   0.770   2.314   6.474 -0.0932  0.1022  0.2365
 9910TIP3    H253926   0.752   2.451   6.535  0.3617  0.0252  0.5575
 9911TIP3   OH253927   0.937   3.589   5.996 -0.2536  0.3703  0.0058
 9911TIP3    H153928   0.930   3.498   5.967 -1.7954  0.6110 -0.4984
 9911TIP3    H253929   0.847   3.623   5.989  0.4435  2.1723 -0.6222
 9912TIP3   OH253930   4.297   7.386   5.245  0.2482 -0.6091 -0.7981
 9912TIP3    H153931   4.219   7.343   5.281  1.1758 -0.5418  1.3952
 9912TIP3    H253932   4.283   7.479   5.262  0.0861 -0.3994 -1.9376
 9913TIP3   OH253933   0.391   1.604   5.813  0.3015 -0.0613 -0.4326
 9913TIP3    H153934   0.467   1.558   5.779  0.0057 -0.0764 -1.0767
 9913TIP3    H253935   0.403   1.695   5.787  1.0674  0.3338  1.1544
 9914TIP3   OH253936   4.079   6.361   7.162 -0.6828 -0.7776  0.8459
 9914TIP3    H153937   4.119   6.407   7.089  1.2216 -1.7038  1.2385
 9914TIP3    H253938   3.987   6.385   7.158  0.1350  2.9693  0.9802
 9915TIP3   OH253939   1.494   6.956   7.766  0.0896 -0.2416 -0.2121
 9915TIP3    H153940   1.565   6.893   7.780 -0.2666  0.0139  4.7672
 9915TIP3    H253941   1.414   6.903   7.769 -0.1375 -0.1910 -2.9689
 9916TIP3   OH253942   2.958   7.537   6.873 -0.0590 -0.4857  0.1138
 9916TIP3    H153943   2.909   7.579   6.943 -0.6641 -1.3408  0.2136
 9916TIP3    H253944   2.938   7.589   6.795  0.2829  0.2153  0.4905
 9917TIP3   OH253945   4.919   6.836   7.214  0.0728  0.0174 -0.4933
 9917TIP3    H153946   4.866   6.835   7.293 -0.5323  1.4039 -0.8546
 9917TIP3    H253947   4.921   6.744   7.185  1.0242 -0.6748  1.5471
 9918TIP3   OH253948   4.623   0.718   5.782 -0.0832 -0.0606 -0.0010
 9918TIP3    H153949   4.630   0.623   5.792  2.1509 -0.1114 -1.4032
 9918TIP3    H253950   4.602   0.731   5.689 -1.0451  0.8398  0.3173
 9919TIP3   OH253951   3.100   2.302   5.347 -0.2609 -0.4356 -0.8491
 9919TIP3    H153952   3.030   2.358   5.381  0.8742 -0.2046  1.3015
 9919TIP3    H253953   3.054   2.231   5.302 -1.9075 -0.5610  0.8981
 9920TIP3   OH253954   7.642   6.574   5.745 -0.2891 -0.1915 -0.1100
 9920TIP3    H153955   7.592   6.503   5.704  0.8402 -0.6497 -0.7410
 9920TIP3    H253956   7.591   6.597   5.822 -3.2258  1.5874 -2.3518
 9921TIP3   OH253957   6.265   0.129   7.126  0.1270 -0.1537  0.1616
 9921TIP3    H153958   6.317   0.207   7.145  1.6569 -1.4164  1.3786
 9921TIP3    H253959   6.188   0.137   7.182 -0.2148  0.9180 -0.4280
 9922TIP3   OH253960   5.326   5.739   6.274  0.7404 -0.0201 -1.1057
 9922TIP3    H153961   5.270   5.715   6.200 -2.1600  0.2297  0.8392
 9922TIP3    H253962   5.354   5.828   6.256 -1.7063  0.8396 -0.9951
 9923TIP3   OH253963   5.007   7.549   7.164  0.2423  0.2130 -0.5024
 9923TIP3    H153964   5.093   7.561   7.204 -0.2876  2.1831  0.1802
 9923TIP3    H253965   4.946   7.552   7.238 -0.4521 -0.8675 -1.0075
 9924TIP3   OH253966   7.538   1.115   5.211  0.3618 -0.3257  0.5481
 9924TIP3    H153967   7.584   1.031   5.212 -1.5987 -1.5357 -1.5340
 9924TIP3    H253968   7.543   1.145   5.120 -2.5794 -0.3719  0.2872
 9925TIP3   OH253969   2.013   5.960   4.819 -0.8999 -0.0319  0.1638
 9925TIP3    H153970   2.026   5.958   4.914 -1.4733 -1.7726  0.2292
 9925TIP3    H253971   2.058   5.882   4.787  2.1286  2.1867 -1.4444
 9926TIP3   OH253972   0.803   7.482   6.362  0.4047  0.1755  0.1520
 9926TIP3    H153973   0.768   7.571   6.367 -0.9944 -0.2869 -0.6224
 9926TIP3    H253974   0.824   7.459   6.453 -0.3525  0.8823  0.5242
 9927TIP3   OH253975   1.087   4.790   6.705  0.1010  0.8283  0.3792
 9927TIP3    H153976   0.998   4.825   6.692  0.4296  1.4829 -0.1807
 9927TIP3    H253977   1.143   4.847   6.652  0.8071  0.1685  0.4037
 9928TIP3   OH253978   6.400   2.932   5.015 -0.0239  0.3766  0.0321
 9928TIP3    H153979   6.445   2.861   4.969  2.3863  1.7739  0.0422
 9928TIP3    H253980   6.406   2.909   5.107  0.7043  0.5271  0.0309
 9929TIP3   OH253981   5.550   6.027   5.719  0.0597  0.5168 -0.2238
 9929TIP3    H153982   5.466   6.056   5.684  0.1475 -0.3940 -1.2298
 9929TIP3    H253983   5.598   5.994   5.643  1.1723  0.6410  0.3971
 9930TIP3   OH253984   1.344   5.215   5.970  0.4477  0.2574 -0.1399
 9930TIP3    H153985   1.373   5.209   5.879 -1.5441 -0.6089 -0.7852
 9930TIP3    H253986   1.400   5.153   6.017  0.2178 -0.7745 -1.1769
 9931TIP3   OH253987   2.563   6.958   7.136  0.3056  0.0361 -0.6583
 9931TIP3    H153988   2.514   6.910   7.202  1.6297 -2.7960 -1.5548
 9931TIP3    H253989   2.507   7.032   7.113 -1.5635 -0.6535  1.3642
 9932TIP3   OH253990   0.755   4.260   6.867  1.0481  0.5160  0.2229
 9932TIP3    H153991   0.701   4.183   6.888  0.4822  0.1068 -2.3848
 9932TIP3    H253992   0.753   4.313   6.947  0.6203 -1.6629  1.7679
 9933TIP3   OH253993   7.271   3.940   7.128  0.5286 -0.1496 -0.2238
 9933TIP3    H153994   7.332   3.905   7.063 -0.1812 -0.0982 -0.9303
 9933TIP3    H253995   7.259   3.868   7.190  0.0948 -0.7072 -0.9456
 9934TIP3   OH253996   7.444   0.589   6.716 -0.0741 -0.3467  0.0552
 9934TIP3    H153997   7.479   0.590   6.627  0.7698 -0.5598  0.3765
 9934TIP3    H253998   7.514   0.626   6.770 -0.1329 -1.2499  0.7797
 9935TIP3   OH253999   1.273   4.248   5.711 -0.1757 -0.3608 -0.2613
 9935TIP3    H154000   1.203   4.251   5.777  0.2061 -1.2158  0.2021
 9935TIP3    H254001   1.249   4.315   5.647 -0.2877  0.8637  1.0141
 9936TIP3   OH254002   1.252   6.941   6.627  0.6440  0.1688  0.5379
 9936TIP3    H154003   1.300   7.005   6.573 -0.0894  0.8210  0.6487
 9936TIP3    H254004   1.304   6.934   6.707  0.4117  1.0911  0.7804
 9937TIP3   OH254005   6.323   4.605   5.067 -0.3214  0.1906 -0.0615
 9937TIP3    H154006   6.412   4.617   5.035 -0.9016 -0.9294 -2.2379
 9937TIP3    H254007   6.312   4.674   5.133  1.6871  1.1795 -0.6853
 9938TIP3   OH254008   5.538   2.700   6.233 -0.2245 -0.4006  0.5123
 9938TIP3    H154009   5.523   2.794   6.244  1.4993 -0.1412  1.0315
 9938TIP3    H254010   5.547   2.687   6.139  1.5549  0.3508  0.5412
 9939TIP3   OH254011   1.619   3.266   6.768 -0.4981 -0.2413 -0.0580
 9939TIP3    H154012   1.710   3.295   6.758 -1.1428  1.4682 -1.4049
 9939TIP3    H254013   1.614   3.186   6.715  0.4708 -1.0519  1.0027
 9940TIP3   OH254014   6.556   0.046   6.524 -0.2126 -0.0141 -0.6135
 9940TIP3    H154015   6.492   0.097   6.574 -0.1158 -1.1254  0.7118
 9940TIP3    H254016   6.552  -0.042   6.562  0.2326 -0.7929 -2.2637
 9941TIP3   OH254017   0.746   4.378   4.678  0.3598  0.4546 -0.8279
 9941TIP3    H154018   0.696   4.389   4.597  2.3362 -0.2764 -2.2278
 9941TIP3    H254019   0.682   4.345   4.741 -1.4018  1.7690 -1.8412
 9942TIP3   OH254020   6.775   3.904   4.483 -0.2068 -0.4362 -0.3887
 9942TIP3    H154021   6.804   3.874   4.397 -0.1272 -1.3097 -0.0627
 9942TIP3    H254022   6.829   3.855   4.545  0.6069  1.0674  0.1585
 9943TIP3   OH254023   0.343   3.998   4.723 -0.2531 -0.0734  0.2193
 9943TIP3    H154024   0.404   3.925   4.712 -1.4024 -0.8764 -1.1980
 9943TIP3    H254025   0.264   3.958   4.758 -1.3877  0.1988 -1.9046
 9944TIP3   OH254026   2.161   6.219   5.624 -0.2054  0.3693 -0.4836
 9944TIP3    H154027   2.196   6.168   5.697  0.8639  0.0149 -1.2150
 9944TIP3    H254028   2.069   6.232   5.646  0.2225  0.7881  1.2054
 9945TIP3   OH254029   6.875   2.998   6.623 -0.5212  0.4870 -0.2322
 9945TIP3    H154030   6.924   3.071   6.659  0.2742 -0.3155  0.3742
 9945TIP3    H254031   6.836   2.955   6.699 -1.4022  0.5735 -0.6261
 9946TIP3   OH254032   0.087   5.695   5.572  0.1754  0.1980 -0.0036
 9946TIP3    H154033   0.048   5.739   5.496  0.6809 -1.7531 -1.4618
 9946TIP3    H254034   0.018   5.636   5.604  0.6430 -0.4853 -0.2362
 9947TIP3   OH254035   6.282   2.647   6.283  0.5355 -0.5164 -0.2603
 9947TIP3    H154036   6.275   2.582   6.353  1.5611 -0.1577  0.2037
 9947TIP3    H254037   6.209   2.627   6.224  0.7576 -2.0121 -0.0724
 9948TIP3   OH254038   6.445   3.630   4.578  0.3817 -0.0234  0.0163
 9948TIP3    H154039   6.451   3.724   4.595 -0.8500  0.2332 -0.7657
 9948TIP3    H254040   6.350   3.612   4.575  0.5771 -1.0549 -0.9915
 9949TIP3   OH254041   0.084   1.837   4.826 -0.1082 -0.1659 -0.1733
 9949TIP3    H154042   0.127   1.752   4.826 -0.2797 -0.2700  0.9548
 9949TIP3    H254043   0.152   1.898   4.854  0.4311  0.3190 -2.4257
 9950TIP3   OH254044   6.774   0.404   5.289 -0.0868  0.3709 -0.5139
 9950TIP3    H154045   6.823   0.339   5.239 -0.5848 -0.6606  0.3071
 9950TIP3    H254046   6.836   0.439   5.352  0.2167  0.8020 -1.0423
 9951TIP3   OH254047   6.548   6.299   5.641 -0.0396 -0.4546  0.2742
 9951TIP3    H154048   6.466   6.347   5.655  0.5980  0.4665  0.9585
 9951TIP3    H254049   6.584   6.288   5.729  1.7584  1.3131 -0.1694
 9952TIP3   OH254050   1.498   6.446   7.694  0.0539 -0.5393  0.1849
 9952TIP3    H154051   1.448   6.524   7.671  0.4983 -0.2745  0.1118
 9952TIP3    H254052   1.584   6.479   7.720  0.2080 -0.9945  0.2600
 9953TIP3   OH254053   4.534   3.898   5.045  0.7109  0.0690  0.2066
 9953TIP3    H154054   4.627   3.908   5.068  1.0320  0.1551 -1.0987
 9953TIP3    H254055   4.495   3.983   5.063  1.1201  0.3695 -0.3354
 9954TIP3   OH254056   0.227   5.703   4.297  0.1435 -0.7529  0.0062
 9954TIP3    H154057   0.176   5.704   4.217 -0.6387 -0.7005  0.4972
 9954TIP3    H254058   0.167   5.734   4.365  1.6722  2.4724  0.0868
 9955TIP3   OH254059   1.902   6.576   5.427  0.7047  0.2787  0.9800
 9955TIP3    H154060   1.876   6.666   5.411 -1.0977 -0.5451 -1.2060
 9955TIP3    H254061   1.938   6.545   5.344 -0.9330 -1.6728  0.9063
 9956TIP3   OH254062   3.543   5.463   5.284  0.1647 -0.3926 -0.8619
 9956TIP3    H154063   3.583   5.387   5.325 -0.4265  0.0648  0.6430
 9956TIP3    H254064   3.451   5.459   5.310  0.2633  1.1984 -0.1365
 9957TIP3   OH254065   5.543   5.028   5.332 -0.1812  0.5936  0.0047
 9957TIP3    H154066   5.534   5.081   5.411  3.8123 -0.6164  1.5063
 9957TIP3    H254067   5.473   4.962   5.340  1.1763 -0.6657  3.6988
 9958TIP3   OH254068   4.852   3.363   7.154  0.8134 -0.3181 -1.0990
 9958TIP3    H154069   4.791   3.289   7.151  0.4247  0.0417 -2.1999
 9958TIP3    H254070   4.929   3.332   7.107  0.4510  0.1482 -2.0141
 9959TIP3   OH254071   4.011   0.798   4.606 -0.1448 -0.3870 -0.3230
 9959TIP3    H154072   3.965   0.862   4.659 -2.4932 -0.6069 -1.9409
 9959TIP3    H254073   4.070   0.850   4.551 -0.8608  0.2369 -0.5078
 9960TIP3   OH254074   1.748   0.659   4.621  0.0823  0.1725 -0.3785
 9960TIP3    H154075   1.681   0.592   4.631  0.2428  0.2740  1.9283
 9960TIP3    H254076   1.829   0.610   4.605  0.0880 -0.1998  0.6646
 9961TIP3   OH254077   3.701   7.120   5.808 -0.3376  0.1850 -0.0634
 9961TIP3    H154078   3.660   7.144   5.891  1.0779  1.3264  0.3364
 9961TIP3    H254079   3.780   7.072   5.833 -0.1077  0.1837 -0.7676
 9962TIP3   OH254080   6.505   4.580   6.548  0.0730  0.5293  0.1081
 9962TIP3    H154081   6.538   4.626   6.624  2.5015 -0.1793 -0.4167
 9962TIP3    H254082   6.509   4.644   6.477  1.6302  0.1360 -0.2109
 9963TIP3   OH254083   1.927   1.006   6.189 -0.3154 -0.2907  0.1450
 9963TIP3    H154084   1.945   1.076   6.252 -1.9892  2.0473 -1.7772
 9963TIP3    H254085   1.960   1.040   6.106  0.3114 -2.5535 -0.5926
 9964TIP3   OH254086   1.575   0.475   5.583 -0.5175  0.1756 -0.3304
 9964TIP3    H154087   1.665   0.449   5.600 -0.7773  0.8469  2.5025
 9964TIP3    H254088   1.526   0.393   5.580 -0.5649 -0.1203  3.6205
 9965TIP3   OH254089   4.796   7.618   5.220  0.2132  0.1276  0.1755
 9965TIP3    H154090   4.708   7.628   5.184 -0.5481  0.8797  2.1084
 9965TIP3    H254091   4.783   7.575   5.304  1.3987  2.2282  1.5465
 9966TIP3   OH254092   4.517   4.856   5.854 -0.1338 -0.2954  0.4358
 9966TIP3    H154093   4.542   4.863   5.762 -1.6534  1.5474  0.1062
 9966TIP3    H254094   4.552   4.935   5.894 -1.9764  0.3902  0.7682
 9967TIP3   OH254095   0.652   3.548   6.618 -0.5841 -0.4738  0.1409
 9967TIP3    H154096   0.570   3.567   6.572 -1.3655  2.0410  2.2479
 9967TIP3    H254097   0.692   3.634   6.632  2.1197 -1.5770 -0.2174
 9968TIP3   OH254098   2.957   4.776   6.283 -0.2041 -0.2703  0.1964
 9968TIP3    H154099   2.921   4.837   6.347 -0.3631  1.6863 -1.6418
 9968TIP3    H254100   2.891   4.772   6.214  1.0421 -0.2621 -1.0488
 9969TIP3   OH254101   3.235   6.474   5.085  0.0668  0.1889  0.1050
 9969TIP3    H154102   3.326   6.499   5.096  0.0366  0.0499  0.7173
 9969TIP3    H254103   3.206   6.451   5.173 -0.8371  1.1780  0.0978
 9970TIP3   OH254104   5.588   5.494   6.615 -0.5828  0.5901  0.3550
 9970TIP3    H154105   5.671   5.540   6.603 -1.7927  2.5234 -1.1705
 9970TIP3    H254106   5.581   5.481   6.710  0.5829  2.1247  0.6903
 9971TIP3   OH254107   0.742   3.797   6.700 -0.0887 -1.1256  0.2193
 9971TIP3    H154108   0.682   3.822   6.771  0.0087 -0.5604  0.1010
 9971TIP3    H254109   0.829   3.801   6.739  0.0153 -0.2272 -0.0954
 9972TIP3   OH254110   2.943   3.974   6.130 -0.3768  0.1482 -0.1264
 9972TIP3    H154111   3.028   3.981   6.174 -0.1274 -1.8137 -0.1959
 9972TIP3    H254112   2.890   3.921   6.189 -0.5026 -1.3079 -1.4895
 9973TIP3   OH254113   1.822   0.015   7.205  0.2147 -0.6731  0.2178
 9973TIP3    H154114   1.895  -0.013   7.261  0.1522  0.6484  0.9969
 9973TIP3    H254115   1.744  -0.018   7.250  0.2105 -0.2026  0.5721
 9974TIP3   OH254116   3.221   5.614   5.310  0.0402  0.5396  0.3424
 9974TIP3    H154117   3.243   5.582   5.223  0.0216  1.4971 -0.0251
 9974TIP3    H254118   3.248   5.543   5.369  2.5535  0.9317 -0.2024
 9975TIP3   OH254119   0.564   6.823   6.714 -0.8005  0.2075  0.4302
 9975TIP3    H154120   0.532   6.734   6.697  3.2889 -1.5851  1.0490
 9975TIP3    H254121   0.584   6.823   6.808  1.0066  1.1209  0.0732
 9976TIP3   OH254122   2.362   2.714   7.269  0.2951 -0.3659 -0.0959
 9976TIP3    H154123   2.410   2.783   7.224 -1.1889  0.6265 -0.2227
 9976TIP3    H254124   2.376   2.731   7.362  0.9237 -0.6394 -0.1338
 9977TIP3   OH254125   6.406   2.896   7.454  0.1747  0.6329 -0.3462
 9977TIP3    H154126   6.473   2.963   7.463 -0.9044  2.0584 -2.3490
 9977TIP3    H254127   6.330   2.932   7.499  0.1703 -0.1746  0.3278
 9978TIP3   OH254128   3.977   4.321   6.754 -0.6426  0.2250  0.1788
 9978TIP3    H154129   3.988   4.326   6.659  2.0505 -0.0322  0.3921
 9978TIP3    H254130   3.932   4.238   6.769  1.9092 -1.4586 -0.7904
 9979TIP3   OH254131   2.968   1.770   6.682 -0.2351  0.3955  0.2328
 9979TIP3    H154132   2.997   1.765   6.591  0.5926  1.2693  0.4366
 9979TIP3    H254133   3.048   1.782   6.733 -0.8857  2.5303  0.8440
 9980TIP3   OH254134   0.743   7.665   5.867  0.4088 -0.1282  0.3926
 9980TIP3    H154135   0.666   7.721   5.860  0.4337  0.0484  1.4701
 9980TIP3    H254136   0.816   7.721   5.843  0.2662 -0.1558 -0.1240
 9981TIP3   OH254137   6.469   0.004   4.946 -0.3129  0.5745 -0.3159
 9981TIP3    H154138   6.402   0.017   5.013 -0.2489  0.4196 -0.2225
 9981TIP3    H254139   6.551   0.026   4.990 -0.1813 -0.2983 -0.1058
 9982TIP3   OH254140   0.832   5.152   6.012 -0.0920  0.3482  0.5460
 9982TIP3    H154141   0.788   5.230   6.047  1.0491  1.1984  0.1300
 9982TIP3    H254142   0.899   5.132   6.077  0.2990  0.3441  0.1451
 9983TIP3   OH254143   3.367   0.973   4.812 -0.2470 -0.2437 -0.1074
 9983TIP3    H154144   3.371   0.929   4.898 -0.1964  0.9816  0.5323
 9983TIP3    H254145   3.456   1.007   4.800 -0.5731  0.6130 -0.0922
 9984TIP3   OH254146   0.561   2.501   6.274  0.1108  0.6783  0.3931
 9984TIP3    H154147   0.514   2.478   6.355  0.8404 -0.1117  0.6072
 9984TIP3    H254148   0.582   2.416   6.234  0.1993  1.0537 -0.3757
 9985TIP3   OH254149   6.160   5.764   5.126 -0.6012  0.7618 -0.6632
 9985TIP3    H154150   6.150   5.669   5.132  0.8790  0.6519  0.7015
 9985TIP3    H254151   6.209   5.778   5.044  0.0259  0.2628 -0.3826
 9986TIP3   OH254152   4.680   5.614   6.452 -0.1397 -0.8579 -0.1871
 9986TIP3    H154153   4.764   5.640   6.416 -0.6912  0.4647 -0.5870
 9986TIP3    H254154   4.677   5.657   6.538 -0.1126 -1.4913  0.1356
 9987TIP3   OH254155   1.450   6.617   6.991 -0.1686  0.1177 -0.5589
 9987TIP3    H154156   1.519   6.662   7.040  0.3052  0.9800 -1.9411
 9987TIP3    H254157   1.369   6.662   7.016 -0.0959 -0.2247  0.3012
 9988TIP3   OH254158   6.102   6.609   5.131  0.1103 -0.2739 -0.7908
 9988TIP3    H154159   6.136   6.557   5.204 -0.5707 -1.5559 -1.3438
 9988TIP3    H254160   6.057   6.683   5.172  0.1964 -0.6871  0.0663
 9989TIP3   OH254161   3.081   4.822   7.752 -0.1373  0.1534 -0.0379
 9989TIP3    H154162   3.018   4.831   7.680  0.1829  0.8610 -0.2361
 9989TIP3    H254163   3.160   4.787   7.710 -0.2486 -0.3130  0.1343
 9990TIP3   OH254164   6.220   4.868   6.134  0.1980  0.1078  0.1261
 9990TIP3    H154165   6.254   4.939   6.188  0.0936 -0.1880  0.5912
 9990TIP3    H254166   6.130   4.893   6.114 -0.0621 -0.2027  0.8593
 9991TIP3   OH254167   4.687   4.255   7.172  0.1896 -0.4761 -0.4200
 9991TIP3    H154168   4.680   4.227   7.080  0.9120  0.6708 -0.8480
 9991TIP3    H254169   4.773   4.295   7.178  0.6728 -1.6419  1.1025
 9992TIP3   OH254170   6.750   4.418   5.444 -0.8526 -0.2820  0.0455
 9992TIP3    H154171   6.695   4.349   5.481  0.1729  0.2014  2.6620
 9992TIP3    H254172   6.785   4.464   5.519  0.7061  1.3810 -1.5891
 9993TIP3   OH254173   1.287   2.288   5.148  0.5323  0.1347  0.3567
 9993TIP3    H154174   1.252   2.225   5.084 -0.0425 -0.2003  0.9833
 9993TIP3    H254175   1.210   2.335   5.180  0.7944  0.1984  0.9037
 9994TIP3   OH254176   3.269   3.505   5.672 -0.1341  0.1355  0.1528
 9994TIP3    H154177   3.247   3.594   5.701 -0.6522 -0.1743  0.7142
 9994TIP3    H254178   3.188   3.472   5.633 -0.2848 -0.4978  0.9696
 9995TIP3   OH254179   7.459   2.960   6.387 -0.7323  0.0899  0.1598
 9995TIP3    H154180   7.411   2.961   6.304 -0.6023  1.1817  0.0777
 9995TIP3    H254181   7.403   2.911   6.447 -0.8045 -0.7624 -0.5795
 9996TIP3   OH254182   1.912   6.255   5.704  0.5137 -0.2815  0.3152
 9996TIP3    H154183   1.876   6.333   5.661  2.2413  0.7107  0.5851
 9996TIP3    H254184   1.838   6.220   5.755 -0.4609  0.8170 -0.2891
 9997TIP3   OH254185   4.972   5.075   7.443  0.5356  0.1915 -0.2243
 9997TIP3    H154186   4.969   4.982   7.420 -0.2821  0.1190  0.1409
 9997TIP3    H254187   4.890   5.111   7.408 -0.4079  0.2257  1.8877
 9998TIP3   OH254188   5.016   5.277   5.311 -0.1567 -0.8130  0.2274
 9998TIP3    H154189   5.087   5.223   5.345 -1.1840 -2.2377  0.2411
 9998TIP3    H254190   5.037   5.290   5.219  0.9248  0.1823  0.5933
 9999TIP3   OH254191   3.896   1.723   6.028  0.6328  0.0353  0.3859
 9999TIP3    H154192   3.834   1.682   6.089 -1.1747  1.5102 -0.3710
 9999TIP3    H254193   3.885   1.817   6.042  1.2681  0.3737 -1.1492
10000TIP3   OH254194   4.251   6.732   6.058  0.1240  0.3548  0.2284
10000TIP3    H154195   4.191   6.667   6.094  2.0942 -1.2900  0.7793
10000TIP3    H254196   4.328   6.727   6.115  2.4295 -0.6407 -2.6987
10001TIP3   OH254197   6.919   1.345   6.320  0.2304  0.7712  0.1096
10001TIP3    H154198   6.941   1.271   6.264 -1.5885  0.8381 -0.7755
10001TIP3    H254199   6.973   1.417   6.286  3.1239 -0.3872  1.9133
10002TIP3   OH254200   2.165   1.071   4.805  0.6245 -0.4532  0.6840
10002TIP3    H154201   2.093   1.013   4.827  0.2877 -0.0532  0.6585
10002TIP3    H254202   2.131   1.159   4.822  0.7376 -0.1975 -0.3189
10003TIP3   OH254203   2.992   6.223   4.631 -0.2572  0.1260 -0.5204
10003TIP3    H154204   3.058   6.157   4.652  0.4992  1.2616  0.8377
10003TIP3    H254205   2.908   6.181   4.652  0.1335 -0.7497 -0.6752
10004TIP3   OH254206   6.404   1.319   6.256  0.0024 -0.1393  0.1496
10004TIP3    H154207   6.397   1.348   6.165  1.9282  0.4136  0.1188
10004TIP3    H254208   6.417   1.224   6.249  1.9018  0.1037 -0.3272
10005TIP3   OH254209   6.917   6.773   5.110  0.0922 -0.3540 -0.0157
10005TIP3    H154210   6.864   6.824   5.172 -0.5397 -0.6878 -0.2666
10005TIP3    H254211   6.999   6.757   5.156 -0.5011 -0.9088  0.8945
10006TIP3   OH254212   7.440   4.467   7.104  0.4218  0.3498 -0.2914
10006TIP3    H154213   7.384   4.513   7.166  0.5629  1.1881 -0.7663
10006TIP3    H254214   7.388   4.392   7.075  0.8593 -0.8369  1.8360
10007TIP3   OH254215   5.148   3.167   5.755 -0.1033 -0.3736  0.4596
10007TIP3    H154216   5.219   3.142   5.813  2.3328  0.4386 -1.9784
10007TIP3    H254217   5.128   3.258   5.779 -0.4897 -0.6641  1.2709
10008TIP3   OH254218   2.688   6.317   7.042  0.4289  0.4279 -0.1967
10008TIP3    H154219   2.656   6.315   6.952 -2.0907 -0.2514  0.6327
10008TIP3    H254220   2.710   6.409   7.058  0.7900  0.5737 -1.4515
10009TIP3   OH254221   1.350   1.567   6.558 -0.2592 -0.3012  0.2078
10009TIP3    H154222   1.433   1.519   6.559 -0.2173 -0.2321  1.0699
10009TIP3    H254223   1.357   1.627   6.632 -1.3980 -0.8635  0.7974
10010TIP3   OH254224   2.573   5.473   5.583 -0.1068  0.4108 -0.3510
10010TIP3    H154225   2.548   5.427   5.663 -1.1238 -2.7172 -2.2804
10010TIP3    H254226   2.656   5.516   5.605 -0.1842 -0.5613  2.2572
10011TIP3   OH254227   5.768   5.112   6.147  0.2547 -0.2911  0.2981
10011TIP3    H154228   5.798   5.044   6.206  0.0600 -0.4027  0.2704
10011TIP3    H254229   5.741   5.184   6.204  1.2775  0.1046  0.2957
10012TIP3   OH254230   2.037   5.864   5.671  0.0538  0.6511  1.0667
10012TIP3    H154231   1.997   5.914   5.600 -0.6682  0.9286  1.6636
10012TIP3    H254232   2.121   5.908   5.687  0.9195 -0.2948 -0.5926
10013TIP3   OH254233   6.088   2.762   5.196 -0.2892 -0.4639 -0.2724
10013TIP3    H154234   6.050   2.688   5.243  2.1490 -1.6047  0.0811
10013TIP3    H254235   6.095   2.732   5.105  0.3838 -0.5525 -0.1968
10014TIP3   OH254236   5.486   3.260   5.558 -0.2040  0.1202  0.1017
10014TIP3    H154237   5.523   3.348   5.544 -0.7442  0.3139 -0.1337
10014TIP3    H254238   5.503   3.241   5.650  0.5919  0.1533 -0.0265
10015TIP3   OH254239   4.782   3.468   5.611  0.0502 -0.0621  0.2492
10015TIP3    H154240   4.712   3.404   5.625 -0.5479  0.4626 -0.3208
10015TIP3    H254241   4.738   3.553   5.611  0.8641  0.3828  1.1773
10016TIP3   OH254242   5.851   1.577   7.489  0.0607 -0.5760  0.5163
10016TIP3    H154243   5.921   1.515   7.511 -0.4082 -0.9974  0.8359
10016TIP3    H254244   5.771   1.525   7.490 -0.2980 -0.0395  0.4150
10017TIP3   OH254245   0.092   0.407   4.589 -0.0121 -0.1812  0.2453
10017TIP3    H154246   0.038   0.334   4.558  1.9219 -0.9881 -1.5306
10017TIP3    H254247   0.172   0.364   4.622  0.3565  1.0485  1.0106
10018TIP3   OH254248   6.752   5.296   6.713  0.1367  0.2614  0.2230
10018TIP3    H154249   6.706   5.305   6.796  3.1383  0.0849  2.0289
10018TIP3    H254250   6.798   5.213   6.719  2.2334  1.2743 -0.5930
10019TIP3   OH254251   1.663   0.014   6.227 -0.5280  0.3091 -0.4677
10019TIP3    H154252   1.680  -0.009   6.135  1.5391  0.4729 -0.1766
10019TIP3    H254253   1.728   0.081   6.247 -1.7328  1.1449  0.7961
10020TIP3   OH254254   4.644   6.273   5.885 -0.1451  0.5494  0.6924
10020TIP3    H154255   4.684   6.239   5.805 -2.4211  0.7040 -0.5771
10020TIP3    H254256   4.551   6.283   5.864 -0.7718  0.8871  3.2712
10021TIP3   OH254257   3.354   7.627   6.266  0.3877  0.1622 -0.1222
10021TIP3    H154258   3.288   7.633   6.197  0.2209  1.6154  0.1335
10021TIP3    H254259   3.436   7.614   6.219  0.0199 -1.1058 -0.4687
10022TIP3   OH254260   3.363   6.832   6.994  0.3303 -0.1098 -0.3243
10022TIP3    H154261   3.417   6.901   7.033 -1.9406  1.9970 -0.7040
10022TIP3    H254262   3.366   6.761   7.058  0.2051  1.5609  1.6561
10023TIP3   OH254263   4.983   6.581   6.394 -0.2025  0.1028  0.0821
10023TIP3    H154264   4.957   6.589   6.303  0.9059  0.5293 -0.2199
10023TIP3    H254265   5.068   6.537   6.391 -0.8406 -1.2854  1.0195
10024TIP3   OH254266   5.167   0.978   5.576 -0.0395  0.1238  0.5218
10024TIP3    H154267   5.203   1.012   5.658  1.1587 -1.1660  0.5797
10024TIP3    H254268   5.224   0.905   5.554 -2.1773 -1.5386  0.1655
10025TIP3   OH254269   2.159   6.082   5.880  0.1294  0.3183 -0.6130
10025TIP3    H154270   2.236   6.029   5.861 -1.4306 -2.5734  0.4546
10025TIP3    H254271   2.182   6.133   5.958  1.0655 -0.2273 -0.5271
10026TIP3   OH254272   2.605   2.274   6.440  0.1954 -0.0522 -0.2192
10026TIP3    H154273   2.696   2.244   6.439 -0.3279 -1.9731  1.8138
10026TIP3    H254274   2.561   2.219   6.374  0.2340 -0.1404 -0.1721
10027TIP3   OH254275   7.190   5.037   5.112  0.1740  0.3074  0.3402
10027TIP3    H154276   7.099   5.018   5.088  0.2147  0.1091  0.3465
10027TIP3    H254277   7.207   4.981   5.188  0.4103  0.0931  0.1298
10028TIP3   OH254278   0.584   7.138   6.074 -0.0345  0.1767 -0.2646
10028TIP3    H154279   0.515   7.100   6.020  0.4870 -0.8062 -0.2773
10028TIP3    H254280   0.649   7.170   6.011  0.9275 -1.6420 -0.2726
10029TIP3   OH254281   0.232   1.161   5.834  0.1725  0.4766 -0.1865
10029TIP3    H154282   0.223   1.113   5.916 -0.8222 -1.3749 -1.3211
10029TIP3    H254283   0.143   1.166   5.799  0.2227  3.2284 -0.1341
10030TIP3   OH254284   2.895   3.460   5.907  0.5880 -0.3030  0.4581
10030TIP3    H154285   2.917   3.453   5.814 -0.2178  0.9766  0.1402
10030TIP3    H254286   2.969   3.420   5.953  1.3755 -0.2267 -0.7078
10031TIP3   OH254287   5.437   1.397   5.265 -0.0979  0.7628 -0.0582
10031TIP3    H154288   5.363   1.416   5.323  1.1725 -0.9575  2.3154
10031TIP3    H254289   5.501   1.466   5.284  0.1558  0.4316  0.3100
10032TIP3   OH254290   4.442   5.858   6.669 -0.0999 -0.8022  0.1244
10032TIP3    H154291   4.495   5.881   6.594 -0.1987  0.4748  0.4203
10032TIP3    H254292   4.353   5.851   6.634  0.3482 -4.3251 -0.6492
10033TIP3   OH254293   0.517   7.151   6.338  0.2142  0.3010  0.0369
10033TIP3    H154294   0.594   7.159   6.395 -0.4365 -1.3365  1.2301
10033TIP3    H254295   0.548   7.175   6.251  1.6085  1.4666  0.8088
10034TIP3   OH254296   0.421   1.342   5.948  0.2354  0.1242  0.2398
10034TIP3    H154297   0.472   1.387   5.881 -0.5869  0.0707 -0.4477
10034TIP3    H254298   0.364   1.283   5.898  0.5590 -0.9256  1.0588
10035TIP3   OH254299   3.016   5.879   7.393  0.2608  0.0665  0.2109
10035TIP3    H154300   2.977   5.792   7.386 -0.1781  0.1616  1.2551
10035TIP3    H254301   2.952   5.938   7.353  0.1755  0.0089  0.2629
10036TIP3   OH254302   1.959   7.095   6.488  0.4708 -0.1321 -0.6196
10036TIP3    H154303   2.033   7.037   6.474  0.1895 -0.8241  0.5653
10036TIP3    H254304   1.992   7.162   6.549  0.8806  1.1838 -2.1958
10037TIP3   OH254305   2.208   0.407   5.802 -0.2772  0.4309 -0.1157
10037TIP3    H154306   2.202   0.356   5.721 -2.8577 -0.7301  0.7054
10037TIP3    H254307   2.288   0.377   5.844  0.0985 -0.3369 -1.3360
10038TIP3   OH254308   7.249   6.488   6.759 -0.7098  0.8273  0.2198
10038TIP3    H154309   7.307   6.527   6.825  0.4638  1.2984 -1.0266
10038TIP3    H254310   7.239   6.556   6.693 -2.8854  0.8071  0.4849
10039TIP3   OH254311   4.210   6.109   5.398 -0.0789 -0.4342  0.2114
10039TIP3    H154312   4.230   6.017   5.416  1.5546 -0.0378  0.5839
10039TIP3    H254313   4.125   6.107   5.354 -0.5317 -2.0419  1.0890
10040TIP3   OH254314   7.624   4.197   4.653  0.2299  0.8096  0.1305
10040TIP3    H154315   7.544   4.156   4.685  0.3454  1.2471  0.9884
10040TIP3    H254316   7.617   4.191   4.557 -0.5752  0.3841  0.2081
10041TIP3   OH254317   3.524   4.170   6.399 -0.0351  0.1015  0.3001
10041TIP3    H154318   3.504   4.082   6.430  0.5454 -1.3014 -2.8433
10041TIP3    H254319   3.447   4.195   6.348  1.4595 -0.5685 -2.4779
10042TIP3   OH254320   6.319   6.996   5.776 -0.3084  0.0739  0.0752
10042TIP3    H154321   6.304   7.082   5.815  0.1692  0.3193 -0.2740
10042TIP3    H254322   6.413   6.990   5.764 -0.2055 -1.0043  1.2210
10043TIP3   OH254323   3.829   0.671   5.463  0.4687 -0.0441 -0.1660
10043TIP3    H154324   3.829   0.767   5.461 -1.6418  0.0962 -4.1254
10043TIP3    H254325   3.915   0.647   5.427  0.0425  0.5331 -1.6688
10044TIP3   OH254326   3.922   7.402   5.184 -0.7248  0.1950 -0.1558
10044TIP3    H154327   3.985   7.334   5.206 -0.1961  0.1880 -1.6283
10044TIP3    H254328   3.871   7.365   5.112 -0.1369  1.5039 -1.2836
10045TIP3   OH254329   6.984   4.219   5.126 -0.1496  0.2661 -0.0840
10045TIP3    H154330   6.935   4.301   5.138  0.2242  0.3796  0.6884
10045TIP3    H254331   7.042   4.214   5.201 -0.5204 -0.9708  0.1444
10046TIP3   OH254332   5.361   5.494   7.115 -0.3012 -0.0320 -0.4921
10046TIP3    H154333   5.384   5.401   7.120  1.3237  0.4040  2.6861
10046TIP3    H254334   5.445   5.540   7.116 -1.0868  1.4704 -0.0314
10047TIP3   OH254335   2.640   1.243   7.001 -0.2461 -0.5492  0.3498
10047TIP3    H154336   2.666   1.220   7.090 -0.3223 -0.5413  0.3747
10047TIP3    H254337   2.560   1.295   7.012 -0.4268 -0.8077  0.2635
10048TIP3   OH254338   6.825   4.751   4.617 -0.2192  0.2397  0.0878
10048TIP3    H154339   6.817   4.664   4.656  2.0747  0.3752  0.9884
10048TIP3    H254340   6.735   4.776   4.597 -1.2116 -1.1789  2.3580
10049TIP3   OH254341   4.379   1.511   6.551  0.2520  0.2989  0.3611
10049TIP3    H154342   4.367   1.417   6.536 -1.4591  0.3952  0.9583
10049TIP3    H254343   4.473   1.520   6.566  0.3286 -1.4717  1.2695
10050TIP3   OH254344   5.991   1.636   6.634  0.0723 -0.2563 -0.2195
10050TIP3    H154345   5.976   1.583   6.713  0.6440  0.7605  0.5972
10050TIP3    H254346   6.085   1.629   6.618  0.3748  1.4196  0.5972
10051TIP3   OH254347   2.740   3.568   5.037 -0.1535  0.1299 -0.1379
10051TIP3    H154348   2.747   3.496   5.100 -1.2038  0.0488 -0.0965
10051TIP3    H254349   2.706   3.641   5.088 -0.7135  0.1537 -0.5309
10052TIP3   OH254350   1.445   5.668   4.527 -0.3598  0.2529  0.1073
10052TIP3    H154351   1.391   5.724   4.471 -0.1295  0.6978  0.3206
10052TIP3    H254352   1.383   5.621   4.582 -0.6115 -0.4233 -0.7193
10053TIP3   OH254353   3.424   2.527   6.862 -0.3424  0.4751 -0.1749
10053TIP3    H154354   3.366   2.470   6.812 -0.2455  0.0466  0.1927
10053TIP3    H254355   3.366   2.586   6.909 -0.9144 -2.7074  3.7357
10054TIP3   OH254356   0.838   5.677   6.323  0.1466  0.2777 -0.3835
10054TIP3    H154357   0.846   5.601   6.381 -0.1863  1.2041  0.9220
10054TIP3    H254358   0.751   5.713   6.342  0.4551  1.2105 -0.6709
10055TIP3   OH254359   3.344   5.163   4.544 -0.4438  0.2822 -0.7455
10055TIP3    H154360   3.346   5.162   4.449  0.7852  0.3784 -0.7334
10055TIP3    H254361   3.419   5.109   4.571 -0.6661  0.4006  0.1605
10056TIP3   OH254362   4.274   2.059   6.539 -0.0950 -0.8550 -0.4454
10056TIP3    H154363   4.341   1.991   6.535 -0.4288 -1.3156  1.0143
10056TIP3    H254364   4.201   2.018   6.586  0.3186  0.9549  1.9952
10057TIP3   OH254365   6.715   0.696   6.013  0.3590 -0.8809 -0.3431
10057TIP3    H154366   6.682   0.639   6.082  0.7746 -0.8341 -0.1012
10057TIP3    H254367   6.796   0.733   6.049  0.3035 -0.4496 -0.6500
10058TIP3   OH254368   2.615   2.621   5.641 -0.0111  0.0614 -0.3210
10058TIP3    H154369   2.694   2.668   5.666  1.0002 -1.8139  0.1896
10058TIP3    H254370   2.639   2.576   5.559  0.2083 -2.1526  0.8831
10059TIP3   OH254371   0.942   7.409   4.967  0.0716  0.5231  0.0344
10059TIP3    H154372   0.879   7.411   5.038  0.6357  0.3219  0.5439
10059TIP3    H254373   1.025   7.386   5.008  0.4349  0.5472 -0.6623
10060TIP3   OH254374   2.963   7.319   5.859  0.4759  0.2818  0.0369
10060TIP3    H154375   2.973   7.410   5.889  0.0180  0.6931 -1.0263
10060TIP3    H254376   2.927   7.327   5.771 -0.1862 -0.9478  0.1813
10061TIP3   OH254377   6.584   5.159   4.597 -0.7309  0.1595  0.4172
10061TIP3    H154378   6.523   5.167   4.670 -0.6677 -0.7811  0.5853
10061TIP3    H254379   6.628   5.075   4.611 -1.5273 -0.6098 -1.3154
10062TIP3   OH254380   1.042   1.309   6.048 -0.0019  0.0248  0.5053
10062TIP3    H154381   0.973   1.374   6.033  0.9139  0.8600 -0.2260
10062TIP3    H254382   1.033   1.247   5.975 -0.7439 -0.5848  1.0905
10063TIP3   OH254383   5.809   7.397   5.688  0.0907 -0.2231 -0.3203
10063TIP3    H154384   5.766   7.466   5.637 -0.7912  0.7132  1.5549
10063TIP3    H254385   5.782   7.415   5.778  0.7437 -2.4078  0.3556
10064TIP3   OH254386   0.411   6.327   7.249  0.8278 -0.1512  0.2451
10064TIP3    H154387   0.445   6.240   7.228 -0.2443 -0.3017 -1.0386
10064TIP3    H254388   0.318   6.322   7.225  0.8827  1.5226 -0.4355
10065TIP3   OH254389   7.275   4.139   4.982  0.0059  0.5947 -0.4546
10065TIP3    H154390   7.302   4.209   5.041 -0.3334 -0.6936  1.3095
10065TIP3    H254391   7.179   4.141   4.984 -0.0332  1.3668 -2.0245
10066TIP3   OH254392   0.821   3.130   6.350 -0.1795 -0.6377  0.3056
10066TIP3    H154393   0.885   3.156   6.417  0.0380  0.4553 -0.3097
10066TIP3    H254394   0.788   3.046   6.381  1.1680 -0.9782  0.9088
10067TIP3   OH254395   3.331   4.534   5.735  0.0116  0.0737  0.5914
10067TIP3    H154396   3.392   4.521   5.662 -0.1354  1.3201  0.2207
10067TIP3    H254397   3.251   4.567   5.694 -0.8184 -1.2040  1.1103
10068TIP3   OH254398   0.795   0.407   7.272 -0.8690  0.5259  0.6821
10068TIP3    H154399   0.868   0.384   7.214 -0.2219 -0.6459  1.8926
10068TIP3    H254400   0.757   0.486   7.234  0.2256  0.4204 -0.6934
10069TIP3   OH254401   1.211   6.010   5.813  0.3976 -0.5241  0.7958
10069TIP3    H154402   1.276   6.062   5.764  0.2675 -1.3485 -0.2950
10069TIP3    H254403   1.197   6.060   5.893  0.4262  1.0344 -0.1169
10070TIP3   OH254404   0.610   6.459   6.145  0.5276 -0.1306  0.0911
10070TIP3    H154405   0.549   6.533   6.147  0.2514 -0.3638  0.4202
10070TIP3    H254406   0.664   6.471   6.224  0.3638 -0.3759  0.2428
10071TIP3   OH254407   4.606   1.834   7.228  0.4113 -0.3200  0.3149
10071TIP3    H154408   4.524   1.795   7.261 -0.7396  1.9498  0.3673
10071TIP3    H254409   4.675   1.782   7.268 -0.9876 -2.3134  0.3005
10072TIP3   OH254410   1.689   7.560   4.862 -1.1017  0.5488  0.4550
10072TIP3    H154411   1.619   7.594   4.805 -0.3811  0.4808 -0.4981
10072TIP3    H254412   1.665   7.469   4.878  0.4966 -0.6224 -2.8248
10073TIP3   OH254413   1.038   0.387   5.840  0.0524 -0.5706 -0.2198
10073TIP3    H154414   1.034   0.385   5.936  0.5959  0.0997 -0.1791
10073TIP3    H254415   1.110   0.327   5.818 -1.1318 -2.0359 -0.3098
10074TIP3   OH254416   1.761   4.462   4.986 -0.3039 -0.1923  0.0658
10074TIP3    H154417   1.709   4.537   4.957 -0.1610  0.0403  0.4107
10074TIP3    H254418   1.700   4.410   5.038 -0.4553 -0.4145 -0.3308
10075TIP3   OH254419   3.183   7.345   5.639  0.0783  0.3265 -0.5302
10075TIP3    H154420   3.117   7.281   5.611  0.2276 -0.4528  0.8309
10075TIP3    H254421   3.237   7.359   5.561 -0.2106 -0.8897 -0.9706
10076TIP3   OH254422   2.605   2.620   6.770  0.3498  0.0201  0.1592
10076TIP3    H154423   2.658   2.660   6.701 -3.1520  3.8820 -0.6973
10076TIP3    H254424   2.535   2.574   6.723  0.0824 -0.6471  1.1792
10077TIP3   OH254425   6.512   4.669   5.635  0.3574 -0.0301  0.0001
10077TIP3    H154426   6.535   4.760   5.651  1.8880 -0.2161 -0.8842
10077TIP3    H254427   6.510   4.661   5.540  2.6480 -1.3960 -0.0174
10078TIP3   OH254428   5.111   5.638   5.307  0.5264  0.1172  0.0599
10078TIP3    H154429   5.123   5.731   5.288  1.1608 -0.1382 -0.9004
10078TIP3    H254430   5.187   5.614   5.360  1.4879 -0.2968 -1.4505
10079TIP3   OH254431   2.428   5.606   4.652 -0.3788 -0.1905 -0.3080
10079TIP3    H154432   2.371   5.678   4.681  0.6332  0.7277 -0.5288
10079TIP3    H254433   2.493   5.648   4.597  0.2163 -1.3006 -0.4757
10080TIP3   OH254434   1.886   3.225   6.101 -0.1169  0.4417  0.0965
10080TIP3    H154435   1.895   3.195   6.191 -1.1854  2.1653  0.8242
10080TIP3    H254436   1.793   3.244   6.091  0.1779  1.4583 -0.9707
10081TIP3   OH254437   1.432   1.457   6.269  0.0698 -0.0092  0.0017
10081TIP3    H154438   1.461   1.441   6.359  1.3304 -0.2076 -0.4295
10081TIP3    H254439   1.342   1.424   6.267  0.5299 -1.3851  0.7975
10082TIP3   OH254440   1.516   7.127   5.865  0.3359  0.3911  0.4334
10082TIP3    H154441   1.552   7.041   5.844 -1.6668 -0.3595 -0.0918
10082TIP3    H254442   1.533   7.138   5.958 -2.3894 -2.1706  1.3840
10083TIP3   OH254443   0.697   0.456   7.980  0.9436  0.7465  0.0718
10083TIP3    H154444   0.758   0.496   8.042  1.3725 -0.9192  0.7914
10083TIP3    H254445   0.747   0.385   7.940 -0.3129 -0.2899  0.2509
10084TIP3   OH254446   3.788   0.783   6.366  0.1825  0.1907 -0.6233
10084TIP3    H154447   3.754   0.853   6.311  0.0024  2.6999  2.4518
10084TIP3    H254448   3.710   0.736   6.396  0.1185  0.2976 -0.6237
10085TIP3   OH254449   0.070   3.275   6.675 -0.0372 -0.0348 -0.4522
10085TIP3    H154450   0.106   3.248   6.760  2.8193 -0.9942 -1.8373
10085TIP3    H254451  -0.007   3.219   6.664 -0.0519 -0.4034  1.1805
10086TIP3   OH254452   4.801   6.381   5.018  0.0060  0.3585 -0.0316
10086TIP3    H154453   4.834   6.292   5.034 -1.1662  0.0436  0.7312
10086TIP3    H254454   4.858   6.437   5.071  0.0366 -0.0583  0.3839
10087TIP3   OH254455   3.669   0.041   5.721  0.0729  0.2874  0.1544
10087TIP3    H154456   3.715   0.006   5.645 -1.4963 -0.2425 -0.5925
10087TIP3    H254457   3.632   0.124   5.692 -1.8460 -0.6344 -0.2125
10088TIP3   OH254458   3.700   6.083   7.266  0.3635 -0.2457  0.0105
10088TIP3    H154459   3.612   6.051   7.282  1.4155 -2.7416  1.3260
10088TIP3    H254460   3.751   6.005   7.246  2.1850  1.1947 -1.2910
10089TIP3   OH254461   2.260   0.587   7.616  0.1711 -0.5064 -0.7724
10089TIP3    H154462   2.194   0.575   7.683  0.9536  0.0008  0.1147
10089TIP3    H254463   2.260   0.504   7.567 -0.4672 -0.8469 -0.2069
10090TIP3   OH254464   4.799   2.599   5.955 -0.2677 -0.2948 -0.0402
10090TIP3    H154465   4.886   2.596   5.995 -2.2155 -1.9993  4.8280
10090TIP3    H254466   4.789   2.514   5.913  0.1205 -0.4232  0.1204
10091TIP3   OH254467   1.581   2.803   6.261  0.2917  0.1083  0.8332
10091TIP3    H154468   1.674   2.827   6.261  0.4616 -0.4018 -0.8095
10091TIP3    H254469   1.581   2.710   6.283  0.2501 -0.0827  0.0483
10092TIP3   OH254470   5.681   0.941   6.227 -0.5225 -0.5486 -0.8643
10092TIP3    H154471   5.774   0.922   6.227 -0.0916  1.4443 -0.2912
10092TIP3    H254472   5.673   1.024   6.182 -1.3387  2.1356  3.6352
10093TIP3   OH254473   0.302   3.298   6.166  0.4098  0.5026  0.4660
10093TIP3    H154474   0.333   3.346   6.089  1.1095  0.3479  0.6449
10093TIP3    H254475   0.206   3.308   6.164  0.3773 -0.0316 -0.7590
10094TIP3   OH254476   2.663   1.674   5.545  0.0210 -0.4881  0.1477
10094TIP3    H154477   2.578   1.632   5.557  0.4373 -1.1126  1.0549
10094TIP3    H254478   2.724   1.602   5.532  0.4545 -0.0624 -0.2002
10095TIP3   OH254479   7.539   3.133   5.216 -0.0954  0.1328  0.7110
10095TIP3    H154480   7.555   3.223   5.186  0.2742 -0.5808 -1.3507
10095TIP3    H254481   7.549   3.079   5.138  0.9789 -1.8743  2.1509
10096TIP3   OH254482   1.207   1.108   6.873  0.0942  0.1313 -0.5267
10096TIP3    H154483   1.133   1.050   6.857  0.4442  0.0275 -1.8605
10096TIP3    H254484   1.233   1.089   6.963 -0.9981 -0.3924 -0.3103
10097TIP3   OH254485   6.991   4.781   5.093  0.2286  0.2468 -0.0656
10097TIP3    H154486   6.956   4.859   5.050 -1.2953 -0.4799 -0.2069
10097TIP3    H254487   7.049   4.741   5.028  1.0265  1.2336  0.0084
10098TIP3   OH254488   6.660   0.295   6.712 -0.3572  0.1525 -0.0885
10098TIP3    H154489   6.668   0.230   6.642 -1.7609  0.3713 -0.5055
10098TIP3    H254490   6.750   0.317   6.736  0.1465 -0.6796 -1.1275
10099TIP3   OH254491   5.609   0.898   6.479  0.0751  0.1981 -0.0552
10099TIP3    H154492   5.632   0.914   6.387 -0.6499 -0.8247 -0.4337
10099TIP3    H254493   5.690   0.865   6.518  0.1480 -0.2380 -0.5609
10100TIP3   OH254494   7.387   5.014   6.319  0.1313 -0.0229  0.3119
10100TIP3    H154495   7.304   4.965   6.318  0.2677 -0.2553 -0.4377
10100TIP3    H254496   7.365   5.096   6.363  0.5572 -1.8247  4.2216
10101TIP3   OH254497   7.403   2.993   5.807 -0.2089  0.1949 -0.8437
10101TIP3    H154498   7.462   2.949   5.746  0.5709  0.8060 -0.5369
10101TIP3    H254499   7.330   3.022   5.752  0.6876  1.1198 -1.5826
10102TIP3   OH254500   3.353   5.131   6.777 -0.0080 -0.3746  0.0965
10102TIP3    H154501   3.297   5.055   6.793 -1.1750  0.6311  0.9785
10102TIP3    H254502   3.376   5.163   6.864  1.0111 -0.0826 -0.2609
10103TIP3   OH254503   3.560   3.388   5.679 -0.3455 -0.9286  0.1192
10103TIP3    H154504   3.562   3.320   5.746 -2.6216  1.2348  2.6316
10103TIP3    H254505   3.469   3.420   5.680 -0.4785 -0.5950 -3.9496
10104TIP3   OH254506   3.054   1.429   6.506  0.4540  0.4543 -0.6399
10104TIP3    H154507   3.031   1.516   6.472 -1.9029 -0.0998 -0.6255
10104TIP3    H254508   3.059   1.374   6.428  0.8490  0.3721 -0.5572
10105TIP3   OH254509   2.150   6.489   5.913  0.1195 -0.0072 -0.4482
10105TIP3    H154510   2.091   6.495   5.838 -0.6505  0.1635  0.1570
10105TIP3    H254511   2.108   6.426   5.972  1.0075 -0.5807 -0.4095
10106TIP3   OH254512   2.418   3.848   5.058 -0.3082  0.1119  0.4251
10106TIP3    H154513   2.501   3.889   5.082  0.0300 -1.4955  2.2548
10106TIP3    H254514   2.360   3.864   5.133 -1.0259 -0.4399  0.0031
10107TIP3   OH254515   0.469   3.688   5.137 -0.2717  0.2446 -0.5038
10107TIP3    H154516   0.394   3.632   5.156 -1.0026  1.2932 -0.2264
10107TIP3    H254517   0.532   3.668   5.207  0.1981 -1.4291 -1.3432
10108TIP3   OH254518   5.864   5.609   4.590 -0.2326 -0.3497 -0.2440
10108TIP3    H154519   5.779   5.643   4.562 -0.8426 -2.7012 -1.5662
10108TIP3    H254520   5.849   5.578   4.680  0.2097  2.1961  0.7925
10109TIP3   OH254521   2.756   2.438   6.006  0.6220  0.4823 -0.0171
10109TIP3    H154522   2.698   2.363   5.990 -0.0979  0.5747  1.8784
10109TIP3    H254523   2.700   2.514   5.991  0.5211  0.5865  0.8539
10110TIP3   OH254524   2.478   3.932   6.170 -0.0339  0.1766 -0.0037
10110TIP3    H154525   2.385   3.920   6.185  0.1375 -1.7633 -0.2706
10110TIP3    H254526   2.485   4.018   6.128 -1.7364  0.1146 -0.4717
10111TIP3   OH254527   7.020   7.047   6.133 -0.0141  0.1587  0.6431
10111TIP3    H154528   7.007   6.954   6.117 -0.7578  0.6322 -1.9127
10111TIP3    H254529   6.958   7.091   6.074  2.0131  2.2939 -0.0538
10112TIP3   OH254530   5.197   1.151   6.288 -0.2826  0.3097  0.1335
10112TIP3    H154531   5.212   1.238   6.251  0.8344  0.0731  0.0053
10112TIP3    H254532   5.244   1.152   6.371 -0.4145 -0.1152  0.2132
10113TIP3   OH254533   1.366   4.582   5.943  0.0603  0.4324 -0.1141
10113TIP3    H154534   1.360   4.562   5.850 -0.3305 -3.3935  0.5609
10113TIP3    H254535   1.277   4.570   5.976  0.2676  1.3486  0.8313
10114TIP3   OH254536   4.268   5.518   7.096 -0.5071 -0.3414  0.2148
10114TIP3    H154537   4.202   5.499   7.029  0.9965 -1.8144 -0.9081
10114TIP3    H254538   4.271   5.614   7.100 -3.1000 -0.2021  0.7440
10115TIP3   OH254539   1.342   4.902   6.100  0.0174 -0.3862  0.4563
10115TIP3    H154540   1.321   4.931   6.011  0.6168 -0.4260  0.2941
10115TIP3    H254541   1.413   4.960   6.128  0.3127 -0.8288  0.6399
10116TIP3   OH254542   1.567   2.622   7.298  0.0374 -0.2037 -0.1403
10116TIP3    H154543   1.653   2.663   7.290  0.0161 -0.1486 -0.0911
10116TIP3    H254544   1.577   2.559   7.369 -0.1809  0.3844  0.4322
10117TIP3   OH254545   5.974   0.891   6.348 -0.2809  0.3533 -0.1627
10117TIP3    H154546   5.991   0.797   6.348 -1.6074  0.0797  0.5655
10117TIP3    H254547   6.010   0.923   6.265 -0.7163 -0.9709 -0.8809
10118TIP3   OH254548   7.572   1.660   5.068  0.6803  0.4281 -0.8365
10118TIP3    H154549   7.647   1.603   5.085 -0.6464 -1.5607 -1.2927
10118TIP3    H254550   7.500   1.620   5.117  0.3852  3.7086  1.6972
10119TIP3   OH254551   4.937   0.159   5.066  0.4466  0.1463  0.8362
10119TIP3    H154552   4.893   0.074   5.062 -0.7371  0.7904 -0.7682
10119TIP3    H254553   5.004   0.148   5.133  3.5770 -3.5875 -2.4004
10120TIP3   OH254554   1.380   6.253   5.695 -0.5489 -0.7893 -0.3559
10120TIP3    H154555   1.416   6.233   5.609 -1.2399 -0.8008 -0.6493
10120TIP3    H254556   1.322   6.327   5.680 -1.0050 -1.0632  0.0187
10121TIP3   OH254557   3.000   2.943   5.943  0.1607  0.4684 -0.4717
10121TIP3    H154558   3.054   2.878   5.898 -0.7965  0.8387 -2.2550
10121TIP3    H254559   2.924   2.894   5.973  0.9969  0.1319  1.2326
10122TIP3   OH254560   6.562   0.454   7.618 -0.2255 -0.3043  0.1727
10122TIP3    H154561   6.541   0.401   7.695  2.1684 -1.2682  0.2569
10122TIP3    H254562   6.590   0.538   7.654  0.8794 -0.7489  0.3999
10123TIP3   OH254563   4.333   6.514   5.788 -0.2123 -0.6866  0.7020
10123TIP3    H154564   4.348   6.436   5.734  0.4902 -0.2423  0.2475
10123TIP3    H254565   4.331   6.480   5.877 -1.8370 -1.4998  0.4051
10124TIP3   OH254566   6.225   3.546   5.277  0.0299 -0.1746  0.8244
10124TIP3    H154567   6.133   3.519   5.274 -0.4101  1.2256  0.7154
10124TIP3    H254568   6.267   3.495   5.209 -0.5789 -1.1434  1.1589
10125TIP3   OH254569   6.537   3.057   6.615 -0.5300 -0.0005  0.0871
10125TIP3    H154570   6.456   3.022   6.577 -2.1753  1.7201  1.8214
10125TIP3    H254571   6.554   3.138   6.566 -1.1669  0.8283  1.2085
10126TIP3   OH254572   0.530   0.863   5.817 -0.0770 -0.1143  0.1447
10126TIP3    H154573   0.555   0.847   5.908  1.9144  1.1406 -0.1330
10126TIP3    H254574   0.580   0.799   5.767  0.2600  0.4118 -0.2007
10127TIP3   OH254575   1.525   1.012   5.398  0.3321 -0.0731 -0.8339
10127TIP3    H154576   1.565   1.099   5.393 -1.1650  0.7430  0.4893
10127TIP3    H254577   1.433   1.029   5.417  0.2388 -1.9608  0.7540
10128TIP3   OH254578   6.556   5.368   5.699 -0.4555 -0.0245 -0.2666
10128TIP3    H154579   6.520   5.402   5.781  0.5672  2.3283 -0.7340
10128TIP3    H254580   6.498   5.404   5.631 -1.0801 -1.6623 -0.6565
10129TIP3   OH254581   0.475   3.606   6.330  0.0007 -0.7749 -0.1958
10129TIP3    H154582   0.566   3.635   6.320 -0.2070  0.8309  1.8114
10129TIP3    H254583   0.424   3.687   6.323 -1.4857 -1.8193 -2.7337
10130TIP3   OH254584   5.863   3.250   5.711  0.6291 -0.7822 -0.3614
10130TIP3    H154585   5.913   3.282   5.636  0.9921 -0.2558  0.1012
10130TIP3    H254586   5.862   3.323   5.773 -2.6145  0.0871 -1.2398
10131TIP3   OH254587   5.898   1.633   6.354  0.3821 -0.9659 -0.6151
10131TIP3    H154588   5.958   1.690   6.307 -1.1315  2.1300  0.9073
10131TIP3    H254589   5.920   1.645   6.446 -3.1636  1.3500  0.1452
10132TIP3   OH254590   2.250   6.905   4.780  0.3917 -0.1516  0.1461
10132TIP3    H154591   2.184   6.975   4.778 -0.4530 -0.9404 -0.6147
10132TIP3    H254592   2.212   6.835   4.726  1.5881 -0.8680  0.2066
10133TIP3   OH254593   6.390   0.468   6.865 -0.0439  0.3448  0.0053
10133TIP3    H154594   6.324   0.464   6.795  0.0909 -2.2363 -0.0703
10133TIP3    H254595   6.432   0.382   6.863  2.8092  1.6117  0.6057
10134TIP3   OH254596   3.366   1.586   6.515  0.3115 -0.6384  0.3778
10134TIP3    H154597   3.387   1.516   6.452  2.0365 -0.4380  0.6849
10134TIP3    H254598   3.324   1.540   6.588 -0.8789 -0.9918 -0.4830
10135TIP3   OH254599   5.292   7.635   6.028 -0.4873  0.2281  0.1384
10135TIP3    H154600   5.378   7.593   6.026 -0.8804 -0.6157  0.4409
10135TIP3    H254601   5.284   7.668   6.118 -0.4315  0.4154  0.0752
10136TIP3   OH254602   3.534   7.489   6.556 -0.1374 -0.0901 -0.2662
10136TIP3    H154603   3.556   7.486   6.649  0.3282 -0.0283 -0.3741
10136TIP3    H254604   3.535   7.397   6.528  0.6049 -0.0441 -0.4125
10137TIP3   OH254605   3.317   7.494   5.038 -0.3684 -0.3078 -0.5967
10137TIP3    H154606   3.261   7.432   5.086  1.2946 -1.7817 -0.4611
10137TIP3    H254607   3.336   7.563   5.102 -1.5636 -0.0602 -0.4832
10138TIP3   OH254608   6.214   2.666   7.127  0.2814 -0.3533 -0.5836
10138TIP3    H154609   6.143   2.706   7.078 -0.4499 -1.4583 -0.4734
10138TIP3    H254610   6.184   2.577   7.145  2.0685 -1.1702 -1.3216
10139TIP3   OH254611   0.644   2.896   5.587 -0.4095 -0.2993  0.4465
10139TIP3    H154612   0.572   2.889   5.650 -0.6728 -0.8871  0.0866
10139TIP3    H254613   0.625   2.976   5.538 -1.5680 -1.1399 -0.5504
10140TIP3   OH254614   0.170   4.728   6.934 -0.4587 -0.1040  0.7191
10140TIP3    H154615   0.257   4.688   6.938 -0.6633 -0.4518  2.1494
10140TIP3    H254616   0.188   4.821   6.921  0.1051 -0.2662  0.2716
10141TIP3   OH254617   4.217   7.036   5.076  0.2256  0.2555 -0.0791
10141TIP3    H154618   4.197   6.944   5.091  0.4970  0.3287  0.7474
10141TIP3    H254619   4.312   7.043   5.086  0.0005  0.9863  1.9319
10142TIP3   OH254620   4.848   1.765   5.982  0.0470  0.2542 -0.1934
10142TIP3    H154621   4.925   1.711   5.966  0.6237 -0.1478  3.1084
10142TIP3    H254622   4.795   1.713   6.042 -0.6327  2.2474  1.0309
10143TIP3   OH254623   0.721   4.758   5.737  0.3367 -0.3591 -0.1061
10143TIP3    H154624   0.729   4.845   5.697  2.1731 -2.1097 -4.1232
10143TIP3    H254625   0.812   4.731   5.754 -0.0716 -2.0669 -0.4600
10144TIP3   OH254626   6.604   6.317   6.824 -0.1479  0.0137 -0.4524
10144TIP3    H154627   6.576   6.253   6.889 -1.4409  1.9742  1.0189
10144TIP3    H254628   6.697   6.296   6.810  0.2331 -0.4151  2.1257
10145TIP3   OH254629   7.577   1.847   5.374 -0.4026  0.2368 -0.1652
10145TIP3    H154630   7.546   1.921   5.426 -0.2142  0.9173 -0.9994
10145TIP3    H254631   7.618   1.887   5.297  1.0010 -0.6907  0.0690
10146TIP3   OH254632   7.608   1.799   6.225  0.0191 -0.1124  0.3121
10146TIP3    H154633   7.629   1.718   6.179  0.8885  0.3371 -0.1115
10146TIP3    H254634   7.567   1.771   6.306 -0.0361 -0.9658 -0.0030
10147TIP3   OH254635   3.731   4.716   5.183  0.3511 -0.3501  0.5651
10147TIP3    H154636   3.635   4.723   5.190  0.2402 -2.0867  1.3369
10147TIP3    H254637   3.762   4.725   5.273  0.7163 -1.8339  0.6106
10148TIP3   OH254638   7.038   2.616   6.026  0.3349 -0.1788  0.1229
10148TIP3    H154639   6.954   2.651   5.995  0.2083 -0.3086  0.3139
10148TIP3    H254640   7.059   2.546   5.964  1.1321  0.9244 -0.9137
10149TIP3   OH254641   3.679   6.985   4.779 -0.3160 -0.2955  0.2415
10149TIP3    H154642   3.702   6.896   4.755 -1.1143 -0.3143 -0.4829
10149TIP3    H254643   3.583   6.985   4.785 -0.3904  0.7086 -0.6081
10150TIP3   OH254644   7.280   2.066   6.014  0.6287 -0.0417  0.4348
10150TIP3    H154645   7.320   2.152   6.029  0.2849  0.4518 -1.2571
10150TIP3    H254646   7.211   2.060   6.080  1.2753  0.5540  1.1940
10151TIP3   OH254647   4.781   4.862   7.057  0.2498  0.5467  0.1957
10151TIP3    H154648   4.787   4.776   7.098  2.0115 -0.3135 -1.6597
10151TIP3    H254649   4.695   4.895   7.081 -1.1403 -2.4145 -0.2969
10152TIP3   OH254650   6.592   3.198   5.316  0.2037 -0.3238 -0.1593
10152TIP3    H154651   6.603   3.200   5.411  0.9349  0.3347 -0.2506
10152TIP3    H254652   6.497   3.205   5.303  0.1014 -0.3535  0.5175
10153TIP3   OH254653   2.431   1.756   5.917 -0.4901 -0.0215 -0.1002
10153TIP3    H154654   2.514   1.712   5.896 -0.3892  0.3878 -0.5948
10153TIP3    H254655   2.374   1.736   5.843 -0.6034  0.2654 -0.0936
10154TIP3   OH254656   4.546   0.811   5.099  0.3657 -0.2282  0.1710
10154TIP3    H154657   4.526   0.843   5.011  0.5874 -1.5458 -0.3883
10154TIP3    H254658   4.466   0.825   5.149 -0.4809 -1.3567 -0.8208
10155TIP3   OH254659   6.187   1.246   7.718 -0.3696  0.2415 -0.4372
10155TIP3    H154660   6.282   1.236   7.713  0.0806  3.2257  0.3277
10155TIP3    H254661   6.160   1.184   7.786  1.0849 -0.2784 -0.3014
10156TIP3   OH254662   7.604   6.923   7.677  0.0398 -0.4133  0.3488
10156TIP3    H154663   7.622   7.016   7.659  2.0246 -1.2121 -2.5661
10156TIP3    H254664   7.691   6.885   7.692 -0.6627 -1.9612  0.6500
10157TIP3   OH254665   1.376   7.231   7.797  0.1563 -0.3048 -0.0949
10157TIP3    H154666   1.403   7.141   7.781  0.5511  0.1290 -2.1399
10157TIP3    H254667   1.280   7.229   7.786  0.3369 -0.1656 -2.1749
10158TIP3   OH254668   7.147   3.612   6.681  0.5999 -0.9013 -0.2440
10158TIP3    H154669   7.132   3.677   6.613  1.0122 -1.8339 -1.2681
10158TIP3    H254670   7.065   3.609   6.730  0.0849 -0.6208 -1.0708
10159TIP3   OH254671   6.430   6.804   6.644  0.4629  0.0237 -0.5725
10159TIP3    H154672   6.459   6.726   6.597 -0.4778 -0.8574  0.2407
10159TIP3    H254673   6.450   6.877   6.585  0.2881 -0.9360 -1.8664
10160TIP3   OH254674   6.671   3.364   6.198  0.5608 -0.0529  0.0299
10160TIP3    H154675   6.697   3.318   6.278  0.0711  0.3761  0.4381
10160TIP3    H254676   6.754   3.388   6.157  0.8262 -1.1889 -0.1340
10161TIP3   OH254677   3.516   0.964   5.338 -0.5426  0.0134  0.1785
10161TIP3    H154678   3.440   0.911   5.361 -0.1834 -0.7558 -0.3779
10161TIP3    H254679   3.591   0.910   5.362 -0.1367 -0.7511 -2.5294
10162TIP3   OH254680   1.597   4.269   5.108  0.0369  0.0351 -0.0112
10162TIP3    H154681   1.509   4.306   5.107 -0.3819 -0.9228 -0.3406
10162TIP3    H254682   1.604   4.227   5.194  0.8959  1.7367  0.7802
10163TIP3   OH254683   3.125   7.072   5.041  0.1485  0.0564  0.4766
10163TIP3    H154684   3.036   7.106   5.032 -0.0958 -0.7602 -0.4682
10163TIP3    H254685   3.174   7.141   5.085 -0.3204  1.6159 -1.3058
10164TIP3   OH254686   7.387   3.770   6.097 -0.3154  0.2258 -0.2067
10164TIP3    H154687   7.312   3.719   6.068 -1.6814  0.8938  1.9116
10164TIP3    H254688   7.463   3.726   6.058 -1.5585 -2.3313  0.0376
10165TIP3   OH254689   6.611   3.228   5.578 -0.5238  0.1908 -0.4733
10165TIP3    H154690   6.706   3.241   5.570 -0.6620  2.0045  0.3175
10165TIP3    H254691   6.601   3.137   5.606  1.1908  0.7509  2.3471
10166TIP3   OH254692   3.336   4.261   5.480 -0.4588  0.1709  0.2587
10166TIP3    H154693   3.385   4.333   5.518 -0.0648 -0.1195  0.3108
10166TIP3    H254694   3.271   4.303   5.424  0.0480  0.5600 -0.0549
10167TIP3   OH254695   2.228   4.974   5.148  0.1884  0.2120  0.0966
10167TIP3    H154696   2.203   5.039   5.214 -1.1248  0.9505 -1.0757
10167TIP3    H254697   2.165   4.903   5.160 -0.3212  0.5309 -0.5947
10168TIP3   OH254698   1.719   0.761   4.869 -0.0687 -0.0067 -0.4891
10168TIP3    H154699   1.683   0.684   4.914 -1.6273  0.5531 -0.7120
10168TIP3    H254700   1.721   0.735   4.777 -0.6404  0.2173 -0.5706
10169TIP3   OH254701   1.659   0.910   6.985 -0.2721  0.1811 -0.1324
10169TIP3    H154702   1.651   0.818   7.011  3.3413  0.6402  3.6118
10169TIP3    H254703   1.623   0.960   7.058  2.8080  1.6077  0.5962
10170TIP3   OH254704   5.633   3.590   6.046  0.5735  0.1427  0.1856
10170TIP3    H154705   5.696   3.542   5.992 -0.1234  0.4134 -0.9093
10170TIP3    H254706   5.671   3.589   6.134  1.0086 -1.6430  0.0284
10171TIP3   OH254707   1.378   1.155   6.653  0.1449  0.5383  0.0425
10171TIP3    H154708   1.320   1.168   6.578  0.3833  1.9625  0.0665
10171TIP3    H254709   1.319   1.155   6.729 -0.0535 -0.4618 -0.1087
10172TIP3   OH254710   0.116   3.958   5.394  0.4391 -0.1922 -0.3287
10172TIP3    H154711   0.164   3.932   5.473  1.3452 -1.2283 -1.1956
10172TIP3    H254712   0.173   3.932   5.322 -0.1258  1.2400 -1.3298
10173TIP3   OH254713   3.054   0.404   7.032 -0.1108 -0.1357 -0.0132
10173TIP3    H154714   3.027   0.457   7.106 -1.2384  0.4594 -0.8256
10173TIP3    H254715   3.079   0.467   6.964  0.4344 -0.6642 -0.3179
10174TIP3   OH254716   7.002   5.052   6.069  0.2420 -0.1874  0.0360
10174TIP3    H154717   6.945   4.984   6.104 -0.1978  0.1612  0.0171
10174TIP3    H254718   6.944   5.106   6.015  0.4904  0.4382  0.3798
10175TIP3   OH254719   2.126   5.433   5.443  0.2446  0.5554  0.4773
10175TIP3    H154720   2.198   5.494   5.430 -0.5702  1.6836  1.1128
10175TIP3    H254721   2.159   5.369   5.506  0.5452  1.3243  1.1142
10176TIP3   OH254722   5.511   6.810   6.551 -0.1031  0.8589 -0.0297
10176TIP3    H154723   5.427   6.802   6.596 -0.3589  1.7147 -0.3273
10176TIP3    H254724   5.573   6.836   6.618 -0.2169  0.8842  0.0650
10177TIP3   OH254725   5.051   4.525   5.956  0.1533  0.1271 -0.4806
10177TIP3    H154726   4.978   4.513   5.896 -0.0476  1.0053 -0.4262
10177TIP3    H254727   5.037   4.612   5.994  1.2856  0.3647 -0.5623
10178TIP3   OH254728   3.275   7.228   5.969 -0.1857 -0.4679  0.1082
10178TIP3    H154729   3.235   7.314   5.959 -0.0014 -0.3212  0.5799
10178TIP3    H254730   3.201   7.169   5.983 -0.3510 -0.4826 -0.8067
10179TIP3   OH254731   1.593   7.559   7.313  0.0076 -0.6500  0.1920
10179TIP3    H154732   1.510   7.591   7.350  0.3315 -0.3267  0.6392
10179TIP3    H254733   1.636   7.514   7.386  1.0496  0.7408  0.4766
10180TIP3   OH254734   4.781   1.942   6.756 -0.2239  0.1619  0.0639
10180TIP3    H154735   4.829   1.859   6.757  0.7739  0.7084 -0.3330
10180TIP3    H254736   4.744   1.950   6.843 -1.8751 -1.5457 -0.4038
10181TIP3   OH254737   7.624   2.979   4.964  0.2663 -0.0625  0.1539
10181TIP3    H154738   7.588   3.010   4.881 -0.1885 -0.6980  0.1106
10181TIP3    H254739   7.708   3.024   4.972 -0.0156  0.5581 -0.2966
10182TIP3   OH254740   2.388   0.168   6.884  0.0546 -0.7729 -0.6674
10182TIP3    H154741   2.346   0.199   6.965 -2.0267  2.6420 -2.7931
10182TIP3    H254742   2.321   0.115   6.842  0.9471 -2.1162 -0.4274
10183TIP3   OH254743   6.012   3.338   7.202 -0.5364 -0.2394  0.1923
10183TIP3    H154744   6.019   3.275   7.274  2.6219 -1.6240 -1.1439
10183TIP3    H254745   6.064   3.299   7.132  1.4289  3.7639 -0.8178
10184TIP3   OH254746   4.347   2.132   5.102  0.3338  0.2647  0.3078
10184TIP3    H154747   4.415   2.194   5.077  0.5729  0.0507  0.4133
10184TIP3    H254748   4.290   2.181   5.161  0.0755  0.6092 -0.2268
10185TIP3   OH254749   6.481   0.700   6.357 -0.3145 -0.2934  0.1373
10185TIP3    H154750   6.517   0.783   6.389 -1.4417  0.1145  0.3917
10185TIP3    H254751   6.454   0.718   6.267 -0.1928 -0.5053  0.0564
10186TIP3   OH254752   3.722   0.830   6.871 -0.6685 -0.0563  0.3597
10186TIP3    H154753   3.761   0.843   6.957  1.9678 -0.0059 -0.7438
10186TIP3    H254754   3.766   0.753   6.836 -1.1799  0.3138 -1.2004
10187TIP3   OH254755   2.001   4.468   5.643  1.3496  0.3722 -0.2934
10187TIP3    H154756   2.039   4.519   5.571 -3.7444  1.0863 -3.0023
10187TIP3    H254757   1.978   4.384   5.602  3.2728 -1.5294  2.2263
10188TIP3   OH254758   1.305   4.191   4.910  0.0454  0.2570  0.4189
10188TIP3    H154759   1.301   4.224   5.000 -2.6154  1.1031  0.0830
10188TIP3    H254760   1.322   4.269   4.857 -0.2339  0.0772  0.0615
10189TIP3   OH254761   6.897   5.554   6.972 -0.4290 -0.2876 -0.0267
10189TIP3    H154762   6.892   5.482   7.035 -0.5839 -0.2130  0.0441
10189TIP3    H254763   6.886   5.511   6.887  1.2362 -0.5926 -0.1176
10190TIP3   OH254764   1.865   2.500   7.216  0.7433 -0.1456 -0.0297
10190TIP3    H154765   1.957   2.518   7.201  0.4886  0.9575 -0.4269
10190TIP3    H254766   1.859   2.405   7.224  1.6136 -0.4328 -2.1035
10191TIP3   OH254767   0.154   2.120   6.088 -0.2311  0.2790 -0.1445
10191TIP3    H154768   0.202   2.037   6.083  1.5972  1.3119 -0.8138
10191TIP3    H254769   0.073   2.104   6.039 -0.6811 -1.5492  1.0826
10192TIP3   OH254770   5.944   7.204   5.209  0.5699 -0.5005 -0.2636
10192TIP3    H154771   5.945   7.130   5.148  1.6363 -2.0151  1.4702
10192TIP3    H254772   6.031   7.244   5.201 -0.2374  1.0964 -1.7144
10193TIP3   OH254773   1.948   6.336   6.007 -0.0464 -0.1864 -0.1457
10193TIP3    H154774   1.936   6.311   5.915 -0.0994  0.5333 -0.3400
10193TIP3    H254775   1.879   6.400   6.024  0.1111 -0.1397  0.3348
10194TIP3   OH254776   6.494   6.997   6.062 -0.5068 -0.0008  0.3003
10194TIP3    H154777   6.419   6.942   6.038 -0.4227  0.8565 -2.3269
10194TIP3    H254778   6.568   6.958   6.016  0.0652  0.8276  0.4951
10195TIP3   OH254779   7.579   2.650   5.365  0.4396 -0.1347  0.2996
10195TIP3    H154780   7.610   2.729   5.321 -0.3332 -1.0205 -1.9467
10195TIP3    H254781   7.635   2.580   5.331 -1.2478 -1.0973 -0.6159
10196TIP3   OH254782   2.430   6.200   6.536  0.3108  0.5610 -0.7645
10196TIP3    H154783   2.452   6.249   6.458  0.2551  1.8562  0.0111
10196TIP3    H254784   2.486   6.236   6.605 -1.5156  1.3581  0.3941
10197TIP3   OH254785   4.580   7.559   5.951  0.2243 -0.2775 -0.5621
10197TIP3    H154786   4.521   7.496   5.910  0.6455 -2.0019  1.3286
10197TIP3    H254787   4.665   7.542   5.910 -0.2307  1.4024 -2.4198
10198TIP3   OH254788   3.913   2.892   5.133 -0.2408  0.6410  0.4870
10198TIP3    H154789   3.848   2.832   5.170  0.0094  0.6342  0.9184
10198TIP3    H254790   3.995   2.868   5.176 -0.0746  1.0717  0.4109
10199TIP3   OH254791   4.703   3.724   5.746 -0.5899 -0.2565  0.5022
10199TIP3    H154792   4.695   3.725   5.842  1.1736  2.0643  0.7115
10199TIP3    H254793   4.626   3.770   5.714 -0.0753  0.9635  0.9731
10200TIP3   OH254794   4.633   6.789   5.497  0.6473 -1.4369  0.4296
10200TIP3    H154795   4.607   6.697   5.510  1.7943 -1.8992 -0.3483
10200TIP3    H254796   4.729   6.787   5.499  0.7675 -0.6035 -1.6572
10201TIP3   OH254797   2.811   1.131   5.629 -0.2782 -0.4355  0.4538
10201TIP3    H154798   2.721   1.135   5.596  0.1691  0.5864 -0.7228
10201TIP3    H254799   2.854   1.066   5.573  0.3728  0.9880 -0.7463
10202TIP3   OH254800   1.270   6.772   7.806 -0.9994 -0.2671 -0.3979
10202TIP3    H154801   1.326   6.741   7.877 -0.4646  0.7537 -0.3518
10202TIP3    H254802   1.198   6.710   7.803 -0.1890 -1.2484 -0.0349
10203TIP3   OH254803   2.160   3.266   6.580 -0.2566 -0.2572 -0.1075
10203TIP3    H154804   2.221   3.340   6.578  1.2601 -1.3984  1.3647
10203TIP3    H254805   2.141   3.252   6.672 -1.7066 -0.7936 -0.4583
10204TIP3   OH254806   4.023   2.396   7.289  0.0026  0.0533  0.3765
10204TIP3    H154807   4.105   2.426   7.250 -0.6716  1.0704 -0.3128
10204TIP3    H254808   4.040   2.305   7.315  1.3206  0.2384  0.2017
10205TIP3   OH254809   2.385   3.617   4.850 -0.1708 -0.0811  0.0062
10205TIP3    H154810   2.380   3.689   4.914  0.9047 -0.8663  1.0370
10205TIP3    H254811   2.478   3.612   4.828 -0.2588 -1.0062 -0.2056
10206TIP3   OH254812   7.505   6.522   6.031 -0.5719 -0.0116 -0.6765
10206TIP3    H154813   7.540   6.474   6.107 -1.0375  2.1132  0.9940
10206TIP3    H254814   7.580   6.569   5.996 -1.0978  2.7949  1.5486
10207TIP3   OH254815   0.320   4.494   5.836 -0.7448  0.0645 -0.1860
10207TIP3    H154816   0.253   4.562   5.827 -0.2977  0.4906 -0.3429
10207TIP3    H254817   0.401   4.543   5.849 -0.7981 -0.4205  2.6684
10208TIP3   OH254818   2.764   6.444   4.590  0.0914  0.4434  0.9512
10208TIP3    H154819   2.711   6.514   4.628 -0.0676  1.1686 -0.5426
10208TIP3    H254820   2.719   6.363   4.614 -0.8937  0.9745  0.9183
10209TIP3   OH254821   3.330   0.879   5.693  0.2896 -0.8169 -0.1192
10209TIP3    H154822   3.301   0.836   5.612  0.2994  0.9209 -1.0970
10209TIP3    H254823   3.368   0.962   5.664 -0.1341  0.0751  1.7198
10210TIP3   OH254824   6.236   6.190   5.348 -0.1288 -0.4485  0.0251
10210TIP3    H154825   6.236   6.283   5.325  0.0996 -0.4050  0.2035
10210TIP3    H254826   6.315   6.156   5.307  0.5016 -0.2892  1.0739
10211TIP3   OH254827   4.558   4.398   7.369  0.6300 -0.4310 -0.0440
10211TIP3    H154828   4.633   4.443   7.407 -0.0348  0.1294  0.6097
10211TIP3    H254829   4.596   4.318   7.332  1.7163  0.3105 -0.6337
10212TIP3   OH254830   7.572   1.466   6.648  0.2002 -0.4078  0.1612
10212TIP3    H154831   7.629   1.415   6.591  1.3915  1.4906 -0.4356
10212TIP3    H254832   7.573   1.419   6.731  1.1437 -1.4223 -0.3947
10213TIP3   OH254833   3.912   2.917   6.161 -0.0921 -0.0123  0.2287
10213TIP3    H154834   3.994   2.929   6.113 -0.6241 -1.2063 -1.0302
10213TIP3    H254835   3.901   2.822   6.167 -0.8081  0.1266  1.4139
10214TIP3   OH254836   1.846   5.132   5.166  0.2699  0.1458  0.1723
10214TIP3    H154837   1.883   5.114   5.252 -0.1090  0.8110  0.4823
10214TIP3    H254838   1.830   5.226   5.166  0.3245  0.1655 -0.6513
10215TIP3   OH254839   4.538   4.287   6.449 -0.6128  0.0745 -0.2886
10215TIP3    H154840   4.525   4.366   6.397  1.0989  0.5757 -0.0140
10215TIP3    H254841   4.535   4.317   6.540 -0.5709 -0.2722 -0.1707
10216TIP3   OH254842   6.453   3.306   6.524 -0.0364  0.5815 -0.5572
10216TIP3    H154843   6.395   3.361   6.577 -0.1161  0.7473 -0.8117
10216TIP3    H254844   6.407   3.298   6.440  0.6973  1.4233 -1.0581
10217TIP3   OH254845   1.617   5.344   5.686 -0.1895 -0.0454 -0.1187
10217TIP3    H154846   1.534   5.392   5.686  0.5985  1.3576 -0.1857
10217TIP3    H254847   1.671   5.390   5.621  0.5548 -1.0999 -0.2708
10218TIP3   OH254848   5.411   0.399   7.282  0.1501  0.4591  0.3019
10218TIP3    H154849   5.379   0.487   7.265  1.6232  1.3419  1.8018
10218TIP3    H254850   5.501   0.411   7.313  0.1736 -1.5131  1.1789
10219TIP3   OH254851   6.597   4.290   6.541  0.3695 -0.0459  0.2604
10219TIP3    H154852   6.553   4.259   6.620  0.5134  0.4237  0.5273
10219TIP3    H254853   6.609   4.383   6.555  0.3374  0.0536 -0.3477
10220TIP3   OH254854   6.543   2.225   6.833  0.3358  0.0319  0.2365
10220TIP3    H154855   6.537   2.204   6.926  0.8805 -0.7840  0.0958
10220TIP3    H254856   6.592   2.307   6.830 -1.8330  1.4309  0.8001
10221TIP3   OH254857   0.758   0.646   6.080 -0.4518 -0.0552  1.2266
10221TIP3    H154858   0.698   0.629   6.152 -0.3044  0.7601  1.5574
10221TIP3    H254859   0.739   0.578   6.016 -0.9014 -0.5145  1.8388
10222TIP3   OH254860   5.805   2.740   6.308  0.6692  0.6787  0.4060
10222TIP3    H154861   5.710   2.737   6.295  0.8156  1.5186 -1.1064
10222TIP3    H254862   5.826   2.654   6.344 -0.5567  0.1311 -0.1017
10223TIP3   OH254863   6.655   0.713   7.710  0.1619  0.5338  0.1977
10223TIP3    H154864   6.697   0.795   7.684 -1.0432  1.1457  0.1381
10223TIP3    H254865   6.659   0.714   7.805  1.2115  0.0772  0.1743
10224TIP3   OH254866   0.468   6.864   6.371  0.2651 -0.4283  0.1269
10224TIP3    H154867   0.446   6.957   6.367  1.2850 -0.2061 -0.8695
10224TIP3    H254868   0.561   6.862   6.394  0.0693 -1.2246  0.8929
10225TIP3   OH254869   6.799   1.803   5.022 -0.5289 -0.7632 -0.4456
10225TIP3    H154870   6.709   1.786   5.052  0.0260 -2.4348  0.3972
10225TIP3    H254871   6.854   1.754   5.083  1.0009  0.4510 -0.7839
10226TIP3   OH254872   3.772   4.504   4.896 -0.4127 -0.6532 -0.4457
10226TIP3    H154873   3.739   4.532   4.981 -1.6723 -1.6745 -0.5606
10226TIP3    H254874   3.693   4.497   4.841 -0.0690 -3.1126 -0.7649
10227TIP3   OH254875   7.094   2.485   4.700 -0.0497 -0.4282 -0.0727
10227TIP3    H154876   7.179   2.486   4.656 -1.0339 -0.0859 -2.0599
10227TIP3    H254877   7.090   2.569   4.746  1.2559 -1.0557  1.2419
10228TIP3   OH254878   5.825   6.496   4.800  0.0775 -0.3887  0.3213
10228TIP3    H154879   5.822   6.557   4.726  1.3702  2.9306  2.7294
10228TIP3    H254880   5.916   6.467   4.804 -0.0278 -0.7023  0.4871
10229TIP3   OH254881   3.792   1.982   7.689 -0.1246  0.6710 -0.0283
10229TIP3    H154882   3.827   1.925   7.758 -0.8104 -1.5257 -1.3831
10229TIP3    H254883   3.700   1.959   7.684 -0.7393  2.8536  0.1635
10230TIP3   OH254884   3.551   4.185   5.101 -0.2644 -0.3874 -0.0414
10230TIP3    H154885   3.602   4.143   5.032  0.0400  0.8136 -0.5680
10230TIP3    H254886   3.580   4.142   5.182  0.0178 -1.1945 -0.5606
10231TIP3   OH254887   6.286   6.650   7.426 -0.8155 -0.3056  0.0088
10231TIP3    H154888   6.259   6.584   7.490 -0.5685 -0.7338 -0.3167
10231TIP3    H254889   6.255   6.615   7.342  0.9305 -0.9504 -0.4126
10232TIP3   OH254890   5.263   2.073   5.720  0.0140  0.3307  0.5741
10232TIP3    H154891   5.355   2.053   5.709 -0.5765 -1.4245 -2.2487
10232TIP3    H254892   5.220   1.988   5.732 -1.2246  1.1488  2.5280
10233TIP3   OH254893   0.150   7.614   4.810 -0.3818 -0.1917 -0.1579
10233TIP3    H154894   0.208   7.668   4.863  1.1674 -0.6639 -1.3059
10233TIP3    H254895   0.062   7.650   4.826  0.0415 -0.1024  2.4210
10234TIP3   OH254896   1.079   4.218   5.902 -0.4013 -0.2038  0.0126
10234TIP3    H154897   1.061   4.151   5.968 -2.7822  1.1462  0.8971
10234TIP3    H254898   0.992   4.246   5.873  0.5162  2.0859 -0.7302
10235TIP3   OH254899   2.849   2.344   6.985 -0.0454  0.2938 -0.0743
10235TIP3    H154900   2.813   2.432   6.975 -1.3736 -0.4461 -2.5431
10235TIP3    H254901   2.779   2.294   7.027  0.6802  0.3624  1.2598
10236TIP3   OH254902   0.271   6.138   6.552 -0.0664 -0.2512 -0.2295
10236TIP3    H154903   0.186   6.166   6.517 -0.2559 -0.5830 -0.0473
10236TIP3    H254904   0.324   6.217   6.553 -0.3827 -0.0343 -0.3214
10237TIP3   OH254905   0.071   0.137   5.232 -0.1493 -0.3899 -0.4928
10237TIP3    H154906   0.004   0.090   5.281  1.2009  0.0932  2.0139
10237TIP3    H254907   0.153   0.110   5.273  1.0096  0.6466 -2.0459
10238TIP3   OH254908   7.369   6.091   5.970  0.3459 -0.1375 -0.0847
10238TIP3    H154909   7.308   6.028   5.930 -0.2695 -0.3094  1.0929
10238TIP3    H254910   7.333   6.176   5.946  0.2522 -0.2321 -0.2886
10239TIP3   OH254911   1.538   1.132   7.173 -0.8592  0.3060 -0.2404
10239TIP3    H154912   1.632   1.146   7.184 -0.7878 -0.1355 -0.3062
10239TIP3    H254913   1.505   1.218   7.144 -0.4046  0.3315 -0.6922
10240TIP3   OH254914   3.086   1.003   6.222 -0.0144 -0.2334 -0.2151
10240TIP3    H154915   3.108   0.947   6.148 -0.2182 -1.1962  0.4390
10240TIP3    H254916   3.170   1.034   6.255  0.0302  2.5225 -2.5360
10241TIP3   OH254917   7.588   7.546   5.974 -0.3882  0.2223  0.1984
10241TIP3    H154918   7.514   7.590   6.015  0.0174  0.1402  1.0235
10241TIP3    H254919   7.549   7.472   5.927 -0.9357  0.7530 -0.2088
10242TIP3   OH254920   4.733   0.574   5.161  0.0865 -0.1477  0.0234
10242TIP3    H154921   4.658   0.633   5.160  0.7616  0.7487  0.6532
10242TIP3    H254922   4.744   0.546   5.070 -0.4651  0.4117 -0.2170
10243TIP3   OH254923   4.841   6.124   5.095 -0.9381 -0.5898 -0.2126
10243TIP3    H154924   4.793   6.094   5.172  1.7950 -2.2268  0.9990
10243TIP3    H254925   4.854   6.045   5.043 -2.5308  0.4452 -2.3592
10244TIP3   OH254926   6.556   5.698   5.171 -0.1674 -0.1841 -0.3699
10244TIP3    H154927   6.652   5.699   5.166 -0.0325 -1.5398  1.0299
10244TIP3    H254928   6.536   5.760   5.241 -0.0320 -2.1768  1.5584
10245TIP3   OH254929   2.426   2.782   6.943 -0.0851  0.5497 -0.4694
10245TIP3    H154930   2.496   2.736   6.898 -0.9170 -1.4230  0.1661
10245TIP3    H254931   2.349   2.725   6.934 -0.8792  1.2456  1.3388
10246TIP3   OH254932   1.695   0.696   7.511  0.3774  0.0539  0.2722
10246TIP3    H154933   1.672   0.754   7.584  1.1492 -0.2466  0.7691
10246TIP3    H254934   1.766   0.641   7.546  1.2479  0.3824 -0.9316
10247TIP3   OH254935   5.319   7.018   5.982  0.0665  0.4381  0.3104
10247TIP3    H154936   5.305   7.025   5.888  1.9471 -0.2502 -0.0662
10247TIP3    H254937   5.390   7.079   6.000  1.0812 -0.8766  0.9150
10248TIP3   OH254938   3.615   0.266   5.114 -0.3309 -0.6201 -0.1911
10248TIP3    H154939   3.661   0.186   5.087  0.8138  0.1306 -0.5347
10248TIP3    H254940   3.611   0.320   5.036  1.7880  0.9867  0.6887
10249TIP3   OH254941   1.696   2.400   5.171 -0.3529  0.5628  0.0129
10249TIP3    H154942   1.625   2.357   5.123  0.8893 -0.8873 -0.6046
10249TIP3    H254943   1.690   2.492   5.146 -1.7864  0.3968 -0.3095
10250TIP3   OH254944   1.003   3.347   6.215 -0.2900 -0.2724 -0.0837
10250TIP3    H154945   0.964   3.379   6.296  1.0019 -0.8229  0.7916
10250TIP3    H254946   1.079   3.404   6.200 -0.4201 -0.2829 -0.8085
10251TIP3   OH254947   3.341   3.092   7.041 -0.3844 -0.1061 -0.0204
10251TIP3    H154948   3.313   3.160   7.102 -0.2344 -0.3143  0.2808
10251TIP3    H254949   3.276   3.022   7.050 -0.9303  0.2852 -0.8353
10252TIP3   OH254950   3.628   1.068   6.763 -0.1595  0.2512  0.0666
10252TIP3    H154951   3.649   1.143   6.818  0.8458 -0.3303  0.4889
10252TIP3    H254952   3.670   0.993   6.806 -0.5594 -0.4446 -0.7195
10253TIP3   OH254953   7.560   2.919   4.533  0.4627  0.8906  0.0735
10253TIP3    H154954   7.522   2.843   4.577  0.9842  0.2170 -0.6160
10253TIP3    H254955   7.644   2.933   4.577  1.0573  0.1191 -0.7755
10254TIP3   OH254956   6.284   3.836   5.993  0.2583 -0.1622 -0.2855
10254TIP3    H154957   6.267   3.788   5.912  0.6103 -2.0289  0.6924
10254TIP3    H254958   6.199   3.837   6.038  0.5629 -1.2782  0.3749
10255TIP3   OH254959   3.788   5.505   5.155 -0.1563  0.2136  0.6054
10255TIP3    H154960   3.785   5.425   5.102  1.3177 -0.2476  1.1829
10255TIP3    H254961   3.708   5.502   5.207 -1.5386  0.5612 -1.3659
10256TIP3   OH254962   3.064   0.092   6.361  0.2151 -0.2592 -0.1788
10256TIP3    H154963   3.138   0.055   6.313  0.2936 -0.1379 -0.1532
10256TIP3    H254964   3.083   0.186   6.364 -0.2308 -0.1478 -0.6857
10257TIP3   OH254965   7.469   4.028   6.109  0.1891  0.1709 -0.8874
10257TIP3    H154966   7.517   4.028   6.192  1.4410  1.3253 -1.5792
10257TIP3    H254967   7.434   3.939   6.102  1.7225 -0.5337 -0.0676
10258TIP3   OH254968   6.633   1.493   7.322  0.4192  0.0641  0.2048
10258TIP3    H154969   6.724   1.523   7.320  0.2001  0.8956  1.7038
10258TIP3    H254970   6.590   1.548   7.387 -1.4710  0.4859 -1.2909
10259TIP3   OH254971   1.686   5.345   6.894  0.2138  0.1606  0.3564
10259TIP3    H154972   1.721   5.349   6.805 -0.4628  1.7899  0.1201
10259TIP3    H254973   1.602   5.391   6.888  0.1669  0.3109  1.8388
10260TIP3   OH254974   5.174   5.971   6.905  0.6562  0.1066  0.2392
10260TIP3    H154975   5.176   6.030   6.830 -1.5570  0.0560  0.0914
10260TIP3    H254976   5.105   5.908   6.884  0.3690 -0.2350  2.0800
10261TIP3   OH254977   3.786   1.550   5.811 -0.4357  0.4212 -0.4949
10261TIP3    H154978   3.851   1.533   5.743  0.4839  2.1122 -0.1088
10261TIP3    H254979   3.834   1.600   5.877 -1.8840  0.8226  0.2965
10262TIP3   OH254980   3.897   3.088   6.377  0.2052 -0.0784 -0.1785
10262TIP3    H154981   3.818   3.142   6.370  1.6504  2.0448 -0.8238
10262TIP3    H254982   3.896   3.035   6.297  0.7390  1.8647 -1.5377
10263TIP3   OH254983   6.831   5.242   5.232  0.5245  0.3926 -0.5124
10263TIP3    H154984   6.820   5.173   5.297  0.7017  0.9659  0.1338
10263TIP3    H254985   6.742   5.276   5.218  0.4277  0.0040 -0.8769
10264TIP3   OH254986   7.292   5.566   5.137  0.1006 -0.1595 -0.7160
10264TIP3    H154987   7.253   5.481   5.158  2.5716 -1.1878  0.0993
10264TIP3    H254988   7.382   5.545   5.112 -0.1934  1.8996 -4.0989
10265TIP3   OH254989   1.420   5.472   6.869 -0.6976 -0.2064 -0.4895
10265TIP3    H154990   1.356   5.531   6.829  0.2976  0.7202 -0.7527
10265TIP3    H254991   1.372   5.432   6.942 -0.9486  2.1700  0.7559
10266TIP3   OH254992   5.007   3.730   5.691  0.3803 -0.1452 -0.8946
10266TIP3    H154993   4.916   3.726   5.660 -1.2505  0.3403  3.2130
10266TIP3    H254994   5.025   3.643   5.724 -0.6010  0.8807  2.8194
10267TIP3   OH254995   2.375   7.168   7.085 -0.0436 -0.1693 -0.3301
10267TIP3    H154996   2.345   7.156   6.995 -0.5794  0.9958 -0.3225
10267TIP3    H254997   2.296   7.166   7.138  0.3427 -1.7894  0.2588
10268TIP3   OH254998   3.272   6.626   4.792  0.0708  0.0639  0.7398
10268TIP3    H154999   3.262   6.586   4.705  0.5710  1.3782  0.0547
10268TIP3    H255000   3.365   6.621   4.810 -0.0929 -0.6623  1.4550
10269TIP3   OH255001   0.670   2.528   6.916  0.0604  0.4812  0.3422
10269TIP3    H155002   0.677   2.544   6.822 -1.5571 -0.0688  0.0936
10269TIP3    H255003   0.720   2.448   6.930  0.2478  0.5223 -0.0634
10270TIP3   OH255004   4.445   0.228   7.556  0.3243  0.0203  0.7356
10270TIP3    H155005   4.499   0.298   7.592 -0.4440  0.3037  1.3714
10270TIP3    H255006   4.495   0.194   7.482  0.6891  1.2848  0.3823
10271TIP3   OH255007   0.930   3.323   5.633 -0.2163 -0.0243  0.0409
10271TIP3    H155008   0.975   3.341   5.551 -2.4422  2.0218 -0.8452
10271TIP3    H255009   0.999   3.324   5.699  1.4162 -0.1612 -1.5849
10272TIP3   OH255010   1.023   0.652   6.132  0.2775  0.5618  0.6452
10272TIP3    H155011   0.933   0.671   6.107  0.3721 -1.1595 -1.3295
10272TIP3    H255012   1.019   0.568   6.178  0.7998  0.8738  1.2876
10273TIP3   OH255013   3.083   3.234   5.966 -0.0361 -0.1978 -0.6173
10273TIP3    H155014   3.092   3.149   6.008  1.1455 -0.3782 -1.1734
10273TIP3    H255015   3.038   3.215   5.883 -2.9309  0.2439  0.7435
10274TIP3   OH255016   7.229   0.795   5.898  0.1765 -0.0894 -0.3860
10274TIP3    H155017   7.177   0.830   5.826 -1.1153  1.8044  1.3228
10274TIP3    H255018   7.177   0.721   5.931  0.4857 -0.5973 -1.0316
10275TIP3   OH255019   7.554   1.148   6.354 -0.3081 -0.5237  0.0143
10275TIP3    H155020   7.509   1.147   6.439 -1.8111  0.8152 -0.7109
10275TIP3    H255021   7.522   1.070   6.309 -0.4396 -0.5909  0.2229
10276TIP3   OH255022   2.081   5.147   4.959 -0.5977  0.4126  0.5056
10276TIP3    H155023   2.087   5.077   5.024  2.5128 -1.1391 -1.2100
10276TIP3    H255024   2.159   5.201   4.974 -1.1503  1.5048 -0.3739
10277TIP3   OH255025   2.386   2.002   4.943  0.2461  0.4871  0.4778
10277TIP3    H155026   2.382   2.082   4.995  0.9245  0.8819 -0.0700
10277TIP3    H255027   2.438   1.941   4.997 -0.2320  0.4193  0.8723
10278TIP3   OH255028   3.063   6.097   6.681  0.1481 -0.3152  0.7109
10278TIP3    H155029   3.109   6.014   6.677  0.5151 -0.1033  0.5148
10278TIP3    H255030   3.001   6.094   6.608 -0.0618 -0.5485  0.8995
10279TIP3   OH255031   3.968   6.555   6.911  0.3519 -0.0813  0.2505
10279TIP3    H155032   4.055   6.524   6.884  1.7032  0.8053  3.1591
10279TIP3    H255033   3.984   6.645   6.940 -0.9908 -0.6639  3.0967
10280TIP3   OH255034   5.266   1.105   5.795 -0.0316 -0.3127  0.4924
10280TIP3    H155035   5.253   1.197   5.769  4.2069 -0.3063 -2.6580
10280TIP3    H255036   5.315   1.111   5.878 -1.1495  0.1314  1.1525
10281TIP3   OH255037   6.771   4.395   6.932  0.5448 -0.0873 -0.1695
10281TIP3    H155038   6.703   4.355   6.877  0.3935 -1.0100  0.6660
10281TIP3    H255039   6.723   4.433   7.006  0.6890  1.6313 -0.8992
10282TIP3   OH255040   6.447   1.895   5.623 -0.3320  0.0137  0.2996
10282TIP3    H155041   6.524   1.882   5.679 -0.9067 -0.2328  1.0397
10282TIP3    H255042   6.373   1.897   5.684 -1.2689 -2.7215 -0.6170
10283TIP3   OH255043   4.802   1.239   5.407  0.0992  0.4795  0.0865
10283TIP3    H155044   4.893   1.213   5.420 -0.3255 -1.3636 -0.2422
10283TIP3    H255045   4.788   1.233   5.313 -0.3814  0.6924  0.1413
10284TIP3   OH255046   7.313   2.830   6.630  0.0452  0.2072 -0.0832
10284TIP3    H155047   7.282   2.916   6.600  0.1700  1.0207  1.9581
10284TIP3    H255048   7.324   2.840   6.725  1.1618 -1.7411  0.0468
10285TIP3   OH255049   1.115   4.222   5.209  0.3197  0.1455 -0.3350
10285TIP3    H155050   1.056   4.147   5.200 -1.1949  1.3156 -0.5430
10285TIP3    H255051   1.093   4.258   5.295  1.4813 -0.0046  0.0314
10286TIP3   OH255052   7.306   3.259   5.008 -0.0120  0.1667  0.0565
10286TIP3    H155053   7.305   3.222   5.097 -2.2505  2.1190  0.9768
10286TIP3    H255054   7.357   3.339   5.017  0.6893 -0.1784 -0.7362
10287TIP3   OH255055   6.592   3.995   5.488 -0.5535 -0.1746  0.2389
10287TIP3    H155056   6.630   4.025   5.405  0.0108  0.8878  0.8549
10287TIP3    H255057   6.562   4.075   5.531 -0.5483 -0.6702  1.1960
10288TIP3   OH255058   4.955   6.654   5.965  0.4157  0.0333 -0.8410
10288TIP3    H155059   4.970   6.748   5.977  1.0027  0.1912 -2.4404
10288TIP3    H255060   4.984   6.637   5.875  0.7261 -1.7684 -0.4434
10289TIP3   OH255061   4.545   4.255   5.722 -0.1160 -0.6342  0.3471
10289TIP3    H155062   4.592   4.288   5.645  0.0079  2.0518  1.4402
10289TIP3    H255063   4.453   4.253   5.695  0.0838 -1.1528 -0.3174
10290TIP3   OH255064   3.609   4.876   6.468  0.1306 -0.0606 -0.5467
10290TIP3    H155065   3.578   4.966   6.461  1.1721  0.2855 -0.9821
10290TIP3    H255066   3.557   4.827   6.405  0.4238  0.4957 -1.2315
10291TIP3   OH255067   6.177   3.635   6.831  0.2729  0.3689 -0.3397
10291TIP3    H155068   6.220   3.649   6.916 -0.6974 -1.3826  0.4909
10291TIP3    H255069   6.200   3.545   6.807 -1.0292  0.1916 -1.0025
10292TIP3   OH255070   7.656   6.060   6.026  0.0306  0.0668  0.0643
10292TIP3    H155071   7.566   6.091   6.019 -0.6060 -1.6505  0.1478
10292TIP3    H255072   7.650   5.981   6.080  1.1331 -1.7996 -2.3699
10293TIP3   OH255073   0.845   4.367   7.327  0.1354  0.5416  0.1769
10293TIP3    H155074   0.761   4.359   7.282  0.4742  0.0278 -0.3999
10293TIP3    H255075   0.825   4.408   7.411 -0.7318  0.1006  0.1899
10294TIP3   OH255076   5.467   2.563   7.209  0.5031  0.1079  0.4232
10294TIP3    H155077   5.544   2.619   7.216  0.9077 -0.2581 -0.8333
10294TIP3    H255078   5.468   2.511   7.290  2.2193 -0.6551 -0.0310
10295TIP3   OH255079   4.123   3.737   6.348  0.1352  0.0893  0.3743
10295TIP3    H155080   4.087   3.822   6.374 -0.9862 -0.1194 -0.4261
10295TIP3    H255081   4.070   3.674   6.397 -0.2203 -0.2021 -0.3770
10296TIP3   OH255082   7.019   1.296   5.309 -0.1263  0.3832 -0.1926
10296TIP3    H155083   6.966   1.300   5.229 -0.3068  0.2354 -0.0798
10296TIP3    H255084   7.097   1.247   5.283 -0.8381 -0.9571  0.0855
10297TIP3   OH255085   5.551   5.861   5.940  0.3768 -0.4256  0.2120
10297TIP3    H155086   5.643   5.836   5.941  0.1219 -1.6350 -1.8454
10297TIP3    H255087   5.547   5.936   5.881  0.3202  1.1846  2.1291
10298TIP3   OH255088   5.452   4.003   5.794 -0.1224 -0.1964 -0.0116
10298TIP3    H155089   5.470   4.065   5.865 -0.7778  0.6031 -0.5252
10298TIP3    H255090   5.471   3.917   5.832  3.8039  0.4337 -0.1885
10299TIP3   OH255091   1.859   3.155   5.567 -0.0312  0.3653  0.9598
10299TIP3    H155092   1.892   3.198   5.646  2.0023 -0.0737  0.4152
10299TIP3    H255093   1.877   3.062   5.582  0.0936  0.2492  0.1167
10300TIP3   OH255094   5.502   5.100   5.994 -0.0282  0.3455 -0.4764
10300TIP3    H155095   5.493   5.038   5.921 -1.1103 -0.5398  0.3840
10300TIP3    H255096   5.593   5.090   6.022 -0.5942 -2.1935  0.7477
10301TIP3   OH255097   1.974   3.341   4.797  0.0612  0.5794 -0.2878
10301TIP3    H155098   1.888   3.325   4.835 -0.0711 -0.3757 -0.9359
10301TIP3    H255099   2.017   3.400   4.858 -0.5708  0.0221  0.7191
10302TIP3   OH255100   1.117   1.321   5.111 -0.0530  0.2290  0.2576
10302TIP3    H155101   1.141   1.360   5.027  0.3257 -0.7813 -0.1225
10302TIP3    H255102   1.200   1.289   5.147 -0.4972 -1.3979 -0.0735
10303TIP3   OH255103   1.562   7.032   5.392 -0.9181  0.3024 -0.4303
10303TIP3    H155104   1.637   7.031   5.451 -1.2124  2.1260  0.0397
10303TIP3    H255105   1.505   6.962   5.426  0.2842 -0.7460 -0.4771
10304TIP3   OH255106   0.785   2.037   5.418  0.1561  0.0246  0.5016
10304TIP3    H155107   0.767   2.118   5.369 -0.8070 -0.7912 -0.5659
10304TIP3    H255108   0.820   1.977   5.353 -0.6135 -0.9114  0.9233
10305TIP3   OH255109   5.838   0.429   5.225  0.1238  0.0977  0.4030
10305TIP3    H155110   5.793   0.433   5.140  0.9408  1.2469  0.0060
10305TIP3    H255111   5.776   0.384   5.282 -0.4420 -0.7049 -0.7978
10306TIP3   OH255112   7.169   5.236   6.152 -0.1578  0.0185  0.0518
10306TIP3    H155113   7.140   5.283   6.074  0.3855 -1.0822 -0.8331
10306TIP3    H255114   7.115   5.157   6.155 -1.1541  0.7001  1.6066
10307TIP3   OH255115   4.669   0.036   6.790 -0.8333 -0.2945  0.3269
10307TIP3    H155116   4.660   0.055   6.884  0.1172 -1.4068  0.6676
10307TIP3    H255117   4.647  -0.056   6.782  1.1298 -0.7663 -0.1842
10308TIP3   OH255118   6.639   2.533   5.565  0.3468 -0.5388  0.1228
10308TIP3    H155119   6.681   2.448   5.571 -0.9289 -1.2842 -1.0728
10308TIP3    H255120   6.626   2.547   5.471 -2.2463 -0.4676  0.4294
10309TIP3   OH255121   6.714   4.979   4.804  0.6632  0.3864 -0.1588
10309TIP3    H155122   6.684   4.994   4.894 -1.6020  1.1114 -0.9613
10309TIP3    H255123   6.637   4.944   4.759  0.9338  2.4474 -2.4090
10310TIP3   OH255124   7.272   7.622   7.081 -0.3038 -0.2375  0.7460
10310TIP3    H155125   7.257   7.624   7.175  3.0359 -3.2831  1.5496
10310TIP3    H255126   7.364   7.644   7.071 -0.6469  0.2933 -1.8846
10311TIP3   OH255127   1.747   1.473   5.031  0.4209 -0.1427 -0.4387
10311TIP3    H155128   1.759   1.565   5.054  0.4094 -0.5632  1.4040
10311TIP3    H255129   1.654   1.466   5.009  0.4717  0.3098 -0.8249
10312TIP3   OH255130   0.304   0.766   7.126  0.0743 -0.1064  0.2304
10312TIP3    H155131   0.317   0.784   7.219 -0.0780  0.9938  0.0555
10312TIP3    H255132   0.236   0.699   7.124  1.1396 -1.2486  0.9458
10313TIP3   OH255133   6.359   1.378   6.514  0.2838  0.8811 -0.2649
10313TIP3    H155134   6.438   1.361   6.565  0.0895  0.8321  0.0200
10313TIP3    H255135   6.386   1.361   6.423 -0.0766 -1.6812  0.0324
10314TIP3   OH255136   5.908   6.799   4.860  0.2009  0.4907  0.1660
10314TIP3    H155137   5.993   6.755   4.866  0.6890  1.3179 -0.3775
10314TIP3    H255138   5.897   6.817   4.767 -0.2548  0.9866  0.3105
10315TIP3   OH255139   5.245   4.886   6.888 -0.1070 -0.3632  0.1873
10315TIP3    H155140   5.176   4.856   6.947  0.0844 -0.3189  0.4331
10315TIP3    H255141   5.305   4.935   6.944  0.1663 -0.4692 -0.0120
10316TIP3   OH255142   3.851   1.351   6.270 -0.4956 -0.5050  0.1220
10316TIP3    H155143   3.864   1.337   6.176  0.7850 -2.1268  0.4975
10316TIP3    H255144   3.927   1.311   6.311 -1.6649 -0.9753  1.9359
10317TIP3   OH255145   1.945   0.262   5.942  0.8099 -0.5002  0.2953
10317TIP3    H155146   1.912   0.174   5.959 -1.0339 -0.2160 -1.4832
10317TIP3    H255147   2.040   0.253   5.945  0.6512 -2.4543  0.5545
10318TIP3   OH255148   5.501   7.238   5.963 -0.7096 -0.2923 -0.2378
10318TIP3    H155149   5.519   7.332   5.970  1.8820 -0.6615 -0.6199
10318TIP3    H255150   5.454   7.228   5.881 -1.4286  0.6990  0.0371
10319TIP3   OH255151   6.581   3.507   4.382  0.1788 -0.0744 -0.0659
10319TIP3    H155152   6.574   3.415   4.409 -1.2481 -0.0605 -0.3101
10319TIP3    H255153   6.532   3.555   4.448  0.1647  0.4094 -0.4228
10320TIP3   OH255154   5.813   0.283   6.486 -0.3254  0.6153  0.5396
10320TIP3    H155155   5.746   0.276   6.418  0.0090  1.8942  0.0599
10320TIP3    H255156   5.895   0.258   6.441 -0.1905  0.9045  0.6275
10321TIP3   OH255157   4.301   0.781   4.711  0.1233 -0.1826 -0.5462
10321TIP3    H155158   4.378   0.741   4.672  0.2104 -0.2451 -0.3134
10321TIP3    H255159   4.231   0.717   4.697 -0.1937  0.4202 -1.8964
10322TIP3   OH255160   0.177   3.628   5.611  0.2481 -0.2399 -0.3082
10322TIP3    H155161   0.259   3.621   5.563 -0.5369 -1.6846 -1.5336
10322TIP3    H255162   0.203   3.642   5.702  1.8753 -1.6166 -0.5162
10323TIP3   OH255163   1.211   3.569   7.096  0.0919 -0.2622 -0.4583
10323TIP3    H155164   1.115   3.564   7.092 -0.0168  1.2113 -0.2014
10323TIP3    H255165   1.234   3.639   7.035  1.0961 -1.2175 -1.2065
10324TIP3   OH255166   2.111   1.439   7.768 -0.2346  0.0730  0.1120
10324TIP3    H155167   2.051   1.497   7.721  0.3302  0.1764 -0.4975
10324TIP3    H255168   2.198   1.467   7.740  0.0734 -0.5288  0.4475
10325TIP3   OH255169   5.812   6.635   5.481  0.7912 -0.1092 -0.5734
10325TIP3    H155170   5.898   6.644   5.522  0.2896  0.3793  0.3966
10325TIP3    H255171   5.794   6.541   5.486  0.0919  0.0828  1.7625
10326TIP3   OH255172   1.053   5.091   6.155 -0.2613 -0.2710  0.2312
10326TIP3    H155173   1.078   5.046   6.074  0.6678  1.1592 -0.3214
10326TIP3    H255174   1.058   5.023   6.222 -0.7774 -1.4238 -0.8515
10327TIP3   OH255175   6.093   4.756   6.412  0.0443 -0.0344  0.0608
10327TIP3    H155176   6.151   4.831   6.427 -0.4185  0.0092  1.9522
10327TIP3    H255177   6.126   4.688   6.471 -0.3825 -0.8503 -0.6168
10328TIP3   OH255178   1.953   6.898   5.377  0.8103  0.0241  0.1783
10328TIP3    H155179   1.881   6.858   5.327  0.8392 -0.3084  0.3987
10328TIP3    H255180   2.004   6.946   5.311  0.5385  0.0410 -0.0224
10329TIP3   OH255181   3.880   3.743   4.892  0.6255 -0.4340  0.1151
10329TIP3    H155182   3.969   3.719   4.864  0.1383 -1.2935 -0.7231
10329TIP3    H255183   3.833   3.661   4.897 -0.6267  0.1709 -1.1894
10330TIP3   OH255184   2.298   3.690   5.999 -0.8252  0.0604 -0.1242
10330TIP3    H155185   2.324   3.715   6.087  0.3109  0.1089 -0.4681
10330TIP3    H255186   2.345   3.609   5.981 -0.0135  0.7458 -1.1731
10331TIP3   OH255187   1.793   4.806   5.078  0.1468  0.3821  0.0956
10331TIP3    H155188   1.710   4.764   5.101 -0.0765 -0.0017 -1.2697
10331TIP3    H255189   1.768   4.892   5.043  0.5027  1.1315  1.6217
10332TIP3   OH255190   1.984   6.112   5.106  0.4797 -0.0861 -0.0658
10332TIP3    H155191   1.969   6.018   5.107 -0.0338 -0.0119 -0.2632
10332TIP3    H255192   1.897   6.150   5.093  0.3766  0.4918  1.9741
10333TIP3   OH255193   7.591   3.574   6.067  0.3145  0.0946 -0.5506
10333TIP3    H155194   7.661   3.637   6.049  2.1878 -1.8847 -0.6735
10333TIP3    H255195   7.599   3.509   5.997 -1.2287 -0.5509 -0.1715
10334TIP3   OH255196   4.222   7.338   6.380 -0.0317  0.1547 -0.8302
10334TIP3    H155197   4.272   7.383   6.448  1.6178 -0.6028 -1.4780
10334TIP3    H255198   4.148   7.396   6.363  0.7836  1.4984 -0.0336
10335TIP3   OH255199   0.150   1.505   5.920  0.6197 -0.8573 -0.3008
10335TIP3    H155200   0.095   1.559   5.865  0.6704  0.4001  0.8282
10335TIP3    H255201   0.232   1.553   5.927  0.7222 -1.1372  0.5914
10336TIP3   OH255202   3.739   6.574   6.321  0.2057  0.3804  0.3404
10336TIP3    H155203   3.715   6.484   6.300  0.0897  0.4364  0.2367
10336TIP3    H255204   3.718   6.624   6.242  0.1519  0.5203  0.4434
10337TIP3   OH255205   1.783   2.510   4.862  0.1061  0.2396 -0.0753
10337TIP3    H155206   1.862   2.553   4.893 -0.7656  1.4705  0.5195
10337TIP3    H255207   1.807   2.417   4.855  0.8573  0.1619  2.5701
10338TIP3   OH255208   4.337   2.638   6.432 -0.4109 -0.0719 -0.7317
10338TIP3    H155209   4.245   2.612   6.430 -0.6802  0.7333  0.3811
10338TIP3    H255210   4.385   2.559   6.407 -1.3350 -0.9297  0.1190
10339TIP3   OH255211   1.601   6.442   5.152  0.0205 -0.6745 -0.6480
10339TIP3    H155212   1.507   6.430   5.144 -0.0785 -0.2108 -0.2696
10339TIP3    H255213   1.620   6.427   5.245 -0.0976  1.7386 -0.1582
10340TIP3   OH255214   4.341   2.695   5.659 -0.0064  0.2878  0.5314
10340TIP3    H155215   4.319   2.787   5.649 -2.2135 -0.2207  0.2594
10340TIP3    H255216   4.278   2.662   5.723 -0.2513 -1.3398 -0.4821
10341TIP3   OH255217   1.054   0.937   7.620  0.1581 -0.3314 -0.1909
10341TIP3    H155218   1.140   0.958   7.584  0.3757 -0.4123  0.2724
10341TIP3    H255219   1.039   1.004   7.687 -1.7178  1.9182 -2.6388
10342TIP3   OH255220   7.603   7.226   4.960 -0.4817  0.3532  0.1115
10342TIP3    H155221   7.578   7.307   5.005  0.2279  0.3141  0.5853
10342TIP3    H255222   7.674   7.251   4.901 -0.1307  0.0468  0.3952
10343TIP3   OH255223   1.480   0.340   7.276  0.3685 -0.3492 -0.0937
10343TIP3    H155224   1.471   0.265   7.334 -1.5644  0.4188  0.6589
10343TIP3    H255225   1.442   0.311   7.193 -1.2036  0.0401  0.4610
10344TIP3   OH255226   3.143   0.966   5.941  0.0376  0.2997  0.3291
10344TIP3    H155227   3.199   0.928   5.874 -0.0770 -0.5997  0.7255
10344TIP3    H255228   3.061   0.917   5.935 -0.7500  1.6285 -0.2753
10345TIP3   OH255229   6.607   3.808   7.338  0.3867 -0.8082 -0.2878
10345TIP3    H155230   6.673   3.792   7.271  0.2267 -0.7315 -0.4682
10345TIP3    H255231   6.561   3.725   7.346 -0.3913 -0.4868 -1.1660
10346TIP3   OH255232   1.663   5.030   5.006  0.2438  0.6837  0.0076
10346TIP3    H155233   1.695   5.099   5.064  1.1115  0.5768 -0.3405
10346TIP3    H255234   1.574   5.013   5.037  0.9893 -0.0294  1.9240
10347TIP3   OH255235   2.066   4.637   5.409  0.1753  0.0869 -0.4742
10347TIP3    H155236   2.126   4.596   5.347  0.5829  1.3439 -0.9388
10347TIP3    H255237   2.065   4.729   5.384  0.6123  0.7011  1.6073
10348TIP3   OH255238   6.354   6.021   4.719  0.1402 -0.0657  0.2131
10348TIP3    H155239   6.333   6.110   4.691 -0.1901 -0.2800 -0.2370
10348TIP3    H255240   6.447   6.024   4.742  0.4534  0.1096 -0.9825
10349TIP3   OH255241   0.009   1.254   4.859 -0.3202 -0.2392 -0.0435
10349TIP3    H155242  -0.039   1.175   4.883  0.9349 -0.5504  1.6288
10349TIP3    H255243   0.099   1.224   4.843  0.0639  0.7614  0.1584
10350TIP3   OH255244   5.842   3.882   7.057  0.7289  0.6755  0.2709
10350TIP3    H155245   5.907   3.813   7.069  0.9749  0.6637 -0.9716
10350TIP3    H255246   5.789   3.880   7.137  0.4472 -1.2598  0.0782
10351TIP3   OH255247   5.574   3.910   5.070  0.2986  0.2307 -0.2881
10351TIP3    H155248   5.628   3.962   5.010 -0.7054  0.1533 -1.2942
10351TIP3    H255249   5.619   3.825   5.073 -0.0647 -0.0385 -1.6123
10352TIP3   OH255250   1.833   6.879   6.086 -0.1463 -1.0648  0.4370
10352TIP3    H155251   1.894   6.950   6.068  0.4947 -1.9214 -0.9901
10352TIP3    H255252   1.857   6.847   6.173  0.3585 -0.3340  0.5692
10353TIP3   OH255253   3.193   2.787   5.026 -0.2158  0.7547 -0.1174
10353TIP3    H155254   3.157   2.728   4.960  1.3822  0.8513 -1.1478
10353TIP3    H255255   3.124   2.850   5.043 -2.7479 -2.3845  2.4529
10354TIP3   OH255256   0.467   0.207   6.287 -0.3921 -0.0185  0.3139
10354TIP3    H155257   0.424   0.144   6.230 -2.0613 -0.8682  2.3976
10354TIP3    H255258   0.415   0.287   6.278 -1.4928 -0.5717  1.6586
10355TIP3   OH255259   1.079   1.945   6.831  0.0105 -0.2240  0.1055
10355TIP3    H155260   1.114   1.935   6.920 -1.2652  0.6020  0.7317
10355TIP3    H255261   0.990   1.909   6.836  0.3259 -1.2108 -1.1370
10356TIP3   OH255262   2.308   0.633   7.964 -0.2049 -0.2820  0.1221
10356TIP3    H155263   2.307   0.720   7.924  1.9677 -0.8775 -1.3929
10356TIP3    H255264   2.232   0.588   7.925 -1.8313  1.1229  1.5329
10357TIP3   OH255265   2.679   3.386   6.375  0.3423  0.2992  0.1286
10357TIP3    H155266   2.749   3.449   6.390  2.2974 -1.5400 -0.6438
10357TIP3    H255267   2.647   3.407   6.287  0.9435  0.2932 -0.1020
10358TIP3   OH255268   6.656   6.747   7.670  0.4326  0.0650  0.2235
10358TIP3    H155269   6.712   6.758   7.593 -0.8893 -2.2306 -1.2126
10358TIP3    H255270   6.705   6.688   7.728 -0.5209 -2.4050 -1.2814
10359TIP3   OH255271   7.082   2.555   5.642  0.5128 -0.0052 -0.1339
10359TIP3    H155272   6.999   2.558   5.595  1.3614  0.1040 -1.6672
10359TIP3    H255273   7.094   2.645   5.675  0.0150 -0.0366  0.1489
10360TIP3   OH255274   0.606   3.962   5.595 -0.8488  0.4061  0.8644
10360TIP3    H155275   0.682   3.964   5.653  0.0547  0.7123 -0.2802
10360TIP3    H255276   0.644   3.962   5.507 -2.1657 -0.6995  0.2718
10361TIP3   OH255277   6.514   6.687   5.973 -0.5577 -0.6097 -0.0509
10361TIP3    H155278   6.585   6.664   5.913  1.1069  1.4180  1.0173
10361TIP3    H255279   6.527   6.629   6.049 -1.6102 -1.9554 -0.8479
10362TIP3   OH255280   0.894   4.215   5.694  0.4255 -0.1219  0.1734
10362TIP3    H155281   0.811   4.261   5.690 -0.0121 -0.9727 -1.1800
10362TIP3    H255282   0.958   4.278   5.659  0.1702  0.1558  0.2037
10363TIP3   OH255283   7.048   1.978   5.386 -0.0362  0.3955  0.2982
10363TIP3    H155284   7.052   2.072   5.367 -3.0329  0.6138  0.1828
10363TIP3    H255285   7.060   1.935   5.301  1.8577  0.5956  0.4272
10364TIP3   OH255286   3.348   3.745   6.220 -0.4009  0.6395 -0.2935
10364TIP3    H155287   3.367   3.824   6.270  1.5881  1.4902 -2.2368
10364TIP3    H255288   3.290   3.774   6.150 -1.2647 -0.0633  0.1072
10365TIP3   OH255289   3.307   1.552   5.977 -0.1132  0.3813 -0.3211
10365TIP3    H155290   3.335   1.475   5.927  2.5642 -0.1416  1.7680
10365TIP3    H255291   3.254   1.602   5.916 -1.1897 -2.6087 -2.0860
10366TIP3   OH255292   5.321   0.732   5.144 -0.1456 -0.1047  0.3703
10366TIP3    H155293   5.263   0.785   5.089  0.2919 -1.4460 -1.4973
10366TIP3    H255294   5.383   0.692   5.082  0.0184 -2.1658  1.7608
10367TIP3   OH255295   3.934   6.268   5.003  0.2074 -0.2255  0.0757
10367TIP3    H155296   3.841   6.256   4.986  0.0710 -0.7071  1.0763
10367TIP3    H255297   3.977   6.194   4.960  0.1797  0.1950 -0.7001
10368TIP3   OH255298   2.817   5.609   5.589 -0.2980  0.4503 -0.0011
10368TIP3    H155299   2.888   5.620   5.652 -1.6258 -0.6464  1.7729
10368TIP3    H255300   2.822   5.687   5.534  0.3774  1.9229  2.0200
10369TIP3   OH255301   6.299   4.431   6.982 -0.2624  0.3144 -0.1587
10369TIP3    H155302   6.285   4.518   7.018 -1.2279 -0.6033  1.8602
10369TIP3    H255303   6.307   4.374   7.058  0.1665 -1.4017 -1.4156
10370TIP3   OH255304   1.323   5.930   5.505 -0.4869 -0.0102  0.4193
10370TIP3    H155305   1.370   5.884   5.575  0.6954  2.1757  1.1935
10370TIP3    H255306   1.366   5.903   5.424  0.8641  0.4643  0.9486
10371TIP3   OH255307   3.462   4.777   5.144 -0.1509 -0.6038  0.1338
10371TIP3    H155308   3.396   4.718   5.107 -0.1426 -0.9197  0.6060
10371TIP3    H255309   3.423   4.809   5.226 -0.0825 -0.0903 -0.0291
10372TIP3   OH255310   1.339   3.320   6.168 -0.1156  0.1115  0.2845
10372TIP3    H155311   1.300   3.402   6.139 -0.1367  0.0283  0.0756
10372TIP3    H255312   1.299   3.253   6.113  0.4460  0.0433 -0.0577
10373TIP3   OH255313   1.417   1.519   5.366  0.3757  0.0567  0.3068
10373TIP3    H155314   1.339   1.548   5.317  0.3191  0.6316  0.7259
10373TIP3    H255315   1.491   1.556   5.318  0.2871  1.2484  1.0471
10374TIP3   OH255316   4.067   2.577   5.458  0.3410  0.0216 -0.1129
10374TIP3    H155317   4.118   2.611   5.385  0.3968 -0.5908 -0.3620
10374TIP3    H255318   4.132   2.544   5.521  0.2668 -1.3915 -0.7336
10375TIP3   OH255319   4.435   4.455   7.095 -0.0679 -0.3245  0.1840
10375TIP3    H155320   4.451   4.456   7.190  0.9568  0.5348  0.0198
10375TIP3    H255321   4.391   4.537   7.077  2.9808  1.3035 -0.5536
10376TIP3   OH255322   6.304   5.037   5.045 -0.1656 -0.4948  0.0489
10376TIP3    H155323   6.280   5.112   5.100 -1.3395 -0.2802 -0.7094
10376TIP3    H255324   6.276   5.063   4.957 -2.5423 -2.5901  0.0587
10377TIP3   OH255325   0.940   6.340   5.498 -0.3963 -0.2773  0.1131
10377TIP3    H155326   0.996   6.265   5.479 -1.6973 -0.9736 -1.1051
10377TIP3    H255327   0.937   6.344   5.594  1.4299 -0.4052  0.2172
10378TIP3   OH255328   0.518   6.546   6.734  0.1472  0.9593 -0.0515
10378TIP3    H155329   0.574   6.491   6.788  0.6521  1.6476  0.1470
10378TIP3    H255330   0.474   6.486   6.674  0.9137  0.3869 -0.0444
10379TIP3   OH255331   5.163   5.911   5.317 -0.3704  0.1177 -0.5529
10379TIP3    H155332   5.112   5.947   5.390 -1.1444  0.4110 -1.2251
10379TIP3    H255333   5.153   5.975   5.247  1.3473  0.4328 -0.5563
10380TIP3   OH255334   2.708   7.205   5.451 -0.2047 -0.2347  0.4970
10380TIP3    H155335   2.641   7.155   5.498 -0.3089 -0.2417  0.3416
10380TIP3    H255336   2.659   7.254   5.385 -0.2728  1.0753  1.4690
10381TIP3   OH255337   6.993   1.011   6.988  0.3089 -0.0340  0.1205
10381TIP3    H155338   6.937   1.051   7.055 -0.5220 -0.8504 -0.0609
10381TIP3    H255339   6.979   1.064   6.910 -1.3381 -1.0300 -0.3166
10382TIP3   OH255340   6.472   6.012   6.188 -0.3426  0.3714 -0.1325
10382TIP3    H155341   6.414   6.059   6.248  1.1916  0.5382  1.3260
10382TIP3    H255342   6.489   5.929   6.232  0.8155  0.4904 -0.3196
10383TIP3   OH255343   3.941   3.727   7.207 -0.6042 -0.2493  0.2829
10383TIP3    H155344   3.886   3.652   7.230 -0.0165 -0.1028  2.4048
10383TIP3    H255345   4.012   3.689   7.155 -0.7048 -1.0569  0.7101
10384TIP3   OH255346   2.737   6.761   5.920 -0.4659 -0.0671 -0.3762
10384TIP3    H155347   2.733   6.677   5.874 -0.3312  0.0781 -0.6577
10384TIP3    H255348   2.647   6.793   5.921 -0.4939 -0.1461 -0.4009
10385TIP3   OH255349   4.016   5.474   7.486 -0.0456  0.3048 -0.3909
10385TIP3    H155350   3.940   5.531   7.472 -0.6525 -0.5343 -0.5927
10385TIP3    H255351   4.065   5.516   7.557 -1.5821  0.0000  0.8964
10386TIP3   OH255352   5.031   4.066   5.309 -0.2732 -0.2292  0.0044
10386TIP3    H155353   5.063   4.072   5.399  1.4187  0.3152 -0.6032
10386TIP3    H255354   5.052   4.151   5.270  0.4889 -1.0221 -1.3622
10387TIP3   OH255355   1.811   7.025   5.083  0.0236  0.3191 -0.0833
10387TIP3    H155356   1.748   6.956   5.103 -0.2341  0.7935  0.8126
10387TIP3    H255357   1.897   6.985   5.099 -0.0254 -0.3301 -1.3180
10388TIP3   OH255358   0.145   6.772   6.259  0.1829 -0.0808  0.5548
10388TIP3    H155359   0.180   6.837   6.198 -0.4874 -0.0917  0.1544
10388TIP3    H255360   0.090   6.823   6.319 -1.2178 -0.4139 -0.4225
10389TIP3   OH255361   4.993   6.054   5.511  0.2542  0.1349 -0.2272
10389TIP3    H155362   4.994   6.146   5.486 -0.7648  0.1192 -0.3764
10389TIP3    H255363   4.910   6.042   5.557 -0.1065 -0.9284 -1.0849
10390TIP3   OH255364   4.535   4.999   5.191 -0.3579  0.9104  0.0419
10390TIP3    H155365   4.628   4.992   5.170 -0.5233 -0.4395 -0.3451
10390TIP3    H255366   4.490   4.980   5.109 -0.9746 -0.9236  0.7351
10391TIP3   OH255367   3.672   6.982   6.260 -0.1955 -0.0493 -0.4901
10391TIP3    H155368   3.588   6.994   6.216 -0.2453  1.6928  0.0071
10391TIP3    H255369   3.651   6.993   6.353  0.8420  2.3787 -0.4810
10392TIP3   OH255370   1.792   4.191   7.175  0.5068 -0.0273 -0.2689
10392TIP3    H155371   1.861   4.161   7.115  0.3438  1.0312 -1.0307
10392TIP3    H255372   1.720   4.216   7.117  0.0176  0.2088  0.4309
10393TIP3   OH255373   4.032   5.432   6.190  0.2745 -0.4233 -0.3263
10393TIP3    H155374   3.948   5.399   6.160 -0.2848 -0.4819  1.2122
10393TIP3    H255375   4.010   5.489   6.264  1.5095  0.4108 -0.5733
10394TIP3   OH255376   5.530   0.176   5.664 -0.0823  0.3600 -0.3669
10394TIP3    H155377   5.583   0.230   5.722 -2.1315  0.1934  1.8182
10394TIP3    H255378   5.462   0.236   5.631  0.3693  0.1670 -1.7096
10395TIP3   OH255379   7.539   7.334   5.791  0.0808 -0.2363  0.3862
10395TIP3    H155380   7.598   7.284   5.847 -0.9943 -1.5251  0.4122
10395TIP3    H255381   7.587   7.343   5.708  1.9188  2.1819  1.5916
10396TIP3   OH255382   6.550   7.054   4.792 -0.0934 -0.0259 -0.0451
10396TIP3    H155383   6.515   7.006   4.717  0.6169  1.3234 -1.2744
10396TIP3    H255384   6.606   6.990   4.836  0.7555 -0.3878 -1.5835
10397TIP3   OH255385   1.154   0.703   6.915 -0.5177 -0.1427 -0.3421
10397TIP3    H155386   1.125   0.746   6.996  0.4362 -0.8662  0.4046
10397TIP3    H255387   1.249   0.696   6.924 -0.3262  0.2524 -1.7852
10398TIP3   OH255388   0.100   2.240   5.337  0.2692 -0.2905 -0.1310
10398TIP3    H155389   0.015   2.219   5.297  1.0752 -2.9624 -0.6183
10398TIP3    H255390   0.098   2.196   5.422  0.7610  0.5699  0.3330
10399TIP3   OH255391   3.709   3.811   7.044 -0.1649 -0.0990 -0.6740
10399TIP3    H155392   3.694   3.718   7.060 -1.1269  0.2717  0.7830
10399TIP3    H255393   3.793   3.815   6.997  0.0893 -1.6608 -0.3751
10400TIP3   OH255394   5.075   7.024   6.249  1.0361 -0.1410 -0.2836
10400TIP3    H155395   5.163   6.991   6.260  1.0132 -0.3227 -0.6285
10400TIP3    H255396   5.037   7.023   6.337  1.0934 -0.8526 -0.2666
10401TIP3   OH255397   0.968   2.474   6.156  0.6040  0.6195  0.1582
10401TIP3    H155398   1.049   2.425   6.142  0.8645  1.1099 -0.0707
10401TIP3    H255399   0.919   2.463   6.074  0.5209  0.4763  0.2268
10402TIP3   OH255400   0.511   4.236   5.026  0.0585 -0.4668 -0.0740
10402TIP3    H155401   0.599   4.254   4.993  0.1456  1.5839  1.1445
10402TIP3    H255402   0.525   4.192   5.110 -0.0565  0.3884  0.3989
10403TIP3   OH255403   7.469   4.771   5.251  0.0571  0.0300 -0.3430
10403TIP3    H155404   7.467   4.686   5.206  0.1023  0.4693 -1.1832
10403TIP3    H255405   7.525   4.826   5.196  1.4980  0.0866  1.1262
10404TIP3   OH255406   6.427   3.126   7.130  0.2387 -0.3941 -0.1954
10404TIP3    H155407   6.396   3.036   7.136  0.0837 -0.3166  0.2237
10404TIP3    H255408   6.495   3.124   7.062 -0.7699 -0.5309 -1.2205
10405TIP3   OH255409   0.525   0.255   7.414 -0.1283  0.1878  0.3724
10405TIP3    H155410   0.462   0.230   7.481 -0.3365  0.3263  0.2304
10405TIP3    H255411   0.608   0.217   7.443 -0.4524 -0.7403  0.1109
10406TIP3   OH255412   1.206   1.623   5.214  0.0858 -0.2617  0.0972
10406TIP3    H155413   1.155   1.702   5.196  0.6649  0.2167  0.5096
10406TIP3    H255414   1.212   1.579   5.130 -0.8140 -0.2183 -0.0055
10407TIP3   OH255415   4.472   6.861   7.215 -0.3204 -0.5611 -0.3297
10407TIP3    H155416   4.486   6.955   7.207 -1.5753 -0.4215 -1.3108
10407TIP3    H255417   4.460   6.830   7.125  1.8738 -1.9979 -0.2003
10408TIP3   OH255418   5.471   7.582   6.309 -0.1291 -0.5896  0.5422
10408TIP3    H155419   5.446   7.660   6.358 -0.1145 -0.2241 -0.0210
10408TIP3    H255420   5.532   7.614   6.243  0.7943 -1.2632  1.0384
10409TIP3   OH255421   3.951   3.220   5.626 -0.0342 -0.2381 -0.3841
10409TIP3    H155422   4.011   3.208   5.700  0.3644  0.9498 -0.4865
10409TIP3    H255423   3.869   3.251   5.666 -0.4296 -1.3633 -0.2915
10410TIP3   OH255424   7.245   1.924   5.617 -0.0505  0.0417  0.6758
10410TIP3    H155425   7.267   2.008   5.658  0.5433  0.5047 -0.5381
10410TIP3    H255426   7.191   1.948   5.542  1.0395 -0.5583 -0.3235
10411TIP3   OH255427   0.958   3.394   4.908  0.2699  0.1629 -0.1501
10411TIP3    H155428   0.935   3.353   4.825 -0.5634  1.0463 -0.3671
10411TIP3    H255429   0.889   3.368   4.968  1.6662 -1.7412  0.7209
10412TIP3   OH255430   0.534   1.488   7.428  0.1451 -0.1425  0.4221
10412TIP3    H155431   0.604   1.547   7.455  0.7827 -1.2780  1.3493
10412TIP3    H255432   0.491   1.533   7.356 -1.7309  3.1484  3.2896
10413TIP3   OH255433   3.432   2.479   7.218 -0.1448 -0.1261 -0.0166
10413TIP3    H155434   3.480   2.548   7.173 -0.2599 -0.1759 -0.2171
10413TIP3    H255435   3.482   2.462   7.298 -0.2497  0.3588  0.1521
10414TIP3   OH255436   7.187   4.048   6.284 -0.2472  0.4437 -0.0677
10414TIP3    H155437   7.140   4.022   6.205 -0.0160  2.5099 -0.9595
10414TIP3    H255438   7.119   4.089   6.339 -0.2059 -0.0367  0.3457
10415TIP3   OH255439   6.141   7.086   4.565 -0.0915  0.0655  0.1467
10415TIP3    H155440   6.108   7.123   4.647 -0.5948 -1.6743  0.7627
10415TIP3    H255441   6.092   7.132   4.497  0.8133  2.0204  0.7581
10416TIP3   OH255442   2.952   3.598   4.840  0.2834  0.3148  0.2917
10416TIP3    H155443   2.882   3.588   4.905  0.7095 -1.1793  0.5424
10416TIP3    H255444   2.925   3.542   4.768  1.9010 -1.4664  0.9915
10417TIP3   OH255445   4.992   5.116   4.845  0.0982  0.2093  0.3798
10417TIP3    H155446   5.000   5.028   4.881 -2.3192 -0.1083  0.3123
10417TIP3    H255447   5.043   5.114   4.764  3.0156  0.0122  2.0937
10418TIP3   OH255448   4.360   6.369   6.085 -0.2394 -0.5506 -0.5466
10418TIP3    H155449   4.448   6.396   6.109 -0.2951  0.8930 -1.7954
10418TIP3    H255450   4.318   6.347   6.168  0.7779  0.3853  0.2469
10419TIP3   OH255451   3.565   2.428   7.446  0.0300 -0.5279  0.2161
10419TIP3    H155452   3.533   2.381   7.523 -1.3012  0.3148  0.2102
10419TIP3    H255453   3.659   2.436   7.460  0.3602 -3.3529  0.1044
10420TIP3   OH255454   2.755   0.942   6.676 -0.5017 -0.5101 -0.4144
10420TIP3    H155455   2.768   1.031   6.706  0.6015 -0.8741  0.2408
10420TIP3    H255456   2.820   0.930   6.607 -0.6637 -0.7969 -0.5202
10421TIP3   OH255457   4.736   5.391   7.263 -0.1829 -0.3232 -0.3931
10421TIP3    H155458   4.684   5.471   7.271 -1.7230 -1.0790 -2.0790
10421TIP3    H255459   4.778   5.399   7.177 -0.4485 -1.3611 -0.6346
10422TIP3   OH255460   7.090   5.010   6.526 -0.2064 -0.0008  0.3958
10422TIP3    H155461   7.130   4.949   6.464  0.9318  0.4784  0.6312
10422TIP3    H255462   7.000   4.979   6.536 -0.3480 -0.2297 -1.2998
10423TIP3   OH255463   4.250   6.051   6.487 -0.0298  0.0778  0.1289
10423TIP3    H155464   4.242   6.044   6.392 -1.1362  1.2290  0.1045
10423TIP3    H255465   4.195   5.980   6.521 -1.9034  1.3446 -0.1127
10424TIP3   OH255466   4.125   5.519   5.094 -0.8795  0.0162  0.8084
10424TIP3    H155467   4.219   5.526   5.109 -0.6324  0.5737 -0.7605
10424TIP3    H255468   4.116   5.451   5.027 -1.6152 -0.0979  1.0067
10425TIP3   OH255469   7.218   3.916   5.164  0.1691 -0.3805  0.5421
10425TIP3    H155470   7.242   3.981   5.098 -0.3783 -0.6683  0.0475
10425TIP3    H255471   7.227   3.962   5.247 -0.5029  0.4356  0.1828
10426TIP3   OH255472   1.490   1.004   6.318 -0.2994  0.1154 -0.2522
10426TIP3    H155473   1.414   1.047   6.356  0.8789  2.0669  0.0204
10426TIP3    H255474   1.467   0.992   6.226 -0.7174  1.2453 -0.3103
10427TIP3   OH255475   7.656   2.144   6.798  0.7472 -0.3102 -0.1846
10427TIP3    H155476   7.743   2.141   6.757  0.5554 -1.1965 -0.5425
10427TIP3    H255477   7.595   2.143   6.725  0.4082 -1.7392  0.0743
10428TIP3   OH255478   2.704   4.609   6.766 -0.0583 -0.6510 -0.0011
10428TIP3    H155479   2.683   4.702   6.757  1.4333 -0.0263  2.1367
10428TIP3    H255480   2.628   4.572   6.811  0.0991 -0.0472  0.7926
10429TIP3   OH255481   5.034   3.752   5.415 -0.1620  0.0549  0.0921
10429TIP3    H155482   5.044   3.771   5.508 -1.0887 -0.9326  0.4134
10429TIP3    H255483   5.008   3.835   5.376 -0.4994  0.3071  0.8404
10430TIP3   OH255484   2.582   0.113   6.685 -1.0604  0.2855 -0.0101
10430TIP3    H155485   2.635   0.035   6.697 -0.5951  0.6412  0.2841
10430TIP3    H255486   2.528   0.118   6.763 -0.1435  0.9752  0.6024
10431TIP3   OH255487   4.042   1.030   4.437 -0.5274  0.1838  0.0095
10431TIP3    H155488   4.044   1.107   4.495 -0.5416  0.7345 -0.7045
10431TIP3    H255489   4.077   1.062   4.354 -0.7915 -0.5177 -0.3790
10432TIP3   OH255490   5.536   7.664   6.807  0.0396 -1.0260 -0.0997
10432TIP3    H155491   5.628   7.688   6.794  0.1454 -1.2368  0.2442
10432TIP3    H255492   5.496   7.740   6.849  0.5836 -1.7451  1.8452
10433TIP3   OH255493   0.766   6.180   4.875  0.0198 -0.1618  0.4442
10433TIP3    H155494   0.748   6.260   4.826  0.0126 -0.0358  0.6563
10433TIP3    H255495   0.697   6.175   4.940  0.1923 -0.1851  0.6251
10434TIP3   OH255496   3.986   3.959   6.406 -0.0874  0.1259  0.0645
10434TIP3    H155497   3.892   3.963   6.388 -0.2914 -0.5139  0.9758
10434TIP3    H255498   4.024   4.024   6.346 -0.9630 -0.4640 -1.1817
10435TIP3   OH255499   4.159   0.598   5.679 -0.0885 -0.1918  0.0124
10435TIP3    H155500   4.136   0.506   5.689 -1.2648  0.0508 -0.3562
10435TIP3    H255501   4.077   0.646   5.691  0.6411  0.8823  1.0198
10436TIP3   OH255502   1.052   4.842   5.634  0.2886  0.0860 -0.1326
10436TIP3    H155503   0.978   4.902   5.641  1.1956  1.2429  0.0345
10436TIP3    H255504   1.045   4.805   5.546  0.0432  0.9254 -0.4835
10437TIP3   OH255505   3.614   5.899   5.641 -0.0598  0.5699  0.1707
10437TIP3    H155506   3.651   5.828   5.588 -1.0003  0.4715 -0.3737
10437TIP3    H255507   3.553   5.944   5.582 -0.5430  0.9387  0.9369
10438TIP3   OH255508   4.271   2.010   5.403  0.2844  0.9742 -0.3768
10438TIP3    H155509   4.275   1.979   5.493  3.2279 -1.8077 -1.2414
10438TIP3    H255510   4.290   2.104   5.408 -1.0151  1.1853  1.9078
10439TIP3   OH255511   4.584   7.309   5.067  0.9801  0.0412  0.1402
10439TIP3    H155512   4.586   7.405   5.075  0.3553 -0.0355  1.5249
10439TIP3    H255513   4.526   7.281   5.137  1.1614 -1.3690 -0.2537
   7.68049   7.68049  30.00000
